Title
82262
    1SAPS     N    1   0.228   6.746  11.004 -0.3391 -0.1197  0.2343
    1SAPS   HN1    2   0.138   6.796  10.985 -0.5475 -1.1627 -1.7338
    1SAPS   HN2    3   0.260   6.777  11.098  1.7196 -2.5124  0.4216
    1SAPS   HN3    4   0.305   6.791  10.951 -0.4542  2.3396  1.9754
    1SAPS   C12    5   0.198   6.600  11.010  0.0486  0.1422 -0.3534
    1SAPS  H12A    6   0.173   6.549  10.918 -0.0117  0.1662 -0.3511
    1SAPS   C13    7   0.330   6.527  11.053  0.2859  0.0393 -0.7471
    1SAPS  O13A    8   0.431   6.600  11.082 -0.0557  0.1472 -0.1953
    1SAPS  O13B    9   0.337   6.400  11.039  0.0152 -0.3528  0.1496
    1SAPS   C11   10   0.080   6.575  11.114  0.2519 -0.5295  0.1650
    1SAPS  H11A   11   0.092   6.640  11.203  1.4044 -2.7783  1.7350
    1SAPS  H11B   12   0.100   6.474  11.155  1.6503  0.4795  2.1350
    1SAPS     P   13  -0.124   6.708  11.021 -0.0242 -0.3542  0.1656
    1SAPS   O13   14  -0.249   6.712  11.101 -0.0221  0.3268  0.1011
    1SAPS   O14   15  -0.029   6.822  11.017  0.0722  0.6879 -0.5689
    1SAPS   O12   16  -0.051   6.574  11.060 -0.2628 -0.6889 -0.6554
    1SAPS   O11   17  -0.162   6.668  10.875 -0.0225  0.0847  0.3690
    1SAPS    C1   18  -0.094   6.731  10.764  0.3504  0.0815  0.0203
    1SAPS    HA   19  -0.157   6.810  10.718 -0.1021 -0.7631 -0.8512
    1SAPS    HB   20   0.006   6.770  10.792  0.2760 -1.2419  2.5025
    1SAPS    C2   21  -0.067   6.630  10.647  0.2615  0.2665 -0.0433
    1SAPS    HS   22  -0.170   6.600  10.618 -1.0061  4.0625 -0.1250
    1SAPS   O21   23   0.002   6.520  10.703 -0.1298  0.8460 -0.5715
    1SAPS   C21   24  -0.035   6.401  10.669  0.5927  0.6881  0.3036
    1SAPS   O22   25  -0.119   6.373  10.585 -0.0480  0.1676 -0.1199
    1SAPS   C22   26   0.061   6.295  10.728 -0.4577 -0.1717  0.1380
    1SAPS   H2R   27   0.147   6.345  10.777 -0.3826  0.8241 -0.9784
    1SAPS   H2S   28   0.007   6.243  10.810  0.2257  0.0632  0.7501
    1SAPS    C3   29   0.012   6.688  10.527  0.0039 -0.2981 -0.6995
    1SAPS    HX   30   0.120   6.701  10.550 -0.2845 -1.0122  1.2303
    1SAPS    HY   31  -0.025   6.791  10.509 -0.5475  0.2125  2.7256
    1SAPS   O31   32   0.002   6.595  10.413 -0.3918 -0.7796 -0.2499
    1SAPS   C31   33   0.013   6.655  10.293  0.1141  0.0252 -0.3003
    1SAPS   O32   34   0.058   6.764  10.267  0.2440  0.1898  0.0453
    1SAPS   C32   35  -0.013   6.544  10.187 -0.1051  0.0959  0.0923
    1SAPS   H2X   36  -0.047   6.451  10.236 -1.5518  0.0208 -0.9882
    1SAPS   H2Y   37   0.087   6.525  10.142 -0.4015  1.2916 -1.1581
    1SAPS   C23   38   0.109   6.194  10.617 -0.2660 -0.5636 -0.9422
    1SAPS   H3R   39   0.031   6.170  10.542 -0.3712 -0.7061 -0.7883
    1SAPS   H3S   40   0.135   6.093  10.656 -3.4731 -1.8043 -1.7059
    1SAPS   C24   41   0.247   6.242  10.558 -0.6145  0.6253  0.0536
    1SAPS   H4R   42   0.275   6.149  10.505 -3.6214  0.9383 -2.3403
    1SAPS   H4S   43   0.310   6.267  10.646 -2.6814  3.7556  0.8362
    1SAPS   C25   44   0.234   6.365  10.467  0.9573  0.1212 -1.3877
    1SAPS   H5R   45   0.197   6.455  10.517 -0.8118 -1.3540  0.1059
    1SAPS   C26   46   0.256   6.368  10.340  0.2696 -0.3702 -0.2805
    1SAPS   H6R   47   0.251   6.465  10.289  0.8366 -1.1344 -1.8785
    1SAPS   C27   48   0.295   6.252  10.254  0.1772 -0.0804 -0.3236
    1SAPS   H7R   49   0.349   6.179  10.317 -0.8355 -0.5005  0.0828
    1SAPS   H7S   50   0.365   6.285  10.175 -1.5339 -1.1177 -2.3861
    1SAPS   C28   51   0.166   6.196  10.205 -0.1977  0.1321  1.5666
    1SAPS   H8R   52   0.118   6.131  10.279  1.1800 -0.8451  1.6565
    1SAPS   C29   53   0.133   6.191  10.068  0.0625  0.4414 -0.7768
    1SAPS   H9R   54   0.036   6.152  10.034  0.2841  2.2162 -3.7348
    1SAPS  C210   55   0.204   6.257   9.952  0.0454  0.5327 -1.0042
    1SAPS  H10R   56   0.155   6.224   9.858 -1.9734  0.5922 -0.0295
    1SAPS  H10S   57   0.301   6.203   9.957 -0.0001  0.5379  0.2692
    1SAPS  C211   58   0.241   6.403   9.957 -0.1281 -0.3798 -1.2645
    1SAPS  H11R   59   0.284   6.439  10.052  0.7802 -3.2593 -0.4644
    1SAPS  C212   60   0.223   6.486   9.858 -0.1241  0.2132 -0.1104
    1SAPS  H12R   61   0.252   6.591   9.872  3.9804 -0.9286  1.5642
    1SAPS  C213   62   0.152   6.456   9.727  0.4345  0.0096  0.2937
    1SAPS  H13R   63   0.045   6.439   9.750  0.6271  2.4141  3.7900
    1SAPS  H13S   64   0.189   6.364   9.677 -0.7296 -0.5573  0.4544
    1SAPS  C214   65   0.151   6.570   9.618 -0.2554  0.3127  0.3567
    1SAPS  H14R   66   0.218   6.657   9.629 -1.3236  1.4052 -1.2491
    1SAPS  C215   67   0.057   6.574   9.521 -0.1851 -0.4841  1.1483
    1SAPS  H15R   68   0.058   6.649   9.441  1.4549 -0.0695  1.5291
    1SAPS  C216   69  -0.040   6.462   9.493 -0.0239  0.1765 -0.2577
    1SAPS  H16R   70  -0.145   6.497   9.478  0.2419  0.6484 -1.1101
    1SAPS  H16S   71  -0.046   6.395   9.581  2.3022  0.0412 -0.1388
    1SAPS  C217   72   0.013   6.374   9.376 -0.0132 -0.2009  0.4776
    1SAPS  H17R   73  -0.065   6.296   9.360  0.2251 -0.3167 -0.1431
    1SAPS  H17S   74   0.103   6.311   9.394 -1.1777 -1.4023  2.5016
    1SAPS  C218   75   0.009   6.452   9.245 -0.3271  0.5365 -0.0318
    1SAPS  H18R   76   0.058   6.552   9.242  0.0463  0.3328 -1.0262
    1SAPS  H18S   77  -0.099   6.474   9.229 -0.8041  0.9389  3.0965
    1SAPS  C219   78   0.066   6.379   9.125 -0.0362 -0.0302 -0.9673
    1SAPS  H19R   79   0.029   6.278   9.100 -4.0795  0.9838  0.1606
    1SAPS  H19S   80   0.177   6.374   9.134 -0.2162 -1.4471  1.2730
    1SAPS  C220   81   0.045   6.455   8.988  0.1305  0.8169 -1.1541
    1SAPS  H20R   82  -0.062   6.485   8.981 -0.3627  0.1423  1.9520
    1SAPS  H20S   83   0.057   6.388   8.900  1.2078 -1.4477  0.6378
    1SAPS  H20T   84   0.109   6.546   8.984 -2.6848  3.0350  0.2243
    1SAPS   C33   85  -0.089   6.582  10.050 -0.1471  0.2166  0.3620
    1SAPS   H3X   86  -0.070   6.507   9.970  2.8694 -1.2495  2.2723
    1SAPS   H3Y   87  -0.052   6.679  10.011 -1.9434  1.3222  1.2628
    1SAPS   C34   88  -0.241   6.619  10.071 -0.7681  0.2936  0.3420
    1SAPS   H4X   89  -0.252   6.654  10.176 -2.9073 -1.0645  0.6311
    1SAPS   H4Y   90  -0.297   6.524  10.057  0.1377 -0.2312  0.1452
    1SAPS   C35   91  -0.282   6.726   9.967 -0.0305 -0.2921 -0.3390
    1SAPS   H5X   92  -0.236   6.824   9.993  2.2274 -1.7020  1.3650
    1SAPS   H5Y   93  -0.392   6.728   9.980 -0.1715  2.3188 -1.2214
    1SAPS   C36   94  -0.251   6.685   9.824  0.2629  0.1347  0.1086
    1SAPS   H6X   95  -0.248   6.574   9.826  1.4208  0.1620  0.9047
    1SAPS   H6Y   96  -0.145   6.706   9.797  0.6785  0.7252  2.0943
    1SAPS   C37   97  -0.343   6.745   9.717  0.0719 -0.6337  0.5598
    1SAPS   H7X   98  -0.340   6.856   9.717 -1.1229 -0.5841  0.8468
    1SAPS   H7Y   99  -0.450   6.718   9.730 -0.8781  1.8993 -1.2497
    1SAPS   C38  100  -0.298   6.709   9.575 -0.6235  0.3515  0.5951
    1SAPS   H8X  101  -0.305   6.599   9.562 -1.0057  0.2185  1.8109
    1SAPS   H8Y  102  -0.196   6.751   9.565  0.3950 -2.2427 -0.5070
    1SAPS   C39  103  -0.388   6.772   9.468  0.4222  0.7024  0.6204
    1SAPS   H9X  104  -0.375   6.882   9.469 -0.0486  0.7570  0.8480
    1SAPS   H9Y  105  -0.493   6.750   9.495 -0.4369  0.5830 -2.4884
    1SAPS  C310  106  -0.357   6.717   9.324 -0.3586 -0.4211 -0.7268
    1SAPS  H10X  107  -0.410   6.620   9.321 -0.8550 -0.1756 -4.2002
    1SAPS  H10Y  108  -0.248   6.696   9.311  0.2208  1.4365  0.6556
    1SAPS  C311  109  -0.394   6.805   9.208 -0.3788  0.4247  0.6166
    1SAPS  H11X  110  -0.318   6.885   9.198  0.2894 -0.1494  1.0352
    1SAPS  H11Y  111  -0.496   6.845   9.227 -0.8741 -0.4902 -0.0192
    1SAPS  C312  112  -0.381   6.734   9.065  0.4549  0.2896 -0.2231
    1SAPS  H12X  113  -0.432   6.636   9.075 -0.7312  0.8326 -0.8266
    1SAPS  H12Y  114  -0.272   6.716   9.046  0.6371  1.3492 -0.2418
    1SAPS  C313  115  -0.443   6.808   8.943 -0.4711 -0.0930  0.1826
    1SAPS  H13X  116  -0.390   6.901   8.914  1.9064 -1.3673  0.1439
    1SAPS  H13Y  117  -0.544   6.838   8.977 -0.4679 -0.0602  0.1634
    1SAPS  C314  118  -0.454   6.711   8.824  0.8020  0.3322 -0.6170
    1SAPS  H14X  119  -0.514   6.757   8.742  1.6946  1.2722 -0.7671
    1SAPS  H14Y  120  -0.509   6.620   8.855  0.6273  0.0858 -1.5979
    1SAPS  C315  121  -0.320   6.669   8.762 -0.0170 -0.6164 -0.1633
    1SAPS  H15X  122  -0.261   6.609   8.834 -1.0284  0.6687  1.8509
    1SAPS  H15Y  123  -0.257   6.754   8.727 -0.4621 -0.0503  0.3737
    1SAPS  C316  124  -0.336   6.586   8.633  0.2083 -0.3637 -0.4214
    1SAPS  H16X  125  -0.410   6.627   8.561 -0.4224 -1.6791 -0.5656
    1SAPS  H16Y  126  -0.402   6.497   8.647 -3.1598  2.1099  0.8610
    1SAPS  C317  127  -0.211   6.559   8.562  0.1755  0.3082  0.8578
    1SAPS  H17X  128  -0.131   6.554   8.640 -0.3552 -1.2806  1.3345
    1SAPS  H17Y  129  -0.192   6.651   8.502 -1.3952  0.9214  1.2478
    1SAPS  C318  130  -0.207   6.442   8.470  0.0892  0.2053  0.1219
    1SAPS  H18X  131  -0.102   6.413   8.449 -0.0803 -0.4924  0.1891
    1SAPS  H18Y  132  -0.258   6.460   8.373  0.6371 -2.2948 -0.7195
    1SAPS  H18Z  133  -0.243   6.354   8.527  2.8277  0.8558  3.1110
    2SAPS     N  134   4.930   6.125  10.829  0.1987  0.1736  0.7963
    2SAPS   HN1  135   4.855   6.084  10.889  0.8759 -1.0699  0.8227
    2SAPS   HN2  136   4.881   6.204  10.782 -2.3200 -0.7024  1.7610
    2SAPS   HN3  137   4.935   6.044  10.763 -0.0164 -0.1963  1.2286
    2SAPS   C12  138   5.045   6.157  10.917 -0.1406 -0.9228  0.0419
    2SAPS  H12A  139   5.022   6.256  10.954 -3.5847 -1.5501 -0.0153
    2SAPS   C13  140   5.066   6.072  11.048 -0.2785  0.4280  0.2603
    2SAPS  O13A  141   5.020   5.956  11.052  0.0809  0.1173 -0.0501
    2SAPS  O13B  142   5.168   6.111  11.116 -0.7283 -0.0941 -0.6684
    2SAPS   C11  143   5.166   6.144  10.830  0.3557 -0.3063 -0.0223
    2SAPS  H11A  144   5.176   6.042  10.787 -0.8466 -1.0084  1.2805
    2SAPS  H11B  145   5.257   6.151  10.894  1.6034  3.3521 -1.8778
    2SAPS     P  146   5.278   6.304  10.657 -0.3578  0.4648 -0.3803
    2SAPS   O13  147   5.235   6.394  10.548 -0.0716  0.2490 -0.1955
    2SAPS   O14  148   5.370   6.368  10.756  0.2244  0.3194 -0.4179
    2SAPS   O12  149   5.158   6.251  10.737 -0.4097 -0.2981  0.6778
    2SAPS   O11  150   5.343   6.179  10.582 -0.6408  0.0403 -0.6348
    2SAPS    C1  151   5.458   6.113  10.638  0.5259  0.4278  0.1470
    2SAPS    HA  152   5.489   6.137  10.742 -0.9644 -1.9984  1.2391
    2SAPS    HB  153   5.431   6.005  10.630  0.3925  0.3611  1.3951
    2SAPS    C2  154   5.584   6.132  10.553  0.6942 -0.2236  0.1060
    2SAPS    HS  155   5.616   6.236  10.575 -0.6040  0.4756 -1.0817
    2SAPS   O21  156   5.549   6.106  10.414  0.4434 -0.1569  0.4844
    2SAPS   C21  157   5.532   6.225  10.343 -0.1279 -0.1649  0.5638
    2SAPS   O22  158   5.563   6.333  10.390 -0.3832 -0.1680 -0.0769
    2SAPS   C22  159   5.484   6.202  10.205  0.1223 -0.2251  0.5062
    2SAPS   H2R  160   5.375   6.224  10.206  0.6139  2.5238  1.0874
    2SAPS   H2S  161   5.535   6.269  10.132  1.2468 -1.9353 -0.3646
    2SAPS    C3  162   5.711   6.045  10.589  0.6759  0.1637 -0.4133
    2SAPS    HX  163   5.675   5.940  10.584  0.5703  0.2294 -1.1708
    2SAPS    HY  164   5.740   6.064  10.695 -1.4156 -0.8762  0.4000
    2SAPS   O31  165   5.831   6.080  10.506 -0.0521  0.0445 -0.0638
    2SAPS   C31  166   5.848   5.997  10.407 -0.4454 -0.9453  0.3112
    2SAPS   O32  167   5.769   5.899  10.382 -0.4334 -0.0941 -0.0843
    2SAPS   C32  168   5.964   6.047  10.317 -0.0356 -0.0158  0.0535
    2SAPS   H2X  169   5.991   5.965  10.246 -0.0511  1.1013 -1.2955
    2SAPS   H2Y  170   6.055   6.066  10.378  0.4047  1.2816 -0.9740
    2SAPS   C23  171   5.484   6.058  10.149 -0.9615  0.4118  0.2050
    2SAPS   H3R  172   5.410   5.993  10.201 -2.1852  1.8784  0.3410
    2SAPS   H3S  173   5.589   6.022  10.163  0.5251  4.5139  1.0080
    2SAPS   C24  174   5.474   6.062   9.989  0.2888  0.4382  0.8959
    2SAPS   H4R  175   5.487   5.957   9.956  0.3281  0.5550  0.5430
    2SAPS   H4S  176   5.558   6.118   9.943  0.7572 -1.6712 -0.9946
    2SAPS   C25  177   5.341   6.126   9.933 -1.2628  0.6444  0.2624
    2SAPS   H5R  178   5.292   6.186  10.010 -0.4588  0.2154  1.1263
    2SAPS   C26  179   5.288   6.125   9.809  0.2031  0.6725  0.1245
    2SAPS   H6R  180   5.198   6.183   9.784 -0.0963 -0.0495 -0.5023
    2SAPS   C27  181   5.352   6.069   9.690  0.3506  0.4450 -0.5354
    2SAPS   H7R  182   5.328   5.961   9.695  0.2351  0.5328  1.4535
    2SAPS   H7S  183   5.463   6.064   9.702  0.1464 -0.6786  1.1442
    2SAPS   C28  184   5.310   6.127   9.551  0.0643  0.1422 -1.2171
    2SAPS   H8R  185   5.274   6.231   9.556  0.2078  0.1592 -0.2201
    2SAPS   C29  186   5.317   6.073   9.430 -0.4153  0.6494 -0.1099
    2SAPS   H9R  187   5.263   6.122   9.348 -1.3767  2.4523  1.5410
    2SAPS  C210  188   5.370   5.934   9.399  0.3148  0.7158 -0.8757
    2SAPS  H10R  189   5.284   5.871   9.368  0.6150  0.4023 -1.0922
    2SAPS  H10S  190   5.422   5.891   9.487 -1.0094  1.9937  0.5812
    2SAPS  C211  191   5.459   5.940   9.275  0.2073  1.0658 -0.2262
    2SAPS  H11R  192   5.567   5.942   9.296  0.3255 -1.6518 -0.3092
    2SAPS  C212  193   5.415   5.928   9.145 -0.9886 -0.1008 -0.4069
    2SAPS  H12R  194   5.487   5.936   9.062  0.8094  0.7243  1.1614
    2SAPS  C213  195   5.273   5.926   9.093  0.6571 -0.1563  0.5610
    2SAPS  H13R  196   5.254   6.020   9.037  0.8846 -1.2807 -1.5064
    2SAPS  H13S  197   5.202   5.940   9.177  1.6552 -0.5740  1.5000
    2SAPS  C214  198   5.231   5.806   9.005 -0.4458  0.0737 -0.7126
    2SAPS  H14R  199   5.262   5.709   9.047  1.7015  0.6846 -0.7722
    2SAPS  C215  200   5.158   5.815   8.889 -0.3543 -0.3812  0.4793
    2SAPS  H15R  201   5.142   5.724   8.830 -2.0307  1.6840 -2.5252
    2SAPS  C216  202   5.107   5.940   8.821 -0.3284 -0.5863  0.2486
    2SAPS  H16R  203   5.144   6.029   8.877  1.4744 -0.7154 -0.6710
    2SAPS  H16S  204   4.996   5.944   8.823 -0.3820 -1.9776  1.0721
    2SAPS  C217  205   5.143   5.957   8.670 -0.0564  0.7681 -0.0044
    2SAPS  H17R  206   5.109   6.059   8.642 -0.9011 -0.0792 -2.3765
    2SAPS  H17S  207   5.087   5.882   8.610 -0.2546  0.0556  1.0470
    2SAPS  C218  208   5.293   5.950   8.648  0.2726  0.1131  0.6165
    2SAPS  H18R  209   5.328   5.847   8.671  0.4224 -0.1567 -0.7251
    2SAPS  H18S  210   5.337   6.017   8.724  0.3389  1.4022 -0.5129
    2SAPS  C219  211   5.341   5.983   8.499  0.1281 -0.0884  0.2802
    2SAPS  H19R  212   5.281   6.066   8.457  0.4400 -0.1079 -0.2017
    2SAPS  H19S  213   5.324   5.894   8.435  1.8258  1.7748 -3.0268
    2SAPS  C220  214   5.489   6.014   8.485 -0.2390 -0.3953  0.5404
    2SAPS  H20R  215   5.520   6.116   8.514 -0.1737 -0.3922  0.4612
    2SAPS  H20S  216   5.513   6.005   8.377 -0.8919  2.4998  0.0685
    2SAPS  H20T  217   5.540   5.933   8.542 -1.5366 -0.5995  1.4795
    2SAPS   C33  218   5.935   6.182  10.244  0.2307  0.5004 -0.3219
    2SAPS   H3X  219   5.965   6.265  10.312  0.4781  1.3557 -1.4354
    2SAPS   H3Y  220   5.828   6.209  10.231 -0.2378  0.3754  2.5920
    2SAPS   C34  221   6.002   6.186  10.110 -0.0703  0.8049 -0.2130
    2SAPS   H4X  222   6.106   6.149  10.109  0.1320  1.3732 -0.7830
    2SAPS   H4Y  223   6.007   6.292  10.075 -1.8476  1.1432  0.4204
    2SAPS   C35  224   5.914   6.122  10.000 -0.0325 -0.0495  0.3965
    2SAPS   H5X  225   5.813   6.166   9.995 -0.1755 -0.4540 -0.3556
    2SAPS   H5Y  226   5.902   6.015  10.029 -0.5095 -0.2799 -0.6139
    2SAPS   C36  227   5.977   6.151   9.862  0.6766 -0.1516 -0.1277
    2SAPS   H6X  228   6.077   6.103   9.856 -0.0416 -1.8926  0.8934
    2SAPS   H6Y  229   5.988   6.261   9.850  0.7705 -0.0539  0.7964
    2SAPS   C37  230   5.888   6.104   9.747  0.3115 -0.2675 -0.2977
    2SAPS   H7X  231   5.785   6.146   9.751 -0.2796 -1.7389  1.3441
    2SAPS   H7Y  232   5.869   5.995   9.743 -2.8688  0.2148 -3.5641
    2SAPS   C38  233   5.939   6.148   9.610 -0.5932 -0.2634  0.2911
    2SAPS   H8X  234   6.045   6.115   9.618 -0.3551  0.7789  1.8229
    2SAPS   H8Y  235   5.935   6.258   9.598 -1.0433 -0.3794 -0.7203
    2SAPS   C39  236   5.881   6.079   9.488  0.1010  0.7282 -0.2367
    2SAPS   H9X  237   5.777   6.116   9.473 -0.0643  1.0997  1.6348
    2SAPS   H9Y  238   5.879   5.970   9.507  2.6365  0.3523 -1.6759
    2SAPS  C310  239   5.975   6.104   9.370  0.0375 -0.3239  0.1961
    2SAPS  H10X  240   6.083   6.118   9.393  0.5229  1.6133 -2.6602
    2SAPS  H10Y  241   5.947   6.206   9.335  2.0965 -0.3438 -1.7807
    2SAPS  C311  242   5.953   6.009   9.245  0.1507  0.8881 -0.1532
    2SAPS  H11X  243   5.856   6.037   9.199 -0.5943 -0.0844  0.7797
    2SAPS  H11Y  244   5.956   5.905   9.284  0.0678  1.6555  2.0421
    2SAPS  C312  245   6.076   6.010   9.138  0.0120 -0.7166 -0.5066
    2SAPS  H12X  246   6.156   5.971   9.205 -1.3099 -0.4709  1.2725
    2SAPS  H12Y  247   6.101   6.118   9.127 -0.7468 -0.6515 -1.8372
    2SAPS  C313  248   6.037   5.945   9.013 -0.4455 -0.1239 -0.7080
    2SAPS  H13X  249   5.953   6.005   8.971  0.5754  0.6104 -1.7435
    2SAPS  H13Y  250   6.000   5.843   9.036  0.8978 -0.0888  1.9596
    2SAPS  C314  251   6.152   5.923   8.919  0.1057  0.7316 -0.2498
    2SAPS  H14X  252   6.241   5.915   8.985 -0.6816 -0.3031  0.7136
    2SAPS  H14Y  253   6.169   6.021   8.869 -0.0805 -0.1730 -2.1618
    2SAPS  C315  254   6.127   5.818   8.811  0.1233 -0.8796 -0.0642
    2SAPS  H15X  255   6.212   5.821   8.739 -0.5246 -0.0484 -0.8258
    2SAPS  H15Y  256   6.033   5.846   8.758 -0.7232 -0.4099  1.6066
    2SAPS  C316  257   6.120   5.671   8.857 -0.2806 -1.0323 -0.4795
    2SAPS  H16X  258   6.130   5.609   8.765 -0.1229  0.8663 -1.7892
    2SAPS  H16Y  259   6.023   5.652   8.908 -0.3162 -1.1754 -0.5976
    2SAPS  C317  260   6.232   5.636   8.964  1.0649 -0.4113 -0.2198
    2SAPS  H17X  261   6.219   5.711   9.045  2.0237 -1.3564  0.8451
    2SAPS  H17Y  262   6.333   5.653   8.923  0.9554  0.1204 -0.2662
    2SAPS  C318  263   6.233   5.497   9.027 -0.2504  0.1115 -0.6991
    2SAPS  H18X  264   6.135   5.473   9.073  0.0999 -1.2332 -0.6167
    2SAPS  H18Y  265   6.320   5.497   9.096 -1.8585  0.8881  1.4024
    2SAPS  H18Z  266   6.245   5.414   8.954  2.1313 -1.0354  0.8705
    3SAPS     N  267   5.707   1.080  10.953  0.1116 -0.5799 -0.6313
    3SAPS   HN1  268   5.713   1.089  10.849 -0.3599 -3.4101 -0.9755
    3SAPS   HN2  269   5.805   1.080  10.989  0.2264  0.0244 -0.9280
    3SAPS   HN3  270   5.654   0.991  10.958 -0.6306 -0.1651 -0.9416
    3SAPS   C12  271   5.626   1.184  11.025  0.3387  0.6079  0.8956
    3SAPS  H12A  272   5.550   1.199  10.950 -0.0725 -3.7267  0.2198
    3SAPS   C13  273   5.573   1.143  11.160 -0.4483 -0.1814 -0.3511
    3SAPS  O13A  274   5.634   1.051  11.221  0.7916  0.7618 -0.0723
    3SAPS  O13B  275   5.466   1.197  11.201  0.3179  0.1849  0.2023
    3SAPS   C11  276   5.704   1.319  11.050  0.4985  0.1068 -0.1394
    3SAPS  H11A  277   5.810   1.293  11.070  0.4823  0.4572  0.4279
    3SAPS  H11B  278   5.661   1.373  11.137 -1.9088 -0.9798 -0.5491
    3SAPS     P  279   5.746   1.529  10.896 -0.2092  0.4476  0.2547
    3SAPS   O13  280   5.641   1.610  10.837 -0.3569 -0.3822 -0.1628
    3SAPS   O14  281   5.821   1.577  11.014 -0.1761  0.4589  0.0202
    3SAPS   O12  282   5.675   1.393  10.934  0.1530 -0.2209  0.6099
    3SAPS   O11  283   5.856   1.494  10.790 -0.1066 -0.4559  0.1387
    3SAPS    C1  284   5.862   1.377  10.710 -0.0084 -0.2559 -0.3734
    3SAPS    HA  285   5.955   1.320  10.733  0.9391  2.1640  2.3463
    3SAPS    HB  286   5.781   1.305  10.733  0.1643 -0.2783  0.1725
    3SAPS    C2  287   5.870   1.412  10.556  0.4164 -0.0758 -0.3868
    3SAPS    HS  288   5.884   1.320  10.496  0.2349  0.2352 -0.9092
    3SAPS   O21  289   5.961   1.520  10.526  0.1707  0.7319 -0.1106
    3SAPS   C21  290   6.089   1.471  10.522 -0.1557  0.1836 -0.4637
    3SAPS   O22  291   6.120   1.355  10.535 -0.4954  0.1523  0.2348
    3SAPS   C22  292   6.172   1.591  10.501  0.2854 -0.5901  0.3060
    3SAPS   H2R  293   6.111   1.677  10.466  2.2073  0.3386 -0.9540
    3SAPS   H2S  294   6.219   1.615  10.599 -1.0627  1.6241  0.4920
    3SAPS    C3  295   5.730   1.459  10.506 -0.6763  0.5541  0.0758
    3SAPS    HX  296   5.687   1.539  10.569  0.4473  0.5989  0.8139
    3SAPS    HY  297   5.661   1.373  10.512 -2.7335  1.7457 -3.2941
    3SAPS   O31  298   5.738   1.488  10.364 -1.1790  0.8349  0.2923
    3SAPS   C31  299   5.681   1.608  10.330 -0.0783  1.3231 -0.1174
    3SAPS   O32  300   5.641   1.691  10.408  0.4622  0.3366 -0.0225
    3SAPS   C32  301   5.708   1.637  10.176  0.1793  0.5359 -0.1180
    3SAPS   H2X  302   5.744   1.542  10.132  1.5762  1.6731 -1.5192
    3SAPS   H2Y  303   5.784   1.717  10.177 -0.2826  0.9972 -1.0562
    3SAPS   C23  304   6.284   1.584  10.398 -0.2530 -0.3737  0.5955
    3SAPS   H3R  305   6.352   1.499  10.421  0.3600 -0.2446 -0.6455
    3SAPS   H3S  306   6.344   1.675  10.416 -2.8561  1.1271  2.3846
    3SAPS   C24  307   6.222   1.574  10.257 -0.0020  0.0206 -0.1902
    3SAPS   H4R  308   6.164   1.669  10.248 -1.3410 -0.5613  1.6261
    3SAPS   H4S  309   6.173   1.477  10.237 -0.1302 -0.4863  2.2686
    3SAPS   C25  310   6.341   1.576  10.165 -0.8171 -0.0601  0.2242
    3SAPS   H5R  311   6.439   1.575  10.216 -1.3794  1.0697  1.3810
    3SAPS   C26  312   6.329   1.553  10.029 -0.9688 -0.1939 -0.1021
    3SAPS   H6R  313   6.419   1.545   9.967 -1.2533  0.3641 -0.5925
    3SAPS   C27  314   6.200   1.527   9.954  0.1695  0.1470  0.0028
    3SAPS   H7R  315   6.123   1.488  10.023 -1.8797  2.3084 -0.9045
    3SAPS   H7S  316   6.204   1.438   9.888 -0.0946 -1.0248  1.5072
    3SAPS   C28  317   6.133   1.643   9.891 -0.3451  0.6114 -0.2228
    3SAPS   H8R  318   6.068   1.694   9.964  1.7484  0.7184  1.6565
    3SAPS   C29  319   6.138   1.691   9.766 -0.1387  0.7172 -0.1386
    3SAPS   H9R  320   6.083   1.785   9.754  0.5316  1.2368  0.6781
    3SAPS  C210  321   6.220   1.642   9.649 -0.8971 -0.6569  0.4402
    3SAPS  H10R  322   6.249   1.535   9.661  1.7343  0.1136  1.6334
    3SAPS  H10S  323   6.313   1.702   9.640 -1.1890 -0.2039  0.4041
    3SAPS  C211  324   6.147   1.645   9.519  0.2001 -0.2359  0.4544
    3SAPS  H11R  325   6.042   1.614   9.531  0.1217 -0.0049  0.3849
    3SAPS  C212  326   6.180   1.701   9.400  0.3825 -0.5349 -0.4265
    3SAPS  H12R  327   6.115   1.681   9.314 -2.6832 -0.7353  1.7552
    3SAPS  C213  328   6.309   1.773   9.372 -0.9119 -0.2730  0.2698
    3SAPS  H13R  329   6.391   1.697   9.366  0.0015  0.7609 -0.9200
    3SAPS  H13S  330   6.336   1.839   9.457 -1.5901  0.5502 -0.1362
    3SAPS  C214  331   6.314   1.858   9.253 -0.8715 -0.0213  0.0092
    3SAPS  H14R  332   6.316   1.966   9.271 -0.7208 -0.1277  0.6564
    3SAPS  C215  333   6.321   1.822   9.126  0.3964  0.4287 -0.0484
    3SAPS  H15R  334   6.326   1.900   9.048  3.1739 -0.7963 -1.2070
    3SAPS  C216  335   6.319   1.681   9.075  0.3367  0.2993  0.3841
    3SAPS  H16R  336   6.247   1.609   9.120  0.1363 -0.7971 -1.5463
    3SAPS  H16S  337   6.413   1.624   9.094 -0.8569 -1.8690  0.1780
    3SAPS  C217  338   6.286   1.678   8.923  0.3840  0.5616 -0.2611
    3SAPS  H17R  339   6.301   1.570   8.902  0.0048  0.6200 -0.8411
    3SAPS  H17S  340   6.358   1.746   8.873  1.0222  0.1020  0.0174
    3SAPS  C218  341   6.137   1.698   8.894 -0.4893 -0.2252  0.2784
    3SAPS  H18R  342   6.115   1.683   8.786  0.6660 -1.3372  0.1817
    3SAPS  H18S  343   6.112   1.802   8.927  0.3399 -0.3987  1.5360
    3SAPS  C219  344   6.039   1.600   8.972 -0.7217 -0.2045  0.2370
    3SAPS  H19R  345   6.054   1.605   9.083 -0.5338  2.9280  0.1653
    3SAPS  H19S  346   6.072   1.500   8.935  1.8501  1.3801 -2.1104
    3SAPS  C220  347   5.891   1.620   8.937  0.1795  0.9048 -0.3561
    3SAPS  H20R  348   5.872   1.584   8.834  0.1670 -0.1062 -0.0081
    3SAPS  H20S  349   5.835   1.714   8.956 -0.5660  0.3299  0.3687
    3SAPS  H20T  350   5.829   1.558   9.006  0.0934 -0.1270 -1.3368
    3SAPS   C33  351   5.589   1.678  10.092 -0.2991  0.0139 -0.2404
    3SAPS   H3X  352   5.564   1.781  10.126 -0.3210 -0.1197  0.1578
    3SAPS   H3Y  353   5.515   1.599  10.117  1.5233 -1.6457  0.1337
    3SAPS   C34  354   5.607   1.693   9.947 -0.3280 -0.1148  1.1227
    3SAPS   H4X  355   5.514   1.732   9.899  0.3965  2.0677  1.3770
    3SAPS   H4Y  356   5.623   1.590   9.908 -0.4783 -0.6585  2.4581
    3SAPS   C35  357   5.723   1.785   9.906  0.0854  0.3562 -0.7292
    3SAPS   H5X  358   5.818   1.758   9.957 -0.6255 -0.8726 -0.0067
    3SAPS   H5Y  359   5.705   1.890   9.937  0.0505 -0.4474  2.2350
    3SAPS   C36  360   5.759   1.786   9.752  0.3510  0.6191 -0.3762
    3SAPS   H6X  361   5.804   1.686   9.735  1.2771  1.2435 -1.7264
    3SAPS   H6Y  362   5.828   1.872   9.741 -0.7397  1.3204 -2.1182
    3SAPS   C37  363   5.644   1.817   9.655 -0.4689  0.0403  0.0330
    3SAPS   H7X  364   5.588   1.905   9.693  0.0135  0.3534  0.0250
    3SAPS   H7Y  365   5.580   1.726   9.652  0.0521 -0.3193 -0.5676
    3SAPS   C38  366   5.685   1.849   9.502 -0.2044 -0.1055 -0.4801
    3SAPS   H8X  367   5.591   1.873   9.448  0.8859  1.6504 -1.6981
    3SAPS   H8Y  368   5.742   1.762   9.464  3.3636  1.7076  0.2982
    3SAPS   C39  369   5.763   1.978   9.492  0.1531  0.7062  0.2651
    3SAPS   H9X  370   5.866   1.965   9.531 -0.2409 -0.8325  0.8824
    3SAPS   H9Y  371   5.709   2.054   9.552  2.0821  1.0428  1.6944
    3SAPS  C310  372   5.780   2.029   9.346 -0.4715 -0.4971 -0.0225
    3SAPS  H10X  373   5.836   1.954   9.287  0.9914 -0.4431  1.2288
    3SAPS  H10Y  374   5.839   2.123   9.336  0.5056 -1.0884  0.0489
    3SAPS  C311  375   5.652   2.068   9.272  0.4316  0.2803  0.0825
    3SAPS  H11X  376   5.592   2.142   9.329 -0.4425  0.5049 -1.0722
    3SAPS  H11Y  377   5.587   1.978   9.262  0.2156  0.4188  0.2158
    3SAPS  C312  378   5.684   2.119   9.136 -0.7627  0.1178  0.7337
    3SAPS  H12X  379   5.588   2.122   9.079  1.1131  1.3994 -2.6412
    3SAPS  H12Y  380   5.729   2.032   9.084  0.0400  0.5604  0.6716
    3SAPS  C313  381   5.756   2.253   9.129  0.1770  0.0852 -0.5913
    3SAPS  H13X  382   5.752   2.288   9.024 -0.6599 -1.7988 -1.2195
    3SAPS  H13Y  383   5.862   2.238   9.157 -0.6143 -1.1478  2.0783
    3SAPS  C314  384   5.711   2.366   9.223 -1.0068 -0.3035  0.2268
    3SAPS  H14X  385   5.730   2.329   9.326 -1.6937 -1.9111 -0.1908
    3SAPS  H14Y  386   5.604   2.390   9.208 -1.5637 -3.1183 -0.8858
    3SAPS  C315  387   5.807   2.490   9.200  0.7920  0.4259  0.0900
    3SAPS  H15X  388   5.913   2.457   9.205  0.0525 -2.0400  2.9967
    3SAPS  H15Y  389   5.804   2.557   9.289  0.4570  0.0244  0.3863
    3SAPS  C316  390   5.766   2.559   9.071  0.6576  0.0247  0.0362
    3SAPS  H16X  391   5.658   2.582   9.066  0.5469 -0.5585 -0.2501
    3SAPS  H16Y  392   5.800   2.495   8.987  0.2265 -1.1583  0.7331
    3SAPS  C317  393   5.842   2.694   9.040  0.6119 -0.0499  0.0175
    3SAPS  H17X  394   5.948   2.667   9.021  0.2768 -0.6296 -1.1734
    3SAPS  H17Y  395   5.830   2.761   9.128  0.8980 -2.7107  2.2033
    3SAPS  C318  396   5.795   2.747   8.904  0.5150  0.1804 -0.2326
    3SAPS  H18X  397   5.695   2.795   8.911  1.1561  1.7510 -1.2223
    3SAPS  H18Y  398   5.778   2.654   8.846  1.2506  0.3389 -0.7174
    3SAPS  H18Z  399   5.864   2.819   8.856 -0.0764  0.0996 -1.2304
    4SAPS     N  400   1.116   2.202  10.809  0.1703  0.2467 -0.0870
    4SAPS   HN1  401   1.017   2.220  10.834 -0.5380 -0.8999 -1.8086
    4SAPS   HN2  402   1.113   2.125  10.739 -0.6410 -0.2156  0.4369
    4SAPS   HN3  403   1.169   2.155  10.885  0.5273 -1.5293 -1.3420
    4SAPS   C12  404   1.188   2.325  10.753  0.4326  0.1442 -0.2984
    4SAPS  H12A  405   1.160   2.327  10.649  1.4832 -1.9001 -0.6602
    4SAPS   C13  406   1.154   2.462  10.828  0.0052 -0.1307  0.4955
    4SAPS  O13A  407   1.072   2.467  10.922 -0.2008 -0.0871  0.2432
    4SAPS  O13B  408   1.198   2.573  10.783 -0.0538  0.9969 -0.3257
    4SAPS   C11  409   1.346   2.303  10.754  0.3168  0.2843  0.3409
    4SAPS  H11A  410   1.373   2.320  10.861  0.0144  1.8831  0.1832
    4SAPS  H11B  411   1.387   2.380  10.685  0.0110 -1.4294 -1.8474
    4SAPS     P  412   1.522   2.119  10.674 -0.2452  0.3345  0.0308
    4SAPS   O13  413   1.625   2.160  10.776  0.1321 -0.2772  0.4546
    4SAPS   O14  414   1.504   1.978  10.639 -0.2789 -0.4852 -0.0417
    4SAPS   O12  415   1.375   2.170  10.718 -0.6164 -0.2323 -0.0426
    4SAPS   O11  416   1.544   2.197  10.540  0.3518 -0.2018 -0.1322
    4SAPS    C1  417   1.440   2.237  10.454  0.8115  0.6325 -0.5758
    4SAPS    HA  418   1.359   2.297  10.502 -0.0621  0.7565 -2.1398
    4SAPS    HB  419   1.493   2.314  10.395  1.5267  0.1526 -0.5718
    4SAPS    C2  420   1.385   2.124  10.367 -0.5298 -0.1254 -0.1729
    4SAPS    HS  421   1.377   2.026  10.419 -2.3122 -1.3970 -2.6630
    4SAPS   O21  422   1.481   2.105  10.264  0.4973  0.8801  0.3860
    4SAPS   C21  423   1.461   1.998  10.180 -0.5632 -0.4505 -0.7038
    4SAPS   O22  424   1.383   1.907  10.202 -0.1430 -0.0573 -0.1752
    4SAPS   C22  425   1.569   2.012  10.071  0.1514  0.6335 -0.2359
    4SAPS   H2R  426   1.550   2.114  10.030 -2.5256 -0.5691 -2.2313
    4SAPS   H2S  427   1.673   2.016  10.111 -0.0199 -2.2497  0.7337
    4SAPS    C3  428   1.239   2.149  10.315  0.0809 -0.0577  0.0056
    4SAPS    HX  429   1.178   2.130  10.405  0.8520  1.1922  0.8236
    4SAPS    HY  430   1.207   2.071  10.243  2.9839 -0.5843 -0.8501
    4SAPS   O31  431   1.218   2.280  10.266  0.2982  0.0689  0.4124
    4SAPS   C31  432   1.272   2.323  10.146  0.2442 -0.5169 -0.3861
    4SAPS   O32  433   1.324   2.249  10.065  0.2423 -0.5971 -0.1632
    4SAPS   C32  434   1.273   2.476  10.149 -0.1503  0.3745 -0.2229
    4SAPS   H2X  435   1.328   2.508  10.240  0.2717 -0.7387 -0.0631
    4SAPS   H2Y  436   1.172   2.520  10.162  0.3751  1.1343  1.4914
    4SAPS   C23  437   1.553   1.906   9.959  0.3846  0.9325 -0.1259
    4SAPS   H3R  438   1.451   1.869   9.978  0.1405  1.2586 -0.7768
    4SAPS   H3S  439   1.617   1.819   9.984  0.0329  0.7420  0.1056
    4SAPS   C24  440   1.588   1.947   9.823 -0.0418 -1.0262  0.1923
    4SAPS   H4R  441   1.514   2.025   9.793  0.3616 -0.2327  1.2275
    4SAPS   H4S  442   1.569   1.853   9.767  1.0140 -1.1599  0.0407
    4SAPS   C25  443   1.728   2.009   9.802 -0.7383 -1.2380  0.2392
    4SAPS   H5R  444   1.770   2.053   9.894  1.0328 -0.4453 -0.8930
    4SAPS   C26  445   1.806   2.019   9.687 -0.0188 -0.1592 -0.7565
    4SAPS   H6R  446   1.904   2.067   9.696  0.8470 -2.1434  1.6614
    4SAPS   C27  447   1.762   1.963   9.561  0.1850 -0.5413  0.2397
    4SAPS   H7R  448   1.704   2.042   9.511 -0.1171 -0.7444  0.2682
    4SAPS   H7S  449   1.707   1.872   9.594  1.6565 -1.5070  0.1471
    4SAPS   C28  450   1.878   1.924   9.477 -0.0826  0.0088 -0.1493
    4SAPS   H8R  451   1.970   1.908   9.534 -1.0373  1.8200  2.0460
    4SAPS   C29  452   1.884   1.915   9.340 -0.2460 -0.7146  0.3250
    4SAPS   H9R  453   1.977   1.890   9.288 -1.5995 -1.5541 -1.8511
    4SAPS  C210  454   1.764   1.952   9.254  0.1159 -0.6812  0.9600
    4SAPS  H10R  455   1.806   1.997   9.161  1.6318 -1.2804  1.3290
    4SAPS  H10S  456   1.709   2.035   9.304 -1.6702 -0.4593 -1.2494
    4SAPS  C211  457   1.679   1.834   9.220 -0.0219  0.2720 -0.0129
    4SAPS  H11R  458   1.728   1.741   9.190 -0.6229 -1.3924  3.6600
    4SAPS  C212  459   1.541   1.851   9.207 -0.2421  0.0857 -0.1592
    4SAPS  H12R  460   1.489   1.759   9.173 -1.1569  0.9993 -1.3012
    4SAPS  C213  461   1.459   1.971   9.241 -0.7532  0.5755 -0.0362
    4SAPS  H13R  462   1.468   2.054   9.168 -0.3472  0.9409  0.4252
    4SAPS  H13S  463   1.497   2.004   9.340  0.5159 -1.7785  0.3144
    4SAPS  C214  464   1.312   1.941   9.273  0.3051  0.4923 -0.6796
    4SAPS  H14R  465   1.294   1.933   9.381  0.5600  0.6800 -0.6243
    4SAPS  C215  466   1.201   1.929   9.197 -0.1902  0.3009  0.7369
    4SAPS  H15R  467   1.108   1.889   9.240  1.4879 -1.3986  2.9968
    4SAPS  C216  468   1.208   1.943   9.043  0.5178  0.5286  0.2500
    4SAPS  H16R  469   1.310   1.958   9.003  1.1664 -0.7624  1.3462
    4SAPS  H16S  470   1.162   2.042   9.022  1.5563  1.5552  2.4561
    4SAPS  C217  471   1.164   1.820   8.964 -0.1791 -0.2767  0.5847
    4SAPS  H17R  472   1.233   1.737   8.988  1.3487  0.9302  0.5424
    4SAPS  H17S  473   1.159   1.836   8.854 -0.5180 -3.4026  0.0688
    4SAPS  C218  474   1.025   1.764   9.002  0.1021 -0.4336  0.1252
    4SAPS  H18R  475   1.030   1.725   9.105 -0.2994  2.6773  1.4174
    4SAPS  H18S  476   1.007   1.674   8.938  0.4005 -1.5211  1.5337
    4SAPS  C219  477   0.898   1.852   8.972 -0.7637 -0.4283  0.1311
    4SAPS  H19R  478   0.882   1.861   8.862 -2.7590 -1.1139  0.3325
    4SAPS  H19S  479   0.917   1.955   9.008 -2.0211  1.5297 -4.1211
    4SAPS  C220  480   0.780   1.800   9.042  0.2636  0.1700 -0.6562
    4SAPS  H20R  481   0.775   1.840   9.145 -0.9943  1.9411 -1.3462
    4SAPS  H20S  482   0.752   1.692   9.037 -0.5854  0.2523  1.5700
    4SAPS  H20T  483   0.694   1.854   8.996  0.2597 -0.5954 -1.5947
    4SAPS   C33  484   1.336   2.525  10.015  0.2298 -0.6383 -0.1717
    4SAPS   H3X  485   1.276   2.476   9.935  0.8460 -5.3628  1.8916
    4SAPS   H3Y  486   1.440   2.487  10.000  0.0519 -0.5119 -1.9914
    4SAPS   C34  487   1.342   2.677  10.007  0.6879  0.2226  0.4884
    4SAPS   H4X  488   1.399   2.699  10.100  0.3141  0.6580  0.6211
    4SAPS   H4Y  489   1.241   2.719  10.030  0.8002  0.4321  0.6038
    4SAPS   C35  490   1.415   2.737   9.886 -0.3982  0.1511  0.0942
    4SAPS   H5X  491   1.516   2.689   9.886 -2.1668 -4.1859 -2.4427
    4SAPS   H5Y  492   1.413   2.847   9.894  1.6653  0.2365  0.0155
    4SAPS   C36  493   1.338   2.698   9.761  0.7844 -0.3984  0.2258
    4SAPS   H6X  494   1.231   2.725   9.771  0.9975  0.4287  0.3203
    4SAPS   H6Y  495   1.344   2.588   9.746  2.7773 -0.2414 -0.4084
    4SAPS   C37  496   1.396   2.753   9.631 -0.8028 -0.1116 -0.3687
    4SAPS   H7X  497   1.494   2.701   9.620 -0.6347 -0.3536  1.7901
    4SAPS   H7Y  498   1.407   2.863   9.624  1.6326 -0.4285 -3.1897
    4SAPS   C38  499   1.309   2.714   9.510  0.0738 -0.4368  0.9317
    4SAPS   H8X  500   1.205   2.741   9.536  0.2387  0.1390  1.0137
    4SAPS   H8Y  501   1.309   2.603   9.509  0.5410 -0.4539  1.6649
    4SAPS   C39  502   1.352   2.788   9.382 -0.0607 -0.5279  0.2587
    4SAPS   H9X  503   1.460   2.769   9.363 -0.2616 -3.1521  1.3197
    4SAPS   H9Y  504   1.335   2.897   9.397 -1.7697 -0.6029 -0.9339
    4SAPS  C310  505   1.284   2.754   9.253  0.1329  0.6806 -0.0885
    4SAPS  H10X  506   1.179   2.727   9.276  0.1896  0.5399  0.0046
    4SAPS  H10Y  507   1.329   2.662   9.211  1.4599  1.0594  0.4305
    4SAPS  C311  508   1.294   2.870   9.159  0.4766 -0.4235  0.2376
    4SAPS  H11X  509   1.401   2.867   9.131 -0.1360 -1.0209 -2.3480
    4SAPS  H11Y  510   1.283   2.972   9.201 -0.4423  0.2745 -1.5861
    4SAPS  C312  511   1.213   2.842   9.031  0.1157  0.8311  0.9925
    4SAPS  H12X  512   1.243   2.912   8.950 -0.3890 -0.1069 -0.0351
    4SAPS  H12Y  513   1.102   2.846   9.045 -0.1614 -1.7614  0.1094
    4SAPS  C313  514   1.261   2.717   8.954 -0.9066 -0.2162  0.0770
    4SAPS  H13X  515   1.234   2.623   9.006  2.2860 -2.1137 -1.4104
    4SAPS  H13Y  516   1.370   2.728   8.936 -1.0816  0.3135 -0.7144
    4SAPS  C314  517   1.194   2.704   8.827  0.8232  0.1189 -0.4767
    4SAPS  H14X  518   1.221   2.790   8.763  2.9799  0.4543  0.7874
    4SAPS  H14Y  519   1.083   2.700   8.836  0.5781  1.6148 -2.2912
    4SAPS  C315  520   1.231   2.576   8.751 -0.0813  0.5079  0.3681
    4SAPS  H15X  521   1.217   2.487   8.816 -0.9988 -0.5708 -1.2405
    4SAPS  H15Y  522   1.338   2.593   8.723  0.5444 -3.0338  0.0714
    4SAPS  C316  523   1.165   2.555   8.611 -0.3559  0.2646  0.4004
    4SAPS  H16X  524   1.174   2.657   8.567 -1.2286 -0.4557 -1.5393
    4SAPS  H16Y  525   1.056   2.534   8.606 -0.0245 -1.3899 -2.4474
    4SAPS  C317  526   1.229   2.455   8.511  0.3058  0.1003  0.2892
    4SAPS  H17X  527   1.339   2.462   8.525  0.4773  1.2668 -1.4200
    4SAPS  H17Y  528   1.203   2.485   8.408 -1.1934  0.1214  0.6513
    4SAPS  C318  529   1.182   2.309   8.527 -0.1731  0.2378 -0.7403
    4SAPS  H18X  530   1.174   2.270   8.631  0.6338  0.7500 -0.4785
    4SAPS  H18Y  531   1.241   2.232   8.471 -1.3095  1.0576 -3.2287
    4SAPS  H18Z  532   1.074   2.311   8.501 -0.4646  1.5114  0.4648
    5SAPS     N  533   4.625   1.370  10.963 -0.2537 -0.4394  0.0055
    5SAPS   HN1  534   4.523   1.360  10.944 -1.0461  1.8959  2.5365
    5SAPS   HN2  535   4.674   1.301  10.902  0.9806 -0.5741  1.0898
    5SAPS   HN3  536   4.639   1.359  11.065 -0.4781 -1.6138 -0.0767
    5SAPS   C12  537   4.665   1.510  10.927 -0.6871 -0.0160  0.1607
    5SAPS  H12A  538   4.589   1.574  10.970  0.3028  1.3661 -0.0707
    5SAPS   C13  539   4.801   1.555  10.976 -0.0010  0.5199 -0.1577
    5SAPS  O13A  540   4.871   1.483  11.049  0.0888 -0.5605 -0.4853
    5SAPS  O13B  541   4.839   1.668  10.942 -0.2645 -0.3644 -0.2112
    5SAPS   C11  542   4.650   1.519  10.769 -0.1569  0.3051  0.1614
    5SAPS  H11A  543   4.733   1.465  10.718  0.1695  0.1169  0.8727
    5SAPS  H11B  544   4.662   1.626  10.744  1.4275  0.2038  0.4104
    5SAPS     P  545   4.404   1.535  10.687 -0.2442  0.3560  0.2241
    5SAPS   O13  546   4.310   1.449  10.612  0.0834  1.1159 -0.2673
    5SAPS   O14  547   4.359   1.605  10.808 -0.3991  0.1481 -0.2402
    5SAPS   O12  548   4.534   1.461  10.723 -0.0881  0.2397 -0.0733
    5SAPS   O11  549   4.461   1.644  10.581 -0.2752 -0.5765 -0.1611
    5SAPS    C1  550   4.505   1.600  10.450 -0.1018 -1.1243 -0.5758
    5SAPS    HA  551   4.422   1.544  10.401 -1.5242 -0.9156  1.4715
    5SAPS    HB  552   4.507   1.687  10.382 -2.9875 -1.0360 -0.6838
    5SAPS    C2  553   4.643   1.540  10.442  0.1561 -1.2015 -0.2066
    5SAPS    HS  554   4.644   1.465  10.524  0.7966  2.4378  3.4657
    5SAPS   O21  555   4.735   1.651  10.467 -0.4551  1.0757 -0.0685
    5SAPS   C21  556   4.857   1.611  10.499 -0.6611 -0.1826  0.4755
    5SAPS   O22  557   4.893   1.496  10.525 -0.1578  0.6168  0.0674
    5SAPS   C22  558   4.943   1.737  10.527  0.4493  0.3711  0.0798
    5SAPS   H2R  559   4.889   1.833  10.520 -0.7331  0.0964  3.3267
    5SAPS   H2S  560   4.985   1.724  10.630 -0.8771  0.2215  0.6169
    5SAPS    C3  561   4.670   1.473  10.303 -0.1603 -0.6793 -0.3494
    5SAPS    HX  562   4.614   1.377  10.296  1.2248 -1.4994 -0.7301
    5SAPS    HY  563   4.776   1.447  10.283 -0.2117  0.4617 -2.2971
    5SAPS   O31  564   4.630   1.565  10.196  0.1912 -0.2407 -0.3749
    5SAPS   C31  565   4.721   1.640  10.135 -0.3022 -0.8881  0.1711
    5SAPS   O32  566   4.843   1.637  10.150 -0.1426  0.1532  0.4269
    5SAPS   C32  567   4.646   1.739  10.049  0.3796  0.0971  0.0700
    5SAPS   H2X  568   4.644   1.837  10.100 -1.2629 -0.9177  2.1019
    5SAPS   H2Y  569   4.540   1.705  10.045 -0.5117  2.7416 -1.6254
    5SAPS   C23  570   5.062   1.746  10.427  0.4716 -0.0804  0.7017
    5SAPS   H3R  571   5.037   1.772  10.323 -0.0828 -0.2772  0.7811
    5SAPS   H3S  572   5.128   1.657  10.431  2.3210  1.1321 -1.1259
    5SAPS   C24  573   5.153   1.864  10.469 -0.0168 -0.2587  0.1930
    5SAPS   H4R  574   5.170   1.867  10.579  1.7041  0.2909 -0.0583
    5SAPS   H4S  575   5.105   1.962  10.451  2.7744  0.9343 -1.4744
    5SAPS   C25  576   5.290   1.860  10.413  0.2960  0.1100 -0.0513
    5SAPS   H5R  577   5.334   1.769  10.456 -0.3838  0.0344  0.5008
    5SAPS   C26  578   5.355   1.935  10.323 -0.1611 -0.1744 -0.1131
    5SAPS   H6R  579   5.462   1.916  10.311 -0.1049 -0.2632  0.5039
    5SAPS   C27  580   5.296   2.057  10.254  0.3019 -0.1921  0.1930
    5SAPS   H7R  581   5.196   2.077  10.298 -0.6969 -1.3728 -1.4272
    5SAPS   H7S  582   5.265   2.025  10.152  3.2486 -0.8777 -0.5968
    5SAPS   C28  583   5.396   2.167  10.248  0.1980 -0.3769 -0.1569
    5SAPS   H8R  584   5.441   2.187  10.346  1.6910  1.2029 -1.1036
    5SAPS   C29  585   5.440   2.241  10.144 -0.5339 -0.3680  0.1602
    5SAPS   H9R  586   5.518   2.317  10.161  0.9992 -1.6256 -0.9525
    5SAPS  C210  587   5.387   2.223  10.004  0.1495 -0.1452 -0.1340
    5SAPS  H10R  588   5.370   2.327   9.969  2.6112  0.7290  1.0516
    5SAPS  H10S  589   5.293   2.164  10.003  0.7114 -1.1348  1.3493
    5SAPS  C211  590   5.502   2.151   9.935 -0.3040 -0.3087 -0.5067
    5SAPS  H11R  591   5.531   2.060   9.989 -2.5043 -0.6935  0.1234
    5SAPS  C212  592   5.563   2.179   9.818  0.2659 -0.0186  0.1506
    5SAPS  H12R  593   5.658   2.129   9.794  1.5460  1.2633  2.2735
    5SAPS  C213  594   5.527   2.295   9.736 -0.2792 -0.1979  0.4842
    5SAPS  H13R  595   5.435   2.347   9.771 -0.5367  0.0603 -0.5619
    5SAPS  H13S  596   5.492   2.256   9.638  0.7530 -0.6953  0.2962
    5SAPS  C214  597   5.629   2.410   9.722  0.5644  0.1122  0.1783
    5SAPS  H14R  598   5.727   2.404   9.772  0.3233  0.6891  0.7444
    5SAPS  C215  599   5.603   2.520   9.649 -0.6726 -0.1463 -0.2694
    5SAPS  H15R  600   5.682   2.597   9.647 -0.8527  0.0183 -2.2505
    5SAPS  C216  601   5.479   2.548   9.574 -0.4460  0.4875  0.6478
    5SAPS  H16R  602   5.439   2.647   9.607  0.3188  1.2343 -0.5533
    5SAPS  H16S  603   5.393   2.483   9.597  0.6644 -1.5326 -0.6059
    5SAPS  C217  604   5.500   2.531   9.423 -0.0836 -0.5192 -0.1932
    5SAPS  H17R  605   5.528   2.424   9.408 -1.5770 -0.7348 -1.8076
    5SAPS  H17S  606   5.571   2.594   9.364  0.9003 -0.0633  1.4307
    5SAPS  C218  607   5.365   2.556   9.345 -0.4569  0.9681 -0.4393
    5SAPS  H18R  608   5.367   2.490   9.255  0.4582  1.9734 -1.1831
    5SAPS  H18S  609   5.285   2.515   9.410  0.0704  2.6595  1.3673
    5SAPS  C219  610   5.331   2.689   9.285 -0.2840 -0.0058  0.9522
    5SAPS  H19R  611   5.321   2.765   9.365 -0.0024  1.1703 -0.0874
    5SAPS  H19S  612   5.225   2.677   9.253 -0.1216 -1.9984  1.0211
    5SAPS  C220  613   5.424   2.729   9.169  0.3210 -0.5901  0.1587
    5SAPS  H20R  614   5.376   2.811   9.112 -1.8172 -1.1155  1.1045
    5SAPS  H20S  615   5.449   2.643   9.103  1.4496  0.4747 -0.8473
    5SAPS  H20T  616   5.520   2.764   9.212  0.4442 -0.1497 -0.4577
    5SAPS   C33  617   4.685   1.749   9.899 -0.2395 -0.8071 -0.1213
    5SAPS   H3X  618   4.600   1.802   9.851  0.9008  1.2319  0.0253
    5SAPS   H3Y  619   4.698   1.646   9.860 -0.0185 -1.2127  0.9914
    5SAPS   C34  620   4.812   1.824   9.873 -0.1103  0.4756 -0.2455
    5SAPS   H4X  621   4.896   1.771   9.924  0.2984  0.3754 -1.0050
    5SAPS   H4Y  622   4.798   1.923   9.920  0.2014  0.5234 -0.2525
    5SAPS   C35  623   4.849   1.829   9.720  0.2650  0.4913 -0.5540
    5SAPS   H5X  624   4.761   1.867   9.663  1.6118  1.4978 -2.0212
    5SAPS   H5Y  625   4.848   1.724   9.685 -1.6876  1.2102 -2.9721
    5SAPS   C36  626   4.984   1.891   9.691  0.0080  0.0931  0.5779
    5SAPS   H6X  627   5.068   1.834   9.737  2.1979  0.4597 -2.6587
    5SAPS   H6Y  628   4.983   1.995   9.730  0.9102  0.2299  0.2578
    5SAPS   C37  629   5.021   1.886   9.542 -0.4222  0.3321 -0.3655
    5SAPS   H7X  630   4.943   1.926   9.475 -1.5628 -2.8136 -1.0833
    5SAPS   H7Y  631   5.023   1.778   9.515  0.0701 -0.4276  2.3972
    5SAPS   C38  632   5.154   1.952   9.517  0.2128  0.9632  1.0180
    5SAPS   H8X  633   5.241   1.883   9.525 -1.8870 -1.7678  1.4029
    5SAPS   H8Y  634   5.165   2.030   9.596 -2.2655  0.7695  1.6219
    5SAPS   C39  635   5.167   2.020   9.378 -0.2204 -0.5137 -0.5894
    5SAPS   H9X  636   5.077   2.085   9.366  0.2950  0.8270  2.1652
    5SAPS   H9Y  637   5.172   1.936   9.306 -0.5351 -1.4475  0.4570
    5SAPS  C310  638   5.293   2.115   9.363 -0.2622  0.4607 -0.4390
    5SAPS  H10X  639   5.382   2.062   9.403  0.6329  1.9341 -0.4377
    5SAPS  H10Y  640   5.272   2.201   9.431 -1.8374 -0.5388  0.4331
    5SAPS  C311  641   5.313   2.178   9.221  0.5038  0.2929 -0.3238
    5SAPS  H11X  642   5.362   2.110   9.148  0.3925 -2.6461  2.1170
    5SAPS  H11Y  643   5.381   2.264   9.236  0.2600  0.6166 -1.0365
    5SAPS  C312  644   5.182   2.217   9.161  0.1879 -0.2879 -1.0505
    5SAPS  H12X  645   5.126   2.275   9.237  0.2258 -2.4667  0.7730
    5SAPS  H12Y  646   5.114   2.131   9.144  0.0715 -0.5450  0.5716
    5SAPS  C313  647   5.209   2.300   9.036  0.1206 -0.2463  0.4039
    5SAPS  H13X  648   5.282   2.242   8.976 -0.2412 -0.5521  0.2597
    5SAPS  H13Y  649   5.268   2.389   9.066 -1.5661  0.1090  3.0431
    5SAPS  C314  650   5.090   2.366   8.972  0.4191 -0.5881 -0.2196
    5SAPS  H14X  651   5.009   2.292   8.951 -1.2220  0.5155  1.7532
    5SAPS  H14Y  652   5.128   2.398   8.873  1.1081 -4.2391 -1.2504
    5SAPS  C315  653   5.031   2.485   9.057 -0.2758  0.0272 -0.8662
    5SAPS  H15X  654   5.121   2.541   9.088  0.4286  0.2348 -3.0905
    5SAPS  H15Y  655   4.976   2.439   9.142 -2.0087  1.5877 -1.0720
    5SAPS  C316  656   4.930   2.571   8.979 -0.5435 -0.3234  0.0656
    5SAPS  H16X  657   4.876   2.627   9.058  1.7782 -0.3514  1.7913
    5SAPS  H16Y  658   4.864   2.497   8.929 -1.6773  1.5409 -1.3595
    5SAPS  C317  659   4.994   2.661   8.877 -0.4308  0.0567 -0.5109
    5SAPS  H17X  660   4.922   2.690   8.798 -1.7507 -3.0877 -0.5967
    5SAPS  H17Y  661   5.076   2.604   8.827 -0.0178  0.6655 -0.5466
    5SAPS  C318  662   5.067   2.785   8.937 -0.1325  0.3836 -0.2568
    5SAPS  H18X  663   4.987   2.841   8.989  0.4963  0.1245  1.0383
    5SAPS  H18Y  664   5.119   2.846   8.860 -1.2417  0.3458 -1.0622
    5SAPS  H18Z  665   5.145   2.745   9.006 -1.1197  1.0536  1.2856
    6SAPS     N  666   3.089   6.730  10.848 -0.0175  0.0899  0.0207
    6SAPS   HN1  667   3.134   6.646  10.807 -0.4546  0.8502 -2.1554
    6SAPS   HN2  668   3.064   6.714  10.948 -2.5956 -0.3080 -0.6149
    6SAPS   HN3  669   2.999   6.741  10.797 -0.2471  1.3344  0.6456
    6SAPS   C12  670   3.153   6.869  10.822 -0.5254  0.2419  0.1405
    6SAPS  H12A  671   3.074   6.942  10.829  0.2283  1.0579  0.2783
    6SAPS   C13  672   3.257   6.914  10.933 -0.6528 -0.8638 -0.2193
    6SAPS  O13A  673   3.293   6.831  11.020 -0.2770  0.5736 -0.2564
    6SAPS  O13B  674   3.286   7.038  10.938  0.0825 -0.1398  0.1729
    6SAPS   C11  675   3.217   6.880  10.684 -0.0042 -0.6465  0.3264
    6SAPS  H11A  676   3.273   6.789  10.654  2.1616 -0.0371  2.2293
    6SAPS  H11B  677   3.277   6.974  10.695 -1.5275  0.2079  1.7332
    6SAPS     P  678   3.143   7.016  10.465  0.3143  0.3004 -0.1912
    6SAPS   O13  679   3.026   7.009  10.379  0.5196 -0.8290  0.5286
    6SAPS   O14  680   3.163   7.149  10.538 -0.4125 -0.5466  0.4002
    6SAPS   O12  681   3.119   6.911  10.578 -0.1909 -0.1860  0.6421
    6SAPS   O11  682   3.277   6.964  10.400 -0.0771  0.4719  0.2444
    6SAPS    C1  683   3.283   6.839  10.336  0.3406  0.0229  0.4156
    6SAPS    HA  684   3.336   6.766  10.401 -0.7001 -1.4612 -0.3393
    6SAPS    HB  685   3.184   6.792  10.316  1.9598 -3.1860 -0.8740
    6SAPS    C2  686   3.363   6.841  10.201  0.3606  0.0558  0.3339
    6SAPS    HS  687   3.468   6.876  10.213  1.0583 -2.1371  1.2453
    6SAPS   O21  688   3.292   6.921  10.097 -0.2236  0.6267 -0.6614
    6SAPS   C21  689   3.318   7.044  10.098  1.0981 -0.3346 -0.0375
    6SAPS   O22  690   3.414   7.100  10.157 -0.1688  0.6537  0.4476
    6SAPS   C22  691   3.228   7.115  10.003  0.1190 -0.5127  1.0943
    6SAPS   H2R  692   3.174   7.037   9.945 -0.5330  0.8143 -0.1299
    6SAPS   H2S  693   3.152   7.167  10.066 -0.4416 -1.0807  0.9086
    6SAPS    C3  694   3.381   6.686  10.156 -0.3035  0.1539  0.3515
    6SAPS    HX  695   3.282   6.654  10.117 -0.8724  1.3961  0.7121
    6SAPS    HY  696   3.410   6.622  10.241  3.0719 -1.5276 -1.8271
    6SAPS   O31  697   3.479   6.684  10.054 -0.6499  0.4246 -0.3768
    6SAPS   C31  698   3.600   6.680  10.093  0.2007 -0.8241 -0.2303
    6SAPS   O32  699   3.644   6.675  10.203  0.1525  0.5590 -0.0955
    6SAPS   C32  700   3.677   6.684   9.968 -0.3073 -0.0216 -0.5771
    6SAPS   H2X  701   3.691   6.578   9.938 -0.3210  0.0209 -0.7333
    6SAPS   H2Y  702   3.782   6.708   9.996 -0.4894 -0.2975  0.3668
    6SAPS   C23  703   3.302   7.207   9.901  0.4480 -0.0904 -0.0339
    6SAPS   H3R  704   3.338   7.297   9.954 -2.0557  3.0070 -3.1246
    6SAPS   H3S  705   3.228   7.253   9.833 -0.8804  2.2007  2.7601
    6SAPS   C24  706   3.419   7.153   9.825  0.1917  0.0158  0.6891
    6SAPS   H4R  707   3.483   7.104   9.901  0.4605 -0.5273  0.1281
    6SAPS   H4S  708   3.463   7.247   9.785  0.1113 -0.1624  0.1678
    6SAPS   C25  709   3.376   7.046   9.731 -0.4607  0.6180  1.2157
    6SAPS   H5R  710   3.350   6.951   9.779 -1.3006 -0.5910 -1.4696
    6SAPS   C26  711   3.375   7.059   9.594  0.3520 -0.0161 -0.4370
    6SAPS   H6R  712   3.344   6.968   9.541  0.9962 -1.4829  1.5989
    6SAPS   C27  713   3.411   7.180   9.510  0.0904 -0.9349 -0.1159
    6SAPS   H7R  714   3.507   7.158   9.458  2.0633  2.6654  1.5797
    6SAPS   H7S  715   3.429   7.270   9.572  1.6874 -1.0852 -0.3093
    6SAPS   C28  716   3.311   7.220   9.409  0.4007  0.4933 -0.1823
    6SAPS   H8R  717   3.215   7.263   9.441  0.6385  2.0700 -1.4626
    6SAPS   C29  718   3.321   7.210   9.275 -0.0822 -0.4644 -0.5872
    6SAPS   H9R  719   3.243   7.245   9.206  0.6410 -1.9149 -2.1988
    6SAPS  C210  720   3.442   7.170   9.201  0.1610 -0.1150  0.2187
    6SAPS  H10R  721   3.410   7.125   9.105  0.1681 -0.2511  0.2792
    6SAPS  H10S  722   3.494   7.080   9.241  0.3237 -1.4746 -2.7661
    6SAPS  C211  723   3.535   7.292   9.175 -0.0732  0.7798 -0.3796
    6SAPS  H11R  724   3.495   7.391   9.150  2.0668  1.5199 -1.0622
    6SAPS  C212  725   3.669   7.291   9.168  0.4742 -0.3550 -0.0717
    6SAPS  H12R  726   3.728   7.383   9.154 -0.8146  0.7768  1.6010
    6SAPS  C213  727   3.761   7.174   9.183 -0.1147  0.7438  0.1726
    6SAPS  H13R  728   3.709   7.080   9.154  0.0626  0.5472  0.4928
    6SAPS  H13S  729   3.776   7.157   9.292 -2.3654 -2.0916  0.1838
    6SAPS  C214  730   3.894   7.180   9.114 -0.3573 -0.3783  0.6116
    6SAPS  H14R  731   3.981   7.177   9.181 -1.2365 -1.0812  1.7796
    6SAPS  C215  732   3.918   7.187   8.975 -0.2073  0.4925 -0.0500
    6SAPS  H15R  733   4.022   7.179   8.940 -0.3584  2.6166 -1.1646
    6SAPS  C216  734   3.820   7.182   8.860  0.0942  0.1369  0.4171
    6SAPS  H16R  735   3.867   7.229   8.771  1.5647 -0.1489  1.0036
    6SAPS  H16S  736   3.741   7.251   8.894  1.5142  0.9155  2.2881
    6SAPS  C217  737   3.773   7.040   8.824  0.2137  0.1631 -0.1718
    6SAPS  H17R  738   3.716   7.006   8.912 -0.0498  0.4628 -0.2245
    6SAPS  H17S  739   3.862   6.974   8.816 -0.6114 -0.7456 -2.8512
    6SAPS  C218  740   3.695   7.038   8.686  0.6452  0.4128  0.8797
    6SAPS  H18R  741   3.611   7.111   8.689 -0.0234 -0.3564  1.2134
    6SAPS  H18S  742   3.645   6.942   8.664  0.4039  0.9232 -1.0689
    6SAPS  C219  743   3.781   7.072   8.559  0.3773  0.2472 -0.2235
    6SAPS  H19R  744   3.826   7.173   8.560  1.7393 -0.3417  0.5064
    6SAPS  H19S  745   3.710   7.056   8.475  0.1756 -0.5573  0.0897
    6SAPS  C220  746   3.895   6.960   8.538  0.2682 -0.6668 -0.1390
    6SAPS  H20R  747   3.945   6.958   8.439 -2.9694  1.3915 -2.0083
    6SAPS  H20S  748   3.843   6.864   8.554  0.5975 -1.2905 -2.4542
    6SAPS  H20T  749   3.973   6.970   8.617 -1.2956 -1.3122  1.5580
    6SAPS   C33  750   3.631   6.768   9.848  0.6199  0.3217 -0.4630
    6SAPS   H3X  751   3.664   6.874   9.850 -1.0148  0.8589  0.9482
    6SAPS   H3Y  752   3.521   6.775   9.841  0.5281  0.4750  0.8467
    6SAPS   C34  753   3.694   6.715   9.728 -0.2122  0.4622 -0.0068
    6SAPS   H4X  754   3.623   6.631   9.709 -0.6115  1.1486 -1.7486
    6SAPS   H4Y  755   3.788   6.661   9.750 -0.4409 -0.1472 -0.4862
    6SAPS   C35  756   3.695   6.801   9.598 -0.7371 -0.3267 -0.5307
    6SAPS   H5X  757   3.755   6.893   9.614 -1.5420  0.2430 -0.7376
    6SAPS   H5Y  758   3.590   6.837   9.600  0.5983  4.4317 -2.0825
    6SAPS   C36  759   3.731   6.722   9.469  0.2737  0.2110 -0.8075
    6SAPS   H6X  760   3.660   6.637   9.457  1.2125 -0.9195  1.1313
    6SAPS   H6Y  761   3.836   6.687   9.479  0.9420  2.6027  2.4552
    6SAPS   C37  762   3.708   6.813   9.345  0.0020  0.0380 -0.4148
    6SAPS   H7X  763   3.727   6.921   9.367 -0.0032 -0.1932  0.7891
    6SAPS   H7Y  764   3.599   6.813   9.325 -0.0477  1.4247 -0.2440
    6SAPS   C38  765   3.783   6.773   9.220  0.4986 -0.4124  0.9570
    6SAPS   H8X  766   3.887   6.751   9.251  0.8863 -0.6154 -0.4257
    6SAPS   H8Y  767   3.789   6.852   9.143  1.0539 -3.0562 -1.9019
    6SAPS   C39  768   3.726   6.643   9.165  0.6064  0.4966  0.5623
    6SAPS   H9X  769   3.616   6.640   9.176  0.4308  0.9509 -0.8289
    6SAPS   H9Y  770   3.770   6.561   9.226  1.9761 -0.2860 -1.3675
    6SAPS  C310  771   3.766   6.611   9.011  0.2237 -0.1222 -0.6968
    6SAPS  H10X  772   3.715   6.686   8.947  0.4396 -0.5319 -1.3669
    6SAPS  H10Y  773   3.720   6.513   8.987  1.3863 -0.9547  0.3267
    6SAPS  C311  774   3.912   6.608   8.991 -0.3678  0.0619 -0.4007
    6SAPS  H11X  775   3.960   6.524   9.048 -0.0232 -0.0860 -0.9042
    6SAPS  H11Y  776   3.959   6.701   9.030 -1.0525  0.5184 -0.6508
    6SAPS  C312  777   3.951   6.590   8.846 -0.2354 -0.5224 -0.4287
    6SAPS  H12X  778   4.061   6.604   8.845 -0.1316 -1.2978 -0.4557
    6SAPS  H12Y  779   3.921   6.678   8.785  1.9171 -0.0616 -0.9181
    6SAPS  C313  780   3.904   6.456   8.785 -0.4213 -0.0235 -0.1684
    6SAPS  H13X  781   3.798   6.463   8.751  0.5313 -0.2077 -3.4342
    6SAPS  H13Y  782   3.914   6.374   8.860 -1.1556 -0.2308 -0.2841
    6SAPS  C314  783   3.983   6.413   8.664 -0.1314  0.3028 -0.7294
    6SAPS  H14X  784   4.080   6.366   8.688 -0.2498  0.2859 -0.2869
    6SAPS  H14Y  785   4.011   6.501   8.602 -1.9111  0.5344 -1.2679
    6SAPS  C315  786   3.906   6.313   8.586 -0.0568  0.3740 -0.3744
    6SAPS  H15X  787   3.801   6.346   8.569 -1.1559  0.0851  4.4403
    6SAPS  H15Y  788   3.909   6.214   8.636  0.9826 -0.8607 -2.7156
    6SAPS  C316  789   3.979   6.300   8.454  0.4951 -0.6092 -0.3564
    6SAPS  H16X  790   3.969   6.198   8.411 -1.1418 -0.0917 -1.3100
    6SAPS  H16Y  791   4.087   6.319   8.470  0.1086  1.8357 -0.2323
    6SAPS  C317  792   3.923   6.407   8.355  0.2313  0.2916  0.7767
    6SAPS  H17X  793   3.925   6.504   8.408  1.6429  1.4697 -1.2816
    6SAPS  H17Y  794   3.819   6.399   8.317  0.9584 -0.1194 -1.2930
    6SAPS  C318  795   4.027   6.414   8.236 -0.0666 -0.1616  0.3013
    6SAPS  H18X  796   4.012   6.496   8.162  0.2638 -0.2365  0.1526
    6SAPS  H18Y  797   4.020   6.319   8.179  0.1400 -2.2363  3.4553
    6SAPS  H18Z  798   4.134   6.420   8.266  0.1221 -0.6960 -0.2548
    7SAPS     N  799   0.614   1.773  10.594  0.6726 -0.0267  0.1832
    7SAPS   HN1  800   0.663   1.682  10.582 -0.0809 -0.5787  1.1359
    7SAPS   HN2  801   0.519   1.750  10.629  0.0660  2.3263  0.2972
    7SAPS   HN3  802   0.604   1.827  10.505  2.3486 -0.3939 -0.2551
    7SAPS   C12  803   0.676   1.860  10.690 -0.2650  0.2820  0.0420
    7SAPS  H12A  804   0.598   1.930  10.714 -1.6340 -1.4823  0.9502
    7SAPS   C13  805   0.710   1.794  10.827 -0.2478  0.6106 -0.0960
    7SAPS  O13A  806   0.651   1.687  10.849  0.3675  0.0689  0.5372
    7SAPS  O13B  807   0.765   1.865  10.921 -0.4085  0.2705  0.0342
    7SAPS   C11  808   0.799   1.937  10.631 -0.2894  0.8619 -0.6381
    7SAPS  H11A  809   0.829   2.009  10.710 -0.4033  1.7073 -1.3483
    7SAPS  H11B  810   0.751   2.001  10.554  0.3052  1.6247 -0.3892
    7SAPS     P  811   1.026   1.928  10.516 -0.1071  0.1544  0.6034
    7SAPS   O13  812   1.059   2.044  10.599  0.4001 -0.0712 -0.6161
    7SAPS   O14  813   1.131   1.823  10.511 -0.7080 -0.0562  0.4623
    7SAPS   O12  814   0.898   1.853  10.573 -0.1631 -0.0083 -0.5088
    7SAPS   O11  815   0.991   1.966  10.366 -0.4020 -0.4245  0.0482
    7SAPS    C1  816   0.888   1.893  10.288  0.6458  0.5124 -0.0154
    7SAPS    HA  817   0.788   1.900  10.336  0.4438 -0.3635 -0.2921
    7SAPS    HB  818   0.872   1.946  10.192 -0.7099  2.6101  1.2887
    7SAPS    C2  819   0.931   1.751  10.243  0.1145  0.1436 -0.3891
    7SAPS    HS  820   0.964   1.698  10.335  2.1132  3.2636  0.8748
    7SAPS   O21  821   1.041   1.760  10.155  0.0283 -0.0408  0.0821
    7SAPS   C21  822   1.105   1.650  10.125  0.1423 -0.4428 -0.1239
    7SAPS   O22  823   1.087   1.541  10.179  1.0747  0.2087  0.3421
    7SAPS   C22  824   1.203   1.675  10.011  0.4344  0.3644  0.4850
    7SAPS   H2R  825   1.176   1.767   9.954  1.5253  0.0214 -0.6119
    7SAPS   H2S  826   1.303   1.691  10.055  0.5655  1.7587 -0.2626
    7SAPS    C3  827   0.805   1.670  10.186 -0.7447  0.0120 -0.3506
    7SAPS    HX  828   0.723   1.672  10.260  0.0802 -0.7352  0.6124
    7SAPS    HY  829   0.849   1.568  10.178  1.8860  1.1724 -2.3049
    7SAPS   O31  830   0.764   1.715  10.056 -0.1013  0.4674 -0.0508
    7SAPS   C31  831   0.673   1.808  10.042  0.0009 -0.4529 -0.6915
    7SAPS   O32  832   0.623   1.865  10.138  0.7103 -0.2832  0.0443
    7SAPS   C32  833   0.655   1.827   9.890  0.7347  0.1142  0.7380
    7SAPS   H2X  834   0.610   1.734   9.848  0.8820 -0.8658  2.6542
    7SAPS   H2Y  835   0.754   1.854   9.848  1.0987 -0.8131  0.9710
    7SAPS   C23  836   1.219   1.553   9.913  0.2845 -0.1568  0.2018
    7SAPS   H3R  837   1.134   1.555   9.842  2.1612 -0.8990 -2.2061
    7SAPS   H3S  838   1.204   1.457   9.967 -1.4896  0.3814  0.7454
    7SAPS   C24  839   1.355   1.564   9.835 -0.4894 -0.0612 -0.1328
    7SAPS   H4R  840   1.390   1.467   9.791  0.9222  0.3795 -0.0249
    7SAPS   H4S  841   1.432   1.579   9.914 -1.6826 -2.3724  1.5984
    7SAPS   C25  842   1.357   1.677   9.738  0.0555  0.2197 -0.4121
    7SAPS   H5R  843   1.353   1.775   9.787 -2.4829  0.7008 -1.4507
    7SAPS   C26  844   1.374   1.675   9.606 -0.2883  0.8240 -0.1318
    7SAPS   H6R  845   1.362   1.771   9.554 -0.3876  1.0081  0.2282
    7SAPS   C27  846   1.389   1.547   9.519 -0.0070 -1.1280 -0.7229
    7SAPS   H7R  847   1.341   1.459   9.568 -1.2794 -0.0693 -0.0127
    7SAPS   H7S  848   1.496   1.519   9.512  0.1210 -0.6506 -0.6689
    7SAPS   C28  849   1.341   1.583   9.381 -0.5189  0.4580  0.9365
    7SAPS   H8R  850   1.421   1.595   9.307 -1.0104 -0.6307  0.2102
    7SAPS   C29  851   1.218   1.598   9.323  0.7200  0.6290  0.2732
    7SAPS   H9R  852   1.207   1.611   9.215 -0.8165 -0.3372  0.2812
    7SAPS  C210  853   1.078   1.584   9.395 -0.5142  0.0130  0.7821
    7SAPS  H10R  854   1.060   1.477   9.420  0.2629 -0.6608 -1.3682
    7SAPS  H10S  855   1.008   1.603   9.311  0.6403  0.5317 -0.0814
    7SAPS  C211  856   1.057   1.673   9.513  0.7415 -0.6728  0.9443
    7SAPS  H11R  857   1.126   1.646   9.595  1.9870 -1.6192 -0.3672
    7SAPS  C212  858   0.980   1.785   9.517  0.0764 -0.5825 -0.3703
    7SAPS  H12R  859   0.982   1.849   9.607  0.7612 -0.3734 -0.5307
    7SAPS  C213  860   0.894   1.832   9.407  0.5043 -0.6205  0.4277
    7SAPS  H13R  861   0.793   1.786   9.412  0.2546 -0.6660 -2.8493
    7SAPS  H13S  862   0.916   1.777   9.313 -2.5391  0.1216 -0.8443
    7SAPS  C214  863   0.895   1.980   9.378  0.6060  0.6454  1.1207
    7SAPS  H14R  864   0.993   2.028   9.362  0.6397  0.0997 -0.4132
    7SAPS  C215  865   0.789   2.054   9.356 -0.6313 -0.7227  0.0593
    7SAPS  H15R  866   0.810   2.160   9.337  0.0249 -0.7721  0.4557
    7SAPS  C216  867   0.638   2.017   9.363 -0.5665  0.4018 -0.3850
    7SAPS  H16R  868   0.617   1.914   9.400  0.1128  0.8918  1.4754
    7SAPS  H16S  869   0.598   2.018   9.259 -3.1756 -2.5016  0.4362
    7SAPS  C217  870   0.567   2.114   9.449  0.0611 -0.2475 -0.8000
    7SAPS  H17R  871   0.590   2.221   9.429  0.5365  0.2312  1.9830
    7SAPS  H17S  872   0.606   2.090   9.550 -3.1258 -0.8612  0.3886
    7SAPS  C218  873   0.413   2.094   9.449  0.1508 -0.2539  0.2896
    7SAPS  H18R  874   0.384   1.993   9.485 -1.6038 -0.0395 -0.4146
    7SAPS  H18S  875   0.369   2.116   9.349  0.6574  2.0325  0.5182
    7SAPS  C219  876   0.347   2.195   9.550 -0.2415  0.0872  0.1550
    7SAPS  H19R  877   0.370   2.291   9.498 -1.3116  0.6438  0.6912
    7SAPS  H19S  878   0.407   2.195   9.644  0.6736  3.1423 -0.3281
    7SAPS  C220  879   0.202   2.172   9.581  0.7144 -0.1888  0.5280
    7SAPS  H20R  880   0.139   2.177   9.490  1.3607  2.5387  0.1259
    7SAPS  H20S  881   0.155   2.243   9.653 -2.2808 -0.6003 -0.8623
    7SAPS  H20T  882   0.188   2.071   9.624  1.5004 -0.0616  1.1068
    7SAPS   C33  883   0.549   1.930   9.851  0.5121 -0.1163 -1.1446
    7SAPS   H3X  884   0.554   1.954   9.743  0.2966  0.8233 -0.9536
    7SAPS   H3Y  885   0.567   2.024   9.908  1.8813 -0.9882 -0.0561
    7SAPS   C34  886   0.407   1.903   9.892 -0.2040 -0.2464  0.4718
    7SAPS   H4X  887   0.341   1.989   9.869 -0.6716 -0.1638  2.0323
    7SAPS   H4Y  888   0.408   1.885  10.002  0.8234 -0.6133  0.4164
    7SAPS   C35  889   0.349   1.782   9.819  0.1631 -0.3281  0.7534
    7SAPS   H5X  890   0.242   1.760   9.844  0.0915 -1.4010 -0.3711
    7SAPS   H5Y  891   0.401   1.686   9.843  0.2619 -0.8289 -1.3140
    7SAPS   C36  892   0.346   1.795   9.667 -0.5881  0.3401  0.1489
    7SAPS   H6X  893   0.448   1.789   9.624 -0.4651 -0.0050  0.4859
    7SAPS   H6Y  894   0.289   1.885   9.636 -0.6747  0.7151  1.3420
    7SAPS   C37  895   0.268   1.678   9.610  0.0571  0.6107  0.5678
    7SAPS   H7X  896   0.169   1.691   9.657 -0.0744  0.9001  0.2178
    7SAPS   H7Y  897   0.308   1.579   9.643 -1.4651 -0.1926  0.0918
    7SAPS   C38  898   0.252   1.680   9.456  0.1337  0.1972  0.4267
    7SAPS   H8X  899   0.340   1.730   9.411  0.4360  0.6859  1.5343
    7SAPS   H8Y  900   0.163   1.739   9.424  0.4915 -0.5024 -2.0325
    7SAPS   C39  901   0.222   1.542   9.398 -0.0353 -0.5465  0.2486
    7SAPS   H9X  902   0.118   1.508   9.418  0.8971 -3.1193  1.1272
    7SAPS   H9Y  903   0.301   1.471   9.431  0.9818 -0.3819 -1.6449
    7SAPS  C310  904   0.220   1.543   9.242  0.4058 -0.1922  0.1455
    7SAPS  H10X  905   0.153   1.627   9.215 -0.0772 -0.5621  0.1716
    7SAPS  H10Y  906   0.175   1.448   9.206 -1.6514  0.7698  0.0360
    7SAPS  C311  907   0.355   1.568   9.172  0.6341 -0.2899  0.0024
    7SAPS  H11X  908   0.418   1.476   9.179  1.4916  0.0770 -1.9858
    7SAPS  H11Y  909   0.413   1.655   9.208  1.4854  0.4617 -2.9299
    7SAPS  C312  910   0.345   1.591   9.017 -0.2656 -0.3168  0.3798
    7SAPS  H12X  911   0.292   1.686   8.994 -0.1748 -0.1237  0.9686
    7SAPS  H12Y  912   0.288   1.509   8.968  0.6813  0.0017 -1.3286
    7SAPS  C313  913   0.486   1.593   8.954 -0.2958 -0.0573 -0.2410
    7SAPS  H13X  914   0.554   1.516   8.999  1.2050  1.8475  0.9032
    7SAPS  H13Y  915   0.537   1.689   8.974  1.6943 -1.3764  1.5243
    7SAPS  C314  916   0.496   1.571   8.803 -0.2633 -0.3027  0.4741
    7SAPS  H14X  917   0.432   1.646   8.752  0.1622 -0.1332  0.1866
    7SAPS  H14Y  918   0.453   1.475   8.769  1.1032 -0.6421 -0.3534
    7SAPS  C315  919   0.643   1.595   8.744  0.2318  0.0227  0.0358
    7SAPS  H15X  920   0.694   1.499   8.766 -0.4179 -0.3139  0.1032
    7SAPS  H15Y  921   0.685   1.684   8.795  0.8417  0.1472 -0.6625
    7SAPS  C316  922   0.638   1.622   8.593 -0.4041 -0.3398  0.5376
    7SAPS  H16X  923   0.572   1.708   8.568  0.7837  1.1542  2.2848
    7SAPS  H16Y  924   0.593   1.536   8.538  2.9546 -1.6785 -0.3628
    7SAPS  C317  925   0.771   1.642   8.520 -0.1232  0.1210 -0.4710
    7SAPS  H17X  926   0.819   1.727   8.572 -2.2612 -0.6228  3.0718
    7SAPS  H17Y  927   0.750   1.671   8.415 -2.2272 -0.1616 -0.1821
    7SAPS  C318  928   0.861   1.518   8.528 -0.4568 -0.2153 -0.5912
    7SAPS  H18X  929   0.903   1.500   8.629  2.5391  2.1861 -1.2625
    7SAPS  H18Y  930   0.945   1.531   8.456 -1.1852  0.5601 -1.3152
    7SAPS  H18Z  931   0.800   1.431   8.496 -0.0466 -0.9911  0.6661
    8SAPS     N  932   4.965   3.200  11.353 -0.2941  0.1357 -0.3481
    8SAPS   HN1  933   4.868   3.174  11.328  0.0533 -0.4583 -1.1600
    8SAPS   HN2  934   5.005   3.117  11.402  0.5003  0.8376  0.2272
    8SAPS   HN3  935   4.959   3.289  11.406 -0.4436 -0.0396 -0.0732
    8SAPS   C12  936   5.041   3.214  11.230 -0.1055 -0.3153  0.9659
    8SAPS  H12A  937   5.136   3.261  11.247  0.6195 -1.0562 -0.7624
    8SAPS   C13  938   5.080   3.072  11.166 -0.4276  0.4180  0.1104
    8SAPS  O13A  939   5.063   2.969  11.235  0.1603 -0.6597 -0.7085
    8SAPS  O13B  940   5.150   3.073  11.063 -0.3667  0.1766 -0.6093
    8SAPS   C11  941   4.965   3.307  11.126  0.2592  0.6307  0.8007
    8SAPS  H11A  942   4.862   3.268  11.112 -0.6158  2.6902  1.1483
    8SAPS  H11B  943   5.005   3.309  11.022 -0.3901  3.9170  0.4853
    8SAPS     P  944   5.055   3.558  11.153 -0.2538  0.3322 -0.2938
    8SAPS   O13  945   5.004   3.684  11.207  0.4328 -0.3127  0.2305
    8SAPS   O14  946   5.182   3.511  11.202  0.4014  0.1231 -1.3046
    8SAPS   O12  947   4.952   3.439  11.174 -0.4748 -0.0535  0.3083
    8SAPS   O11  948   5.064   3.565  10.997  0.0531  0.5101 -0.2872
    8SAPS    C1  949   4.973   3.639  10.918 -0.5751  0.6100 -0.0201
    8SAPS    HA  950   4.946   3.736  10.966  0.3766  1.4317 -1.0774
    8SAPS    HB  951   5.028   3.665  10.825 -0.5082  0.7607  0.0613
    8SAPS    C2  952   4.843   3.561  10.886 -0.5771 -0.1933  0.5587
    8SAPS    HS  953   4.800   3.528  10.983 -0.2412 -1.7205  0.2113
    8SAPS   O21  954   4.866   3.443  10.793  0.1555 -0.8815 -0.0796
    8SAPS   C21  955   4.765   3.353  10.785  0.2230 -0.3268 -0.2597
    8SAPS   O22  956   4.665   3.356  10.851  0.7466 -0.1944  0.2171
    8SAPS   C22  957   4.791   3.236  10.688  0.1238 -0.6469 -0.3867
    8SAPS   H2R  958   4.763   3.153  10.756 -4.5508  3.3138  3.3177
    8SAPS   H2S  959   4.739   3.244  10.590 -0.6736 -3.7911 -0.3247
    8SAPS    C3  960   4.739   3.654  10.817 -0.1591 -0.3055  0.6990
    8SAPS    HX  961   4.735   3.744  10.882  3.8298  0.6596 -0.1492
    8SAPS    HY  962   4.634   3.616  10.817  0.0288 -0.8295  0.6962
    8SAPS   O31  963   4.790   3.690  10.688 -0.3965 -0.2856  0.2560
    8SAPS   C31  964   4.716   3.646  10.579 -0.4598  0.3941  0.4093
    8SAPS   O32  965   4.629   3.559  10.582 -0.2864 -0.1488 -0.1354
    8SAPS   C32  966   4.758   3.733  10.460 -0.2496 -0.0829 -0.3847
    8SAPS   H2X  967   4.772   3.840  10.484  3.9358 -1.0243  2.4610
    8SAPS   H2Y  968   4.681   3.709  10.384 -0.4001 -2.7432  0.4937
    8SAPS   C23  969   4.944   3.224  10.655  0.8125 -0.1685 -1.0008
    8SAPS   H3R  970   4.998   3.208  10.750 -1.4297  1.2810  0.6315
    8SAPS   H3S  971   4.977   3.322  10.615 -0.6194  0.8870  0.2958
    8SAPS   C24  972   4.975   3.118  10.548  0.7086 -0.1094  0.0369
    8SAPS   H4R  973   4.904   3.139  10.466  2.2765  0.8847 -1.1368
    8SAPS   H4S  974   4.942   3.024  10.596 -0.4078 -1.2058 -2.6771
    8SAPS   C25  975   5.120   3.119  10.504 -0.2440  0.8012 -0.1188
    8SAPS   H5R  976   5.198   3.141  10.579  0.3822  0.8918 -0.7926
    8SAPS   C26  977   5.151   3.101  10.379  0.8201 -0.0454  0.3429
    8SAPS   H6R  978   5.257   3.102  10.349  1.3777 -0.9548  2.1521
    8SAPS   C27  979   5.066   3.079  10.249  0.0266  0.1485 -0.2811
    8SAPS   H7R  980   4.959   3.110  10.261  0.2115  0.1507  1.5309
    8SAPS   H7S  981   5.069   2.975  10.212 -0.6686 -0.3238  0.9419
    8SAPS   C28  982   5.112   3.171  10.133  0.0368  0.5692 -0.0090
    8SAPS   H8R  983   5.036   3.246  10.107 -1.1941 -0.8751 -0.7516
    8SAPS   C29  984   5.226   3.160  10.062 -0.8481  0.1493 -0.2270
    8SAPS   H9R  985   5.242   3.233   9.981 -2.6153  1.9413  0.9511
    8SAPS  C210  986   5.335   3.052  10.077 -0.5549  0.1501 -0.0083
    8SAPS  H10R  987   5.316   2.978  10.159 -0.1279 -0.6167 -0.5895
    8SAPS  H10S  988   5.415   3.120  10.113 -0.9501  0.6817 -0.1159
    8SAPS  C211  989   5.383   2.995   9.944 -0.5050  0.8943 -0.3817
    8SAPS  H11R  990   5.407   3.064   9.862  1.7779 -0.7322 -1.1901
    8SAPS  C212  991   5.411   2.858   9.933  0.1450 -0.7739 -0.0797
    8SAPS  H12R  992   5.458   2.823   9.841  1.6034  3.6278 -1.2471
    8SAPS  C213  993   5.392   2.748  10.032  0.2809 -0.4267  0.4474
    8SAPS  H13R  994   5.453   2.784  10.118  1.1407 -1.9789  0.5194
    8SAPS  H13S  995   5.447   2.660   9.993 -1.0349 -0.9100 -0.3446
    8SAPS  C214  996   5.255   2.695  10.058 -0.5774 -0.2813  0.2236
    8SAPS  H14R  997   5.205   2.643   9.975  1.6789 -1.5726 -0.3947
    8SAPS  C215  998   5.197   2.693  10.183 -0.1385 -0.0979  0.0491
    8SAPS  H15R  999   5.108   2.632  10.204  0.5145  0.2245  5.1530
    8SAPS  C216 1000   5.261   2.743  10.309 -0.1156 -0.2667 -0.0667
    8SAPS  H16R 1001   5.180   2.773  10.380 -0.4060  1.4494 -1.0669
    8SAPS  H16S 1002   5.324   2.834  10.298 -0.5182  0.2051  1.2604
    8SAPS  C217 1003   5.348   2.641  10.384  0.4017  0.1760 -0.7749
    8SAPS  H17R 1004   5.411   2.696  10.457  2.9988 -1.1995 -1.8469
    8SAPS  H17S 1005   5.418   2.587  10.317  0.6276 -0.3263 -0.1390
    8SAPS  C218 1006   5.267   2.534  10.442  0.2605 -0.1898  0.0342
    8SAPS  H18R 1007   5.198   2.497  10.363  0.8702  2.9602 -2.1882
    8SAPS  H18S 1008   5.204   2.584  10.518  1.7741  0.1668  1.1052
    8SAPS  C219 1009   5.337   2.427  10.519 -0.6998  0.0621  0.1998
    8SAPS  H19R 1010   5.393   2.460  10.610 -1.6817  0.9342  0.5160
    8SAPS  H19S 1011   5.415   2.382  10.454 -0.8436 -0.3052  0.2832
    8SAPS  C220 1012   5.240   2.314  10.564  0.0141 -0.1982  1.0376
    8SAPS  H20R 1013   5.187   2.344  10.657 -0.5536  3.5885 -0.3316
    8SAPS  H20S 1014   5.300   2.224  10.590  1.4536 -0.0896 -1.6125
    8SAPS  H20T 1015   5.168   2.292  10.482 -0.4383 -3.2826  2.1424
    8SAPS   C33 1016   4.896   3.693  10.406  0.2936  0.3506 -0.2104
    8SAPS   H3X 1017   4.972   3.691  10.487  1.0662  0.9667 -0.9099
    8SAPS   H3Y 1018   4.923   3.773  10.334  2.2411  0.5418  0.6628
    8SAPS   C34 1019   4.902   3.559  10.327  0.1184  0.4563  0.2112
    8SAPS   H4X 1020   4.858   3.578  10.227 -0.4286  0.0793  0.3788
    8SAPS   H4Y 1021   4.841   3.479  10.375  0.4159  1.1395  1.7903
    8SAPS   C35 1022   5.042   3.511  10.299 -0.3516 -0.1817 -1.0540
    8SAPS   H5X 1023   5.040   3.409  10.254 -1.3083 -0.4158 -0.5083
    8SAPS   H5Y 1024   5.096   3.485  10.393 -0.0029 -0.2656 -1.2734
    8SAPS   C36 1025   5.131   3.603  10.218 -0.3567  0.1008 -0.2374
    8SAPS   H6X 1026   5.236   3.566  10.223  0.4562  2.3581  1.4288
    8SAPS   H6Y 1027   5.132   3.705  10.262  0.3089  0.2235 -0.5185
    8SAPS   C37 1028   5.080   3.614  10.066  0.4124  0.1969  0.2578
    8SAPS   H7X 1029   4.978   3.656  10.065 -0.0484 -0.8445  1.5184
    8SAPS   H7Y 1030   5.063   3.515  10.020 -0.6430  0.6454 -0.3385
    8SAPS   C38 1031   5.177   3.689   9.971  0.2033 -1.1650  0.3132
    8SAPS   H8X 1032   5.275   3.636   9.959 -0.2152 -1.7181 -0.8200
    8SAPS   H8Y 1033   5.187   3.787  10.021  0.7639 -2.4183  2.8458
    8SAPS   C39 1034   5.124   3.712   9.824 -1.0274  0.3111 -0.2484
    8SAPS   H9X 1035   5.104   3.610   9.784 -0.5079  0.6511 -1.4471
    8SAPS   H9Y 1036   5.207   3.743   9.756 -0.5187  0.5397  0.4596
    8SAPS  C310 1037   4.998   3.790   9.813  0.0964 -0.0035  0.0772
    8SAPS  H10X 1038   5.007   3.895   9.848  1.5805 -0.7056  2.0088
    8SAPS  H10Y 1039   4.919   3.742   9.875 -1.4773 -1.0541 -2.5722
    8SAPS  C311 1040   4.940   3.786   9.671  0.3796  0.4999 -0.1953
    8SAPS  H11X 1041   4.835   3.820   9.686  0.0871 -0.8033  0.9028
    8SAPS  H11Y 1042   4.945   3.683   9.629  0.5533  1.8043 -3.7381
    8SAPS  C312 1043   5.011   3.871   9.566  0.2112 -0.4271  0.5878
    8SAPS  H12X 1044   5.118   3.843   9.578  0.0027 -2.1406 -0.9568
    8SAPS  H12Y 1045   5.005   3.979   9.590 -0.2997 -0.5898  1.2067
    8SAPS  C313 1046   4.961   3.853   9.432  0.4605 -0.6415  0.0400
    8SAPS  H13X 1047   4.850   3.845   9.439  0.2812  1.2059 -0.1974
    8SAPS  H13Y 1048   4.992   3.754   9.393 -1.6229 -1.8758  1.3081
    8SAPS  C314 1049   4.986   3.966   9.328 -0.2317 -0.4738  0.0395
    8SAPS  H14X 1050   5.096   3.967   9.308 -0.0189 -0.2713  1.1388
    8SAPS  H14Y 1051   4.953   4.060   9.376 -2.1438  0.3425 -2.6530
    8SAPS  C315 1052   4.916   3.960   9.189 -0.3262  0.3608 -0.2948
    8SAPS  H15X 1053   4.910   4.054   9.130  0.5222 -0.1786 -1.2906
    8SAPS  H15Y 1054   4.811   3.924   9.189  0.2998 -1.6811 -1.7515
    8SAPS  C316 1055   4.991   3.862   9.093 -0.6493  0.3282 -0.0205
    8SAPS  H16X 1056   4.910   3.819   9.030 -0.5532  0.1258 -0.0060
    8SAPS  H16Y 1057   5.045   3.778   9.141 -0.7042 -0.7552 -1.7501
    8SAPS  C317 1058   5.091   3.934   9.004  0.5237  0.1686  0.0658
    8SAPS  H17X 1059   5.177   3.948   9.072 -1.7193 -1.0404  3.4450
    8SAPS  H17Y 1060   5.044   4.032   8.978 -2.4527 -0.4375  2.5193
    8SAPS  C318 1061   5.141   3.858   8.881  0.1734  0.0480  0.6060
    8SAPS  H18X 1062   5.180   3.942   8.819  2.6710 -0.7847  0.9362
    8SAPS  H18Y 1063   5.055   3.825   8.818  2.2955 -1.9079 -1.4392
    8SAPS  H18Z 1064   5.221   3.786   8.907  1.8782  1.1312 -1.3404
    9SAPS     N 1065   5.879   5.654   6.113 -0.8484  0.0745 -0.2713
    9SAPS   HN1 1066   5.953   5.726   6.126  0.7614 -1.8835  2.3689
    9SAPS   HN2 1067   5.853   5.621   6.208  2.5622 -0.5262  0.5749
    9SAPS   HN3 1068   5.922   5.577   6.059  0.2726  0.6161 -0.1740
    9SAPS   C12 1069   5.778   5.717   6.033  0.2908 -0.1213 -0.8554
    9SAPS  H12A 1070   5.833   5.757   5.949  2.2526 -0.7237  0.0979
    9SAPS   C13 1071   5.661   5.619   5.988  0.6314 -0.1997  0.1906
    9SAPS  O13A 1072   5.697   5.500   5.971 -0.2349 -0.2022  0.0328
    9SAPS  O13B 1073   5.564   5.669   5.922  0.4510  0.4340  0.0155
    9SAPS   C11 1074   5.714   5.842   6.110 -0.3778  0.2177 -0.0288
    9SAPS  H11A 1075   5.682   5.803   6.209 -2.0715  1.4993 -0.0406
    9SAPS  H11B 1076   5.633   5.880   6.044  0.0965  1.5242  0.1284
    9SAPS     P 1077   5.772   6.063   6.226 -0.3881  0.2818 -0.0206
    9SAPS   O13 1078   5.899   6.119   6.282 -0.5809 -0.0662 -0.3699
    9SAPS   O14 1079   5.682   6.148   6.151 -0.0720 -0.3587  0.3009
    9SAPS   O12 1080   5.811   5.944   6.132  0.6744  0.1160 -0.0657
    9SAPS   O11 1081   5.698   5.991   6.344  0.9835 -0.1126 -0.4644
    9SAPS    C1 1082   5.563   6.034   6.382  0.0504 -0.3741  0.2750
    9SAPS    HA 1083   5.514   6.090   6.299  1.2493  0.2725 -0.0276
    9SAPS    HB 1084   5.509   5.942   6.411 -1.2987  0.4445  0.4276
    9SAPS    C2 1085   5.552   6.123   6.504 -0.2479  1.0732  0.0461
    9SAPS    HS 1086   5.598   6.220   6.474  0.6364  0.9427  0.9035
    9SAPS   O21 1087   5.613   6.062   6.616  0.5400  0.2203 -0.2263
    9SAPS   C21 1088   5.692   6.144   6.691 -0.0257 -0.0885 -0.2071
    9SAPS   O22 1089   5.725   6.256   6.662 -0.5701  0.1242  0.2856
    9SAPS   C22 1090   5.722   6.083   6.824 -0.0337 -0.5199  0.2775
    9SAPS   H2R 1091   5.724   6.162   6.902 -0.2667 -1.5361  1.3526
    9SAPS   H2S 1092   5.640   6.014   6.853 -0.8782  0.5664  0.5623
    9SAPS    C3 1093   5.403   6.152   6.530 -0.3001  0.1336  0.5670
    9SAPS    HX 1094   5.348   6.056   6.533 -0.4188  0.1166 -1.0504
    9SAPS    HY 1095   5.368   6.205   6.438  1.0609  2.5806  1.3617
    9SAPS   O31 1096   5.384   6.228   6.652  0.1863 -0.0567  0.2868
    9SAPS   C31 1097   5.370   6.356   6.624 -0.7506  0.0659 -0.1042
    9SAPS   O32 1098   5.416   6.410   6.521 -1.3146 -0.4305 -0.2480
    9SAPS   C32 1099   5.294   6.422   6.736  0.4914 -0.0044 -0.4024
    9SAPS   H2X 1100   5.236   6.352   6.799  1.7432 -0.2086  0.5585
    9SAPS   H2Y 1101   5.215   6.489   6.695 -1.5760 -1.8253  0.3857
    9SAPS   C23 1102   5.861   6.022   6.818  0.3626  0.3483  0.7354
    9SAPS   H3R 1103   5.942   6.098   6.818  0.9473 -0.2512  1.7031
    9SAPS   H3S 1104   5.879   5.960   6.728  1.5405  2.4131 -0.5076
    9SAPS   C24 1105   5.897   5.921   6.940  0.2300  0.0896 -0.2592
    9SAPS   H4R 1106   5.906   5.985   7.030  0.2466  0.5176 -0.5580
    9SAPS   H4S 1107   5.989   5.864   6.919 -1.3338 -2.4665 -0.5900
    9SAPS   C25 1108   5.787   5.815   6.944 -0.0680 -0.1861  0.2581
    9SAPS   H5R 1109   5.749   5.776   6.848  1.0017  0.1080 -0.3062
    9SAPS   C26 1110   5.726   5.776   7.053 -0.1397 -0.4561  0.5453
    9SAPS   H6R 1111   5.641   5.706   7.048  1.3374 -2.2620 -0.3550
    9SAPS   C27 1112   5.761   5.834   7.192  0.4819  0.3044  1.3056
    9SAPS   H7R 1113   5.735   5.942   7.192 -0.5188  0.1155 -0.9558
    9SAPS   H7S 1114   5.870   5.828   7.212  0.3123 -1.7632  1.7832
    9SAPS   C28 1115   5.689   5.771   7.310  0.0140 -0.4174 -0.0798
    9SAPS   H8R 1116   5.602   5.712   7.277 -0.0799  1.0221 -2.6959
    9SAPS   C29 1117   5.722   5.779   7.438  0.3789  0.5704 -0.1478
    9SAPS   H9R 1118   5.672   5.716   7.514 -1.2741  1.5176 -0.3963
    9SAPS  C210 1119   5.841   5.854   7.480  0.6295 -0.6709 -0.0425
    9SAPS  H10R 1120   5.871   5.930   7.404  0.4416  0.1716  0.7077
    9SAPS  H10S 1121   5.929   5.789   7.502  0.1528 -1.5287 -0.6270
    9SAPS  C211 1122   5.824   5.930   7.607 -0.2489  0.3497 -0.3881
    9SAPS  H11R 1123   5.806   6.039   7.609  2.0318  0.7849 -0.3560
    9SAPS  C212 1124   5.824   5.885   7.738  0.4818  0.0987 -0.3013
    9SAPS  H12R 1125   5.782   5.957   7.810 -0.5481 -1.9183  1.2262
    9SAPS  C213 1126   5.823   5.744   7.782  0.2445 -0.3015  0.1310
    9SAPS  H13R 1127   5.876   5.734   7.879  0.6471  2.9804  0.3734
    9SAPS  H13S 1128   5.880   5.683   7.708  0.3336 -1.3709  1.0636
    9SAPS  C214 1129   5.681   5.688   7.792 -0.0565 -0.5167  0.7472
    9SAPS  H14R 1130   5.611   5.728   7.717 -2.2829  1.3774  3.5523
    9SAPS  C215 1131   5.641   5.605   7.888 -0.0364 -0.5967  0.3088
    9SAPS  H15R 1132   5.534   5.576   7.883 -0.4259  0.9077 -0.6219
    9SAPS  C216 1133   5.726   5.549   7.998  0.8670  0.2922 -1.0281
    9SAPS  H16R 1134   5.833   5.542   7.970  0.9907  0.1855 -0.5448
    9SAPS  H16S 1135   5.689   5.452   8.039  1.0348  1.4884  2.3088
    9SAPS  C217 1136   5.705   5.650   8.121  0.6551 -1.1106  0.3426
    9SAPS  H17R 1137   5.598   5.672   8.141  0.0389 -1.7627 -1.9113
    9SAPS  H17S 1138   5.743   5.748   8.085 -0.7195 -0.9110 -0.6552
    9SAPS  C218 1139   5.772   5.613   8.251 -0.6452  0.5309 -0.0888
    9SAPS  H18R 1140   5.882   5.602   8.242 -0.7040 -0.8712  0.6060
    9SAPS  H18S 1141   5.739   5.511   8.280  0.3461  0.4702  0.9107
    9SAPS  C219 1142   5.754   5.718   8.367  0.7332  0.4328 -0.1855
    9SAPS  H19R 1143   5.644   5.733   8.371  0.7764  0.7033 -0.0231
    9SAPS  H19S 1144   5.809   5.802   8.322  0.4026  1.1686  0.7421
    9SAPS  C220 1145   5.814   5.667   8.492 -0.2492  0.1705 -0.4114
    9SAPS  H20R 1146   5.920   5.637   8.473 -0.7255 -1.0618 -1.2961
    9SAPS  H20S 1147   5.759   5.575   8.520  0.8814 -0.3707  0.1261
    9SAPS  H20T 1148   5.805   5.749   8.566 -2.0857  1.0326 -1.5102
    9SAPS   C33 1149   5.401   6.502   6.824 -0.6047 -0.7810  0.0943
    9SAPS   H3X 1150   5.430   6.587   6.758 -1.4172 -0.5056  0.0773
    9SAPS   H3Y 1151   5.478   6.428   6.853 -0.5688 -0.6033  0.4604
    9SAPS   C34 1152   5.336   6.562   6.950  0.3488  0.0787  0.1895
    9SAPS   H4X 1153   5.323   6.494   7.036  1.9999  0.0127  0.4091
    9SAPS   H4Y 1154   5.235   6.602   6.926  0.6770 -0.3675 -2.2307
    9SAPS   C35 1155   5.423   6.679   7.006  0.6669  0.6225 -0.0024
    9SAPS   H5X 1156   5.446   6.749   6.923 -0.9999  1.4810  0.2140
    9SAPS   H5Y 1157   5.518   6.632   7.038 -0.4094 -4.1300 -2.7751
    9SAPS   C36 1158   5.351   6.751   7.119 -0.1819 -0.4468  0.0288
    9SAPS   H6X 1159   5.265   6.805   7.074 -0.6105 -0.6080  0.6478
    9SAPS   H6Y 1160   5.414   6.835   7.155 -1.5283  1.5230 -1.9527
    9SAPS   C37 1161   5.307   6.654   7.231 -0.1183 -0.5217  0.1454
    9SAPS   H7X 1162   5.383   6.586   7.276 -0.3854 -0.1309  1.2196
    9SAPS   H7Y 1163   5.227   6.589   7.191  1.8779 -2.4018 -1.0294
    9SAPS   C38 1164   5.256   6.739   7.348  0.1157  0.5909 -0.2542
    9SAPS   H8X 1165   5.161   6.774   7.304 -1.3460  0.9887  2.9175
    9SAPS   H8Y 1166   5.316   6.830   7.371 -0.4539  0.6668  1.0274
    9SAPS   C39 1167   5.228   6.659   7.476  0.2867 -0.2182 -0.1932
    9SAPS   H9X 1168   5.217   6.553   7.446  1.0813  0.2869 -2.4623
    9SAPS   H9Y 1169   5.127   6.663   7.523  0.9663 -2.1737  1.5774
    9SAPS  C310 1170   5.341   6.680   7.574 -0.5708 -0.0231 -0.2134
    9SAPS  H10X 1171   5.338   6.777   7.628  1.0221  0.4731 -0.9588
    9SAPS  H10Y 1172   5.434   6.674   7.515  0.2220 -0.5214  1.0334
    9SAPS  C311 1173   5.347   6.571   7.677  0.7551  0.2925 -0.6166
    9SAPS  H11X 1174   5.439   6.586   7.736 -0.2946  2.8179  0.5148
    9SAPS  H11Y 1175   5.351   6.468   7.636  2.8082 -1.4788  3.5125
    9SAPS  C312 1176   5.226   6.586   7.780  0.6507  0.4504  0.6215
    9SAPS  H12X 1177   5.121   6.581   7.745  0.4408  2.4658  0.8548
    9SAPS  H12Y 1178   5.220   6.692   7.811 -1.7806  0.7192 -0.5045
    9SAPS  C313 1179   5.240   6.484   7.895 -0.0565 -0.3775  0.3484
    9SAPS  H13X 1180   5.323   6.508   7.965  0.9613 -0.5256 -0.7761
    9SAPS  H13Y 1181   5.256   6.383   7.852  1.0358  0.6785 -1.9053
    9SAPS  C314 1182   5.101   6.485   7.963  0.0346 -0.3383 -0.6055
    9SAPS  H14X 1183   5.018   6.463   7.892 -2.9644  0.7145  2.3281
    9SAPS  H14Y 1184   5.079   6.590   7.992  3.2298 -0.1983  1.7367
    9SAPS  C315 1185   5.089   6.397   8.078 -0.4568  0.4031  0.0725
    9SAPS  H15X 1186   5.092   6.293   8.039 -1.7292  0.5416 -0.4331
    9SAPS  H15Y 1187   4.994   6.409   8.134  0.2852  0.1012  1.4185
    9SAPS  C316 1188   5.199   6.409   8.187  0.0836  0.2899  0.3456
    9SAPS  H16X 1189   5.193   6.512   8.229 -1.3081 -0.1004  1.1496
    9SAPS  H16Y 1190   5.300   6.401   8.142  0.2629 -0.8297  0.9015
    9SAPS  C317 1191   5.195   6.317   8.309 -0.6436  0.5184  0.0121
    9SAPS  H17X 1192   5.296   6.314   8.354  0.2849  0.8279 -1.9209
    9SAPS  H17Y 1193   5.172   6.218   8.264 -0.6083 -1.2810  3.6402
    9SAPS  C318 1194   5.096   6.347   8.415  0.0503  0.1257  0.0956
    9SAPS  H18X 1195   5.090   6.267   8.491 -1.9315 -0.1028 -0.2468
    9SAPS  H18Y 1196   4.993   6.344   8.373 -0.2467 -1.3558  0.8910
    9SAPS  H18Z 1197   5.116   6.439   8.474 -0.4386  0.4716 -0.2655
   10SAPS     N 1198   5.732   5.314   6.203 -0.2699 -0.3881 -0.1346
   10SAPS   HN1 1199   5.798   5.272   6.133 -0.8425 -1.6802  0.0616
   10SAPS   HN2 1200   5.660   5.244   6.227 -0.6165 -0.3752 -1.0683
   10SAPS   HN3 1201   5.686   5.398   6.164 -0.5639 -1.8677 -3.4131
   10SAPS   C12 1202   5.817   5.348   6.323 -0.0077  0.3376  0.8392
   10SAPS  H12A 1203   5.912   5.347   6.273  0.0241 -1.1570  0.8650
   10SAPS   C13 1204   5.777   5.475   6.394 -0.5691 -0.4163  1.3154
   10SAPS  O13A 1205   5.708   5.555   6.326  0.5527  0.4833  0.1599
   10SAPS  O13B 1206   5.828   5.505   6.503  0.0654 -0.1735  0.4210
   10SAPS   C11 1207   5.808   5.233   6.427  0.3754 -0.8178  0.3185
   10SAPS  H11A 1208   5.705   5.223   6.467  0.9533 -0.6576  1.9031
   10SAPS  H11B 1209   5.862   5.271   6.516  1.0079 -1.7193  0.3281
   10SAPS     P 1210   5.998   5.062   6.418  0.2849  0.1387  0.0738
   10SAPS   O13 1211   6.028   4.934   6.346 -0.0874 -0.0459 -0.3704
   10SAPS   O14 1212   6.084   5.180   6.401  0.1690 -0.1248 -0.0840
   10SAPS   O12 1213   5.858   5.109   6.374 -0.1490 -0.4614  0.0956
   10SAPS   O11 1214   5.977   5.028   6.570  0.2540 -0.2962  0.4708
   10SAPS    C1 1215   5.855   4.982   6.619 -0.6840  1.3000  0.3232
   10SAPS    HA 1216   5.808   5.055   6.689 -2.9786 -2.1598  2.7245
   10SAPS    HB 1217   5.782   4.956   6.540  1.2494  0.8018 -1.3863
   10SAPS    C2 1218   5.867   4.839   6.689 -0.7945 -0.1621 -0.2292
   10SAPS    HS 1219   5.891   4.773   6.603 -1.2978  1.5179 -1.7275
   10SAPS   O21 1220   5.749   4.805   6.761 -0.0043  0.1023 -0.3414
   10SAPS   C21 1221   5.738   4.676   6.790  0.3369 -0.3845  0.6009
   10SAPS   O22 1222   5.829   4.594   6.771  0.6328  0.0559  0.0918
   10SAPS   C22 1223   5.604   4.660   6.862 -0.5649 -0.0656 -0.2729
   10SAPS   H2R 1224   5.594   4.746   6.932  0.8722 -0.0618 -0.0322
   10SAPS   H2S 1225   5.521   4.660   6.789 -2.1289  2.4832  1.3613
   10SAPS    C3 1226   5.992   4.842   6.785  0.4091  0.7201 -0.1951
   10SAPS    HX 1227   6.077   4.887   6.730  0.5944  2.9883  1.8100
   10SAPS    HY 1228   6.011   4.736   6.811 -1.9077  0.5055  0.8881
   10SAPS   O31 1229   5.956   4.915   6.904  0.1462  0.6234  0.1107
   10SAPS   C31 1230   6.049   4.905   6.992  0.0706  0.3804 -0.2108
   10SAPS   O32 1231   6.168   4.874   6.973  0.3503 -0.0505 -0.7578
   10SAPS   C32 1232   5.983   4.948   7.127 -0.0408  0.2686 -0.0028
   10SAPS   H2X 1233   5.929   5.044   7.115  0.0705  0.3457  0.1082
   10SAPS   H2Y 1234   6.071   4.976   7.189  1.3382 -1.9767 -0.8145
   10SAPS   C23 1235   5.588   4.530   6.942  1.0863  0.8768  0.2769
   10SAPS   H3R 1236   5.588   4.445   6.871  0.9429 -0.4730  1.8408
   10SAPS   H3S 1237   5.483   4.531   6.976  1.4421 -0.7452  1.5123
   10SAPS   C24 1238   5.689   4.507   7.050  0.3933  0.6328  0.1968
   10SAPS   H4R 1239   5.684   4.584   7.130 -0.7673  0.6546  0.1148
   10SAPS   H4S 1240   5.782   4.502   6.989 -1.1739  0.4951 -2.3592
   10SAPS   C25 1241   5.662   4.372   7.120 -0.0654 -0.0159  0.0509
   10SAPS   H5R 1242   5.646   4.286   7.053 -3.9652  0.6602 -0.0992
   10SAPS   C26 1243   5.650   4.350   7.250 -0.0833 -0.5022 -0.4195
   10SAPS   H6R 1244   5.610   4.251   7.273  0.3231 -0.9440 -1.5335
   10SAPS   C27 1245   5.665   4.462   7.348  0.0594 -0.2858 -0.7646
   10SAPS   H7R 1246   5.591   4.544   7.336 -0.4398 -0.8618 -1.7602
   10SAPS   H7S 1247   5.760   4.517   7.333  1.1188 -0.6913  3.3541
   10SAPS   C28 1248   5.663   4.397   7.482 -0.3132 -0.0343  0.6179
   10SAPS   H8R 1249   5.668   4.288   7.494 -0.2838  0.1364  2.3356
   10SAPS   C29 1250   5.646   4.465   7.595  0.3753  0.2367 -0.5663
   10SAPS   H9R 1251   5.648   4.404   7.687 -0.3136  0.5705 -0.3187
   10SAPS  C210 1252   5.618   4.610   7.607 -0.4928 -0.9883  0.2759
   10SAPS  H10R 1253   5.516   4.615   7.652  0.5971 -0.7588  2.9386
   10SAPS  H10S 1254   5.621   4.655   7.506  2.1186 -1.7834 -0.0723
   10SAPS  C211 1255   5.722   4.684   7.687  0.2814  0.7244 -0.3410
   10SAPS  H11R 1256   5.823   4.642   7.674  0.1157  0.5626 -1.1644
   10SAPS  C212 1257   5.687   4.760   7.799  0.5922  0.0201  0.5120
   10SAPS  H12R 1258   5.770   4.813   7.848  0.9110  0.0052 -0.0014
   10SAPS  C213 1259   5.555   4.793   7.863  0.6373  0.5389  0.4429
   10SAPS  H13R 1260   5.465   4.788   7.797 -0.9416 -0.1107  2.5373
   10SAPS  H13S 1261   5.557   4.900   7.896 -0.1243 -0.0892  2.6922
   10SAPS  C214 1262   5.519   4.704   7.985 -0.4793 -0.5688  0.1066
   10SAPS  H14R 1263   5.491   4.602   7.954 -0.0745 -1.4573  2.4532
   10SAPS  C215 1264   5.512   4.750   8.113  0.7530 -0.1977 -0.1893
   10SAPS  H15R 1265   5.470   4.683   8.189 -0.4135  0.3272 -0.3418
   10SAPS  C216 1266   5.547   4.889   8.158 -0.5954 -0.1050 -1.0595
   10SAPS  H16R 1267   5.463   4.961   8.148 -0.5836 -0.2446 -2.4109
   10SAPS  H16S 1268   5.623   4.936   8.092 -1.1094 -0.4965 -1.9579
   10SAPS  C217 1269   5.583   4.895   8.306  0.1219  0.1918 -0.1981
   10SAPS  H17R 1270   5.626   4.991   8.341 -2.1964  1.5904 -0.9901
   10SAPS  H17S 1271   5.661   4.818   8.327 -0.8518 -0.4791  1.1123
   10SAPS  C218 1272   5.459   4.860   8.403 -0.2214  0.3279  0.1994
   10SAPS  H18R 1273   5.450   4.749   8.409  1.2112  0.2592  2.2323
   10SAPS  H18S 1274   5.371   4.910   8.358  0.5900  3.0962  1.4713
   10SAPS  C219 1275   5.477   4.914   8.543  0.2349 -0.7929  0.0570
   10SAPS  H19R 1276   5.468   5.024   8.553  1.1362 -0.8412  1.8368
   10SAPS  H19S 1277   5.582   4.898   8.575  0.5851  1.8858  0.4107
   10SAPS  C220 1278   5.364   4.855   8.637  0.0097 -0.5396 -0.0893
   10SAPS  H20R 1279   5.271   4.908   8.608 -0.0343  0.7162  2.1233
   10SAPS  H20S 1280   5.373   4.881   8.744 -1.6768 -0.4323  0.0510
   10SAPS  H20T 1281   5.342   4.752   8.602 -1.9961 -0.1768 -0.0204
   10SAPS   C33 1282   5.881   4.843   7.182 -0.7368 -0.0924 -0.2872
   10SAPS   H3X 1283   5.934   4.755   7.224  0.7561 -0.4605 -2.7495
   10SAPS   H3Y 1284   5.811   4.803   7.105 -1.0713 -2.8236  1.2912
   10SAPS   C34 1285   5.777   4.907   7.279  0.0734  0.7121 -1.1053
   10SAPS   H4X 1286   5.693   4.838   7.302  0.8790  0.4609  1.4109
   10SAPS   H4Y 1287   5.730   4.997   7.234  1.1464  1.5142 -0.6683
   10SAPS   C35 1288   5.836   4.947   7.418  1.1023  0.2600  0.3137
   10SAPS   H5X 1289   5.911   5.029   7.415  3.2529 -1.5710  1.2331
   10SAPS   H5Y 1290   5.879   4.860   7.472 -1.2889 -0.7598  0.7120
   10SAPS   C36 1291   5.719   5.001   7.504  0.1126 -0.0477 -0.1651
   10SAPS   H6X 1292   5.639   4.936   7.545 -1.0712  1.9497  0.8932
   10SAPS   H6Y 1293   5.674   5.078   7.438  0.5954  0.3295 -0.0608
   10SAPS   C37 1294   5.781   5.071   7.636 -0.1618  0.3486 -0.4538
   10SAPS   H7X 1295   5.864   5.138   7.605 -0.6966  1.3081  0.1157
   10SAPS   H7Y 1296   5.812   4.985   7.699  0.0222  0.5326 -0.2910
   10SAPS   C38 1297   5.684   5.165   7.715  0.5418  0.1153 -0.0990
   10SAPS   H8X 1298   5.597   5.104   7.750  0.8421 -0.6854 -0.7173
   10SAPS   H8Y 1299   5.654   5.250   7.651 -1.7907 -1.6472 -1.4894
   10SAPS   C39 1300   5.738   5.237   7.841  0.4086 -0.1416 -0.4426
   10SAPS   H9X 1301   5.648   5.279   7.889 -0.9124 -1.5992 -1.5280
   10SAPS   H9Y 1302   5.806   5.319   7.808 -1.6519  3.1355  2.7288
   10SAPS  C310 1303   5.817   5.149   7.936  0.0580 -0.1722 -0.1096
   10SAPS  H10X 1304   5.916   5.132   7.890 -0.2990  0.9060 -1.3411
   10SAPS  H10Y 1305   5.766   5.051   7.947 -1.4476  0.5185 -0.5236
   10SAPS  C311 1306   5.840   5.216   8.075  0.2694  0.1625  0.2665
   10SAPS  H11X 1307   5.738   5.231   8.116 -0.3854 -1.8314 -0.5119
   10SAPS  H11Y 1308   5.896   5.310   8.061  0.1874 -0.0725 -2.0873
   10SAPS  C312 1309   5.917   5.119   8.163 -0.2116 -0.1993 -0.1655
   10SAPS  H12X 1310   6.015   5.086   8.122 -0.8508 -3.1822  0.4654
   10SAPS  H12Y 1311   5.861   5.023   8.171  1.1575 -1.0255 -0.1122
   10SAPS  C313 1312   5.936   5.173   8.312  0.5717  0.0459  0.8716
   10SAPS  H13X 1313   5.835   5.183   8.358 -0.7002 -2.4972 -1.0619
   10SAPS  H13Y 1314   5.982   5.273   8.304  0.7525 -0.0867  0.2371
   10SAPS  C314 1315   6.009   5.075   8.406 -0.8396 -0.1056  1.0321
   10SAPS  H14X 1316   6.018   5.134   8.499 -1.0100  0.6856  0.5610
   10SAPS  H14Y 1317   6.107   5.047   8.362 -1.8685  1.1153 -2.3637
   10SAPS  C315 1318   5.932   4.946   8.428 -0.0120  0.4591  0.9719
   10SAPS  H15X 1319   5.903   4.902   8.331  0.5515  2.5404 -0.2147
   10SAPS  H15Y 1320   5.837   4.973   8.479 -2.1282 -0.9501 -1.9235
   10SAPS  C316 1321   6.004   4.843   8.514 -0.4936 -0.5353  0.0667
   10SAPS  H16X 1322   6.051   4.901   8.597 -0.4091  1.6540 -1.4240
   10SAPS  H16Y 1323   6.089   4.799   8.457 -1.0227  0.0284 -1.1887
   10SAPS  C317 1324   5.912   4.742   8.585 -0.0970  0.0990  0.3130
   10SAPS  H17X 1325   5.834   4.807   8.628  1.9466  2.7989  0.1988
   10SAPS  H17Y 1326   5.956   4.694   8.675 -0.8292 -0.4093  0.4066
   10SAPS  C318 1327   5.845   4.635   8.499  0.0237 -0.3437  0.6538
   10SAPS  H18X 1328   5.814   4.543   8.553  1.5690 -3.7318 -3.6046
   10SAPS  H18Y 1329   5.916   4.588   8.427 -1.4556 -1.8802  0.1187
   10SAPS  H18Z 1330   5.762   4.669   8.432  1.3612 -2.3704 -2.2724
   11SAPS     N 1331   2.473   1.462   5.891  0.3269  0.1562  0.0618
   11SAPS   HN1 1332   2.502   1.540   5.954 -3.2776  0.5278  1.5249
   11SAPS   HN2 1333   2.489   1.498   5.795 -1.8915  2.8458  0.5587
   11SAPS   HN3 1334   2.370   1.462   5.908  0.3598  2.6291  0.7634
   11SAPS   C12 1335   2.512   1.320   5.907 -0.4519  0.9635  0.2772
   11SAPS  H12A 1336   2.455   1.254   5.843  1.9348 -0.7393 -0.2267
   11SAPS   C13 1337   2.658   1.279   5.879  0.0927 -0.2573 -0.4787
   11SAPS  O13A 1338   2.737   1.370   5.855  0.0989 -0.6601 -0.4850
   11SAPS  O13B 1339   2.690   1.155   5.871 -0.1534 -0.3645 -0.0745
   11SAPS   C11 1340   2.497   1.275   6.058  0.8682 -0.3491 -0.0277
   11SAPS  H11A 1341   2.563   1.332   6.127  0.3431 -2.1385  2.0723
   11SAPS  H11B 1342   2.516   1.167   6.076 -1.5469 -1.0562 -1.2961
   11SAPS     P 1343   2.248   1.191   6.102 -0.0908  0.1425 -0.3107
   11SAPS   O13 1344   2.115   1.254   6.122  0.6736 -0.5998 -0.0896
   11SAPS   O14 1345   2.264   1.114   5.977  0.0823  0.9082  0.1888
   11SAPS   O12 1346   2.358   1.301   6.116 -0.6407  0.3759 -0.1303
   11SAPS   O11 1347   2.276   1.086   6.212  0.6705  0.3459 -0.8997
   11SAPS    C1 1348   2.203   1.086   6.338 -0.4824 -0.5559  0.6069
   11SAPS    HA 1349   2.191   1.187   6.382 -0.7854 -1.0394  1.6656
   11SAPS    HB 1350   2.101   1.045   6.321  0.4780 -2.9180  0.2351
   11SAPS    C2 1351   2.284   0.998   6.452 -0.4844  0.0412 -0.0991
   11SAPS    HS 1352   2.298   0.897   6.408  1.0546  1.5865 -3.5736
   11SAPS   O21 1353   2.201   0.998   6.566  0.1358 -0.1586 -0.8858
   11SAPS   C21 1354   2.104   0.897   6.570  0.7587  0.2677  0.4123
   11SAPS   O22 1355   2.077   0.824   6.477 -0.2169  0.5267  0.5726
   11SAPS   C22 1356   2.036   0.901   6.707  0.1393 -0.1361  0.2287
   11SAPS   H2R 1357   2.088   0.977   6.769 -0.1395  1.5516 -1.4945
   11SAPS   H2S 1358   1.930   0.930   6.691  0.6626  1.8786  0.2256
   11SAPS    C3 1359   2.426   1.056   6.478  0.2799 -0.2460 -0.7649
   11SAPS    HX 1360   2.415   1.163   6.448  0.3369 -0.9069 -3.4024
   11SAPS    HY 1361   2.495   1.000   6.411 -0.6338 -1.7822 -0.4603
   11SAPS   O31 1362   2.465   1.028   6.615  0.1404 -0.2034  0.1807
   11SAPS   C31 1363   2.464   1.129   6.697 -0.4556  0.2832  0.8097
   11SAPS   O32 1364   2.415   1.238   6.679  0.0483  0.0478  0.0277
   11SAPS   C32 1365   2.542   1.082   6.813 -0.2978  0.1696  0.1903
   11SAPS   H2X 1366   2.643   1.051   6.778 -1.1398 -1.6606 -0.7537
   11SAPS   H2Y 1367   2.503   0.985   6.849  0.3304  0.5632  2.0363
   11SAPS   C23 1368   2.034   0.763   6.775  0.5429 -0.5631 -0.4023
   11SAPS   H3R 1369   2.129   0.742   6.828  0.3173 -4.2487 -1.1797
   11SAPS   H3S 1370   2.039   0.690   6.691  0.0391  0.5741 -1.4520
   11SAPS   C24 1371   1.910   0.726   6.866 -0.3492  0.0622  0.2231
   11SAPS   H4R 1372   1.908   0.615   6.862 -1.5376  0.1159 -1.7039
   11SAPS   H4S 1373   1.820   0.751   6.807 -0.3499  0.1945  0.2786
   11SAPS   C25 1374   1.928   0.792   7.005  0.2597  0.5625  0.0334
   11SAPS   H5R 1375   1.902   0.899   7.002  1.1255  0.7423 -1.4294
   11SAPS   C26 1376   1.944   0.732   7.123 -0.1649 -0.1894 -0.4233
   11SAPS   H6R 1377   1.957   0.790   7.216  0.9176  1.2678 -1.4384
   11SAPS   C27 1378   1.952   0.580   7.143  0.4434  0.3380  0.6285
   11SAPS   H7R 1379   2.014   0.561   7.233  3.3544  0.7044 -1.1564
   11SAPS   H7S 1380   2.015   0.539   7.061  0.7200  0.8387  0.5825
   11SAPS   C28 1381   1.820   0.514   7.162  0.4311 -0.3515 -0.5003
   11SAPS   H8R 1382   1.774   0.485   7.066  1.8929 -2.6271 -0.6138
   11SAPS   C29 1383   1.774   0.477   7.283 -0.1312  0.0912  0.0698
   11SAPS   H9R 1384   1.671   0.439   7.295  0.1337 -0.5241  0.4168
   11SAPS  C210 1385   1.827   0.504   7.424  1.0131 -0.0943 -0.0847
   11SAPS  H10R 1386   1.774   0.593   7.463  0.4696  0.5978 -2.2814
   11SAPS  H10S 1387   1.929   0.546   7.430  0.8337  0.3828 -0.3472
   11SAPS  C211 1388   1.805   0.387   7.513  0.2354 -0.5756  0.1619
   11SAPS  H11R 1389   1.826   0.290   7.466  0.2469  0.0812 -1.2480
   11SAPS  C212 1390   1.753   0.387   7.635 -0.5794  0.4495  0.1653
   11SAPS  H12R 1391   1.744   0.286   7.680  2.7253  1.0361  2.4574
   11SAPS  C213 1392   1.707   0.495   7.733  0.3608  0.1135 -0.0023
   11SAPS  H13R 1393   1.596   0.488   7.735  0.2071  0.6867 -2.6640
   11SAPS  H13S 1394   1.724   0.592   7.683 -0.5309 -0.4339 -1.4191
   11SAPS  C214 1395   1.773   0.486   7.871  0.0032  0.3887  0.5295
   11SAPS  H14R 1396   1.853   0.561   7.883  0.2650  0.3851 -0.9370
   11SAPS  C215 1397   1.749   0.405   7.976 -0.3538  0.4082  0.6998
   11SAPS  H15R 1398   1.815   0.417   8.063  0.4243 -3.0644  0.7465
   11SAPS  C216 1399   1.642   0.295   7.978 -0.5721  0.1925 -0.3116
   11SAPS  H16R 1400   1.695   0.201   8.008  1.3498  1.1007 -0.6706
   11SAPS  H16S 1401   1.579   0.279   7.889 -0.7067 -3.8354  0.2943
   11SAPS  C217 1402   1.534   0.334   8.089 -0.4553 -0.1146  0.1688
   11SAPS  H17R 1403   1.570   0.340   8.194 -0.0842  1.5430 -0.0377
   11SAPS  H17S 1404   1.468   0.245   8.083 -0.7206  0.1325 -0.6628
   11SAPS  C218 1405   1.460   0.465   8.063  0.0047 -0.5926  1.0215
   11SAPS  H18R 1406   1.425   0.466   7.958  0.6179  2.1120  0.7665
   11SAPS  H18S 1407   1.529   0.552   8.076  0.2139 -0.4957 -0.5089
   11SAPS  C219 1408   1.346   0.494   8.161  0.3550 -0.0773 -0.3420
   11SAPS  H19R 1409   1.394   0.486   8.261  1.0786  1.5097 -0.5351
   11SAPS  H19S 1410   1.269   0.414   8.156  0.7900 -0.4151 -1.9473
   11SAPS  C220 1411   1.277   0.631   8.157  0.6518 -0.5078 -0.2667
   11SAPS  H20R 1412   1.196   0.636   8.233 -0.4072  1.0269 -1.4339
   11SAPS  H20S 1413   1.221   0.640   8.061 -0.3223 -0.2945  0.3144
   11SAPS  H20T 1414   1.347   0.711   8.187 -1.6040  0.5877  2.4766
   11SAPS   C33 1415   2.546   1.178   6.937 -0.6317  0.8518  0.1357
   11SAPS   H3X 1416   2.440   1.186   6.969 -0.6635  1.1944 -0.0545
   11SAPS   H3Y 1417   2.563   1.281   6.901 -0.6077  0.8504  0.1428
   11SAPS   C34 1418   2.633   1.132   7.054 -0.0466  0.5473  0.1736
   11SAPS   H4X 1419   2.732   1.101   7.013 -1.1792 -2.1159 -0.7956
   11SAPS   H4Y 1420   2.602   1.035   7.100  2.6924  0.3095  1.8066
   11SAPS   C35 1421   2.645   1.227   7.168 -0.5205  0.4610  0.2110
   11SAPS   H5X 1422   2.547   1.229   7.221 -0.6536  1.5319 -0.0536
   11SAPS   H5Y 1423   2.646   1.331   7.127 -1.1841  0.6149  0.5618
   11SAPS   C36 1424   2.749   1.184   7.269  0.5908 -0.6387  0.4129
   11SAPS   H6X 1425   2.824   1.263   7.293 -0.8488  0.4956  1.3552
   11SAPS   H6Y 1426   2.800   1.092   7.233 -1.0513 -1.0533 -0.9981
   11SAPS   C37 1427   2.701   1.129   7.408  0.4151  0.3868 -0.3591
   11SAPS   H7X 1428   2.641   1.037   7.390  0.7666  0.0859 -0.0250
   11SAPS   H7Y 1429   2.638   1.212   7.446  2.5564  3.1694 -2.4518
   11SAPS   C38 1430   2.817   1.102   7.507 -0.4019  0.1409  0.1938
   11SAPS   H8X 1431   2.767   1.109   7.605 -0.3300 -2.1930  0.4571
   11SAPS   H8Y 1432   2.888   1.186   7.493  1.0589 -0.9818  0.6034
   11SAPS   C39 1433   2.879   0.961   7.493  0.9540 -0.4437  0.2786
   11SAPS   H9X 1434   2.921   0.950   7.391 -2.4529 -0.2928 -1.3019
   11SAPS   H9Y 1435   2.790   0.895   7.504 -0.4424  0.7314 -2.6504
   11SAPS  C310 1436   2.981   0.920   7.593  0.3362 -0.3152  0.5567
   11SAPS  H10X 1437   3.067   0.990   7.582 -1.6615  1.9375 -2.3473
   11SAPS  H10Y 1438   3.016   0.822   7.554 -1.0476 -0.0176 -1.5640
   11SAPS  C311 1439   2.940   0.891   7.741  0.2084  0.6415  0.9733
   11SAPS  H11X 1440   2.857   0.817   7.736  1.3164 -0.6500  1.0994
   11SAPS  H11Y 1441   2.899   0.985   7.785  2.3425  2.1286 -0.0171
   11SAPS  C312 1442   3.064   0.866   7.827  0.1334  0.4775 -0.7646
   11SAPS  H12X 1443   3.118   0.783   7.776 -3.2085 -1.1766 -1.9784
   11SAPS  H12Y 1444   3.037   0.831   7.929  0.0357  2.4816 -0.0730
   11SAPS  C313 1445   3.146   0.993   7.856  0.9064  0.3340 -0.4585
   11SAPS  H13X 1446   3.081   1.080   7.879  1.6676  0.5848  0.8447
   11SAPS  H13Y 1447   3.207   1.030   7.771  0.7029  0.8778 -0.3707
   11SAPS  C314 1448   3.232   0.965   7.975  0.4828  0.4356  0.5414
   11SAPS  H14X 1449   3.179   0.918   8.061  0.9809  0.5952  0.9413
   11SAPS  H14Y 1450   3.266   1.065   8.011  0.6518  1.0180 -1.1188
   11SAPS  C315 1451   3.351   0.878   7.940 -0.1253 -0.2670  0.3607
   11SAPS  H15X 1452   3.406   0.936   7.863 -0.7694  0.8528  0.7091
   11SAPS  H15Y 1453   3.324   0.787   7.883  1.8477 -0.0618 -0.9763
   11SAPS  C316 1454   3.434   0.826   8.057 -0.8666  0.4151 -0.8344
   11SAPS  H16X 1455   3.464   0.906   8.129  0.3538 -2.3307  1.9374
   11SAPS  H16Y 1456   3.533   0.794   8.020 -0.5105 -0.3212  0.6612
   11SAPS  C317 1457   3.376   0.697   8.122 -0.4940 -0.3466  0.2570
   11SAPS  H17X 1458   3.369   0.618   8.044  0.2360 -1.0268  0.8539
   11SAPS  H17Y 1459   3.272   0.718   8.153 -0.2858 -1.0624  1.5453
   11SAPS  C318 1460   3.457   0.657   8.244  0.0747 -0.3054  0.1480
   11SAPS  H18X 1461   3.448   0.737   8.320 -2.5779 -0.7372  0.3921
   11SAPS  H18Y 1462   3.564   0.646   8.215  0.4818 -2.2019  2.1353
   11SAPS  H18Z 1463   3.430   0.555   8.278 -1.2810  0.0713  0.2781
   12SAPS     N 1464   2.819   2.019   5.873 -0.1978 -0.1019  0.2531
   12SAPS   HN1 1465   2.889   2.080   5.826  0.3596 -0.1503  0.9997
   12SAPS   HN2 1466   2.829   1.923   5.834 -2.5269 -0.2588 -0.1356
   12SAPS   HN3 1467   2.722   2.048   5.847 -0.4394 -1.3076 -0.2523
   12SAPS   C12 1468   2.824   2.037   6.018 -0.3766 -1.3911 -0.9923
   12SAPS  H12A 1469   2.885   1.958   6.061  0.0743 -0.2076  0.6728
   12SAPS   C13 1470   2.879   2.162   6.078  0.0653 -0.7605  0.0270
   12SAPS  O13A 1471   2.927   2.251   6.000 -0.4278  0.0195 -0.2076
   12SAPS  O13B 1472   2.874   2.183   6.204 -0.3376 -0.2008  0.7308
   12SAPS   C11 1473   2.680   2.022   6.065  1.0371  0.3202 -0.1507
   12SAPS  H11A 1474   2.615   2.104   6.026  0.8481 -0.1931 -0.9242
   12SAPS  H11B 1475   2.670   2.021   6.176 -0.7143 -1.1056 -0.2740
   12SAPS     P 1476   2.619   1.759   6.076  0.0814 -0.2647  0.4965
   12SAPS   O13 1477   2.516   1.685   6.012 -0.0194 -0.1416  0.2003
   12SAPS   O14 1478   2.750   1.695   6.084  0.1011 -0.1735 -0.1333
   12SAPS   O12 1479   2.625   1.899   6.016 -0.1765 -0.4736 -0.2826
   12SAPS   O11 1480   2.570   1.799   6.220 -0.2529  0.0371 -0.3709
   12SAPS    C1 1481   2.439   1.858   6.237 -0.8805  0.8177 -0.9632
   12SAPS    HA 1482   2.415   1.925   6.152 -0.3292  0.9925 -0.9838
   12SAPS    HB 1483   2.366   1.776   6.247  1.4664 -1.1990  0.7885
   12SAPS    C2 1484   2.431   1.965   6.346  0.4917  0.6649 -0.1541
   12SAPS    HS 1485   2.496   2.045   6.306 -1.4081  2.0650 -0.5540
   12SAPS   O21 1486   2.491   1.910   6.466 -0.3838  0.3284 -0.2808
   12SAPS   C21 1487   2.538   2.001   6.548  0.3038  0.6098 -0.0305
   12SAPS   O22 1488   2.574   2.112   6.508  0.7578 -0.9806 -0.3413
   12SAPS   C22 1489   2.539   1.947   6.690  0.2274  0.2659  0.2532
   12SAPS   H2R 1490   2.474   2.017   6.748  0.7044  1.6136 -0.7979
   12SAPS   H2S 1491   2.502   1.843   6.680 -2.5110  1.0510  1.1970
   12SAPS    C3 1492   2.283   2.013   6.370 -0.0801 -0.1983  1.0168
   12SAPS    HX 1493   2.237   2.036   6.271 -0.6975  0.5469  1.4588
   12SAPS    HY 1494   2.294   2.117   6.409 -0.4279  1.6221 -3.1352
   12SAPS   O31 1495   2.200   1.910   6.431  0.3307 -0.6867 -0.2058
   12SAPS   C31 1496   2.173   1.924   6.563 -1.3218 -0.5091 -0.2122
   12SAPS   O32 1497   2.200   2.030   6.621 -0.5249  0.6420  0.1674
   12SAPS   C32 1498   2.103   1.802   6.612  0.0762  0.1170  0.6451
   12SAPS   H2X 1499   2.165   1.716   6.580 -0.1676  0.3934 -0.5972
   12SAPS   H2Y 1500   2.004   1.790   6.564 -0.1379 -1.2475  1.3651
   12SAPS   C23 1501   2.685   1.949   6.744  0.6185  0.8761 -0.3286
   12SAPS   H3R 1502   2.728   2.046   6.710 -1.8129  2.0671 -0.2094
   12SAPS   H3S 1503   2.745   1.877   6.684 -0.6476  0.3143 -0.9449
   12SAPS   C24 1504   2.706   1.945   6.897  0.5360  0.1450 -0.0504
   12SAPS   H4R 1505   2.666   1.851   6.941 -1.3099  0.2268 -1.4480
   12SAPS   H4S 1506   2.655   2.031   6.946 -0.8647  0.3062 -1.7211
   12SAPS   C25 1507   2.850   1.940   6.924 -0.3944  0.2686 -0.0511
   12SAPS   H5R 1508   2.903   1.852   6.883  0.8675  1.6460 -1.5224
   12SAPS   C26 1509   2.918   2.050   6.978  0.5277  0.7676 -0.1786
   12SAPS   H6R 1510   3.022   2.041   7.013  0.9734 -1.4830 -1.8442
   12SAPS   C27 1511   2.851   2.172   7.038  0.3990 -0.5744 -0.2333
   12SAPS   H7R 1512   2.909   2.196   7.130 -1.7773 -1.8167  1.5548
   12SAPS   H7S 1513   2.747   2.150   7.070  0.0359  1.7272  0.2881
   12SAPS   C28 1514   2.831   2.292   6.946  0.8582  0.5942 -0.6246
   12SAPS   H8R 1515   2.831   2.279   6.837 -0.5795  1.7878 -0.7876
   12SAPS   C29 1516   2.820   2.417   6.992 -0.7821 -0.0028 -0.1941
   12SAPS   H9R 1517   2.797   2.500   6.924  2.5226  2.0505  0.9176
   12SAPS  C210 1518   2.827   2.470   7.130 -0.8276 -0.7252  0.4408
   12SAPS  H10R 1519   2.782   2.401   7.205 -0.8055 -1.1094  0.1060
   12SAPS  H10S 1520   2.765   2.562   7.140  0.9000  0.3383  2.0365
   12SAPS  C211 1521   2.964   2.504   7.180 -0.0459  0.1062 -0.5497
   12SAPS  H11R 1522   3.031   2.417   7.182  0.2414  0.3287 -0.4472
   12SAPS  C212 1523   3.014   2.623   7.218 -0.2779 -0.5053  0.7208
   12SAPS  H12R 1524   3.123   2.623   7.234 -0.2546 -0.5489  0.5614
   12SAPS  C213 1525   2.963   2.766   7.207 -0.8250 -0.2745 -0.3674
   12SAPS  H13R 1526   2.964   2.805   7.311 -0.6221  0.1083 -0.5109
   12SAPS  H13S 1527   2.863   2.780   7.160 -1.6019 -0.6186  1.1417
   12SAPS  C214 1528   3.052   2.836   7.117 -0.2283 -0.7608  0.3352
   12SAPS  H14R 1529   3.017   2.818   7.014 -1.7289 -0.6923  0.8007
   12SAPS  C215 1530   3.147   2.924   7.144  0.2957  0.3883  0.6265
   12SAPS  H15R 1531   3.213   2.955   7.061 -0.2874 -0.1308 -0.0444
   12SAPS  C216 1532   3.180   2.969   7.286 -0.2730  0.1689  0.1614
   12SAPS  H16R 1533   3.266   2.914   7.330  0.1307  0.8240  0.2034
   12SAPS  H16S 1534   3.093   2.957   7.354  1.9833 -1.0230  3.0598
   12SAPS  C217 1535   3.212   3.120   7.301 -0.4724  0.5829  0.9839
   12SAPS  H17R 1536   3.124   3.181   7.270 -0.0529 -0.2509 -2.2893
   12SAPS  H17S 1537   3.286   3.137   7.220 -1.3287  0.7750  0.2173
   12SAPS  C218 1538   3.258   3.171   7.437  0.2628 -0.1730  1.1114
   12SAPS  H18R 1539   3.240   3.280   7.445  2.5178  0.4828 -1.1094
   12SAPS  H18S 1540   3.369   3.161   7.440  0.4061  0.5450 -0.6084
   12SAPS  C219 1541   3.186   3.108   7.558 -0.2357  0.0834  0.8216
   12SAPS  H19R 1542   3.255   3.094   7.644 -0.2398 -1.6837  0.5831
   12SAPS  H19S 1543   3.160   3.002   7.536 -0.0418  0.1782  0.0856
   12SAPS  C220 1544   3.060   3.179   7.607 -0.4483 -0.1337  0.0843
   12SAPS  H20R 1545   3.091   3.280   7.641  0.1789  0.6918 -2.6258
   12SAPS  H20S 1546   3.011   3.122   7.688  0.4136 -1.0147 -0.0036
   12SAPS  H20T 1547   2.991   3.203   7.523  1.0933  0.9452 -0.9394
   12SAPS   C33 1548   2.071   1.795   6.759  0.0283  0.1808 -0.6071
   12SAPS   H3X 1549   1.992   1.718   6.772  1.1322 -0.5180  3.5271
   12SAPS   H3Y 1550   2.042   1.893   6.801  0.4804 -0.8362  2.3277
   12SAPS   C34 1551   2.196   1.749   6.835 -0.6358 -0.0296  0.5334
   12SAPS   H4X 1552   2.285   1.801   6.793 -0.6485 -0.6109 -0.2157
   12SAPS   H4Y 1553   2.202   1.641   6.814 -0.2780  0.2827 -1.0579
   12SAPS   C35 1554   2.199   1.802   6.986  0.1920  0.6200  0.2025
   12SAPS   H5X 1555   2.272   1.751   7.054  1.6691 -1.1795 -2.5346
   12SAPS   H5Y 1556   2.093   1.798   7.018 -0.6165 -1.6503 -2.4114
   12SAPS   C36 1557   2.224   1.949   6.987 -0.3639  0.3640  0.3667
   12SAPS   H6X 1558   2.194   2.003   6.894 -0.0483 -1.4295 -0.8174
   12SAPS   H6Y 1559   2.333   1.968   6.996 -0.3076  0.4169 -0.4003
   12SAPS   C37 1560   2.159   2.033   7.096 -0.2057  0.2806  0.2167
   12SAPS   H7X 1561   2.051   2.011   7.099  0.1036 -1.2415  1.7559
   12SAPS   H7Y 1562   2.177   2.141   7.073  1.1494  0.7433  3.0098
   12SAPS   C38 1563   2.218   2.006   7.235  1.0963 -0.0213  0.0561
   12SAPS   H8X 1564   2.329   2.002   7.230  1.0964  1.0787 -1.4792
   12SAPS   H8Y 1565   2.185   1.907   7.274 -1.4391  1.1730  1.1199
   12SAPS   C39 1566   2.163   2.104   7.342 -0.3302 -0.1475 -0.1922
   12SAPS   H9X 1567   2.054   2.098   7.321 -0.7584  0.1649  1.7924
   12SAPS   H9Y 1568   2.202   2.206   7.319  1.1538 -0.4319  0.9206
   12SAPS  C310 1569   2.200   2.069   7.491  0.0317  0.5922 -0.0184
   12SAPS  H10X 1570   2.311   2.057   7.496  0.0994 -0.4499 -2.6555
   12SAPS  H10Y 1571   2.157   1.973   7.528  0.4083  0.7741  0.9232
   12SAPS  C311 1572   2.148   2.175   7.591 -0.4071 -0.4632 -0.6311
   12SAPS  H11X 1573   2.094   2.119   7.671 -0.7370 -1.5864 -1.6106
   12SAPS  H11Y 1574   2.075   2.233   7.531 -0.0136  1.0406  0.2934
   12SAPS  C312 1575   2.256   2.266   7.645  0.7043  0.4720 -0.0323
   12SAPS  H12X 1576   2.297   2.321   7.558 -1.1809  3.4092  0.7716
   12SAPS  H12Y 1577   2.345   2.219   7.693  0.1470  0.9750  1.5868
   12SAPS  C313 1578   2.198   2.385   7.726 -0.0998 -1.0176  0.5763
   12SAPS  H13X 1579   2.109   2.426   7.674  1.2272  1.0466 -0.1586
   12SAPS  H13Y 1580   2.276   2.463   7.714 -0.7151 -0.6357 -1.3009
   12SAPS  C314 1581   2.173   2.370   7.875  0.3721  0.4401 -0.3224
   12SAPS  H14X 1582   2.099   2.289   7.892 -0.8086  1.6093  0.2870
   12SAPS  H14Y 1583   2.125   2.465   7.906 -2.6396 -1.1750  0.3133
   12SAPS  C315 1584   2.299   2.337   7.958 -0.2759  0.1720 -0.0931
   12SAPS  H15X 1585   2.377   2.410   7.929  0.0463 -0.2945 -0.4038
   12SAPS  H15Y 1586   2.333   2.234   7.934  0.9526  0.4336  0.4625
   12SAPS  C316 1587   2.275   2.334   8.113 -0.5456 -0.4820 -0.3162
   12SAPS  H16X 1588   2.365   2.311   8.174 -0.6107  1.3680  0.5572
   12SAPS  H16Y 1589   2.201   2.256   8.141 -1.9917  1.0041  0.1767
   12SAPS  C317 1590   2.236   2.470   8.173 -0.9451  0.1208  0.6578
   12SAPS  H17X 1591   2.150   2.509   8.113 -0.8844  2.0843  1.7449
   12SAPS  H17Y 1592   2.322   2.540   8.171  0.5452 -1.5002  3.0317
   12SAPS  C318 1593   2.203   2.459   8.318 -0.2032  0.0763 -0.0128
   12SAPS  H18X 1594   2.157   2.551   8.359 -0.4237 -0.4044  0.8521
   12SAPS  H18Y 1595   2.296   2.431   8.373  1.0083 -0.1146 -2.0330
   12SAPS  H18Z 1596   2.137   2.370   8.329  0.4995 -0.6744 -1.5256
   13SAPS     N 1597   0.216   4.759   6.244 -0.9089  0.0223 -0.7122
   13SAPS   HN1 1598   0.296   4.795   6.300 -0.8469  0.8391 -1.2956
   13SAPS   HN2 1599   0.128   4.807   6.273 -0.4707  1.2184 -1.2959
   13SAPS   HN3 1600   0.206   4.659   6.268 -1.4140  0.7631  2.7025
   13SAPS   C12 1601   0.244   4.762   6.096  0.3215 -0.4112  0.0402
   13SAPS  H12A 1602   0.173   4.695   6.049 -0.0359 -1.0281  1.4092
   13SAPS   C13 1603   0.221   4.904   6.032  0.2029 -0.1930  0.1614
   13SAPS  O13A 1604   0.202   5.004   6.107  0.7400 -0.0082 -0.2385
   13SAPS  O13B 1605   0.205   4.903   5.908  0.9244  0.6684 -0.1112
   13SAPS   C11 1606   0.388   4.719   6.068 -0.4621 -0.0218  0.3112
   13SAPS  H11A 1607   0.457   4.786   6.124  0.2182 -0.9308  0.5895
   13SAPS  H11B 1608   0.413   4.731   5.960  2.1099 -1.6092  0.6344
   13SAPS     P 1609   0.545   4.509   6.096  0.1578  0.4993 -0.2166
   13SAPS   O13 1610   0.526   4.389   6.012  0.0145 -0.0674  0.4191
   13SAPS   O14 1611   0.646   4.610   6.052 -0.0109 -0.2651  0.2234
   13SAPS   O12 1612   0.407   4.589   6.118  0.3282 -0.0658 -0.0490
   13SAPS   O11 1613   0.590   4.470   6.247  0.6146  0.4765 -0.2847
   13SAPS    C1 1614   0.497   4.425   6.343 -0.0452 -0.3609  0.2569
   13SAPS    HA 1615   0.442   4.512   6.387  1.5451  0.0102  1.6485
   13SAPS    HB 1616   0.415   4.360   6.305 -1.9572  0.2074  3.0610
   13SAPS    C2 1617   0.580   4.354   6.456 -1.0950 -0.4656 -0.3255
   13SAPS    HS 1618   0.502   4.304   6.517 -0.0168 -2.3934 -0.4275
   13SAPS   O21 1619   0.671   4.444   6.524 -0.1693 -0.2487  0.0510
   13SAPS   C21 1620   0.596   4.517   6.609 -0.9048  0.0243  0.2687
   13SAPS   O22 1621   0.476   4.513   6.626  0.5951 -0.3684 -0.1159
   13SAPS   C22 1622   0.683   4.606   6.692 -1.0743 -0.6415 -0.4051
   13SAPS   H2R 1623   0.781   4.559   6.715 -0.8633 -0.1807 -0.3545
   13SAPS   H2S 1624   0.708   4.689   6.622  0.8788 -0.1815  0.7628
   13SAPS    C3 1625   0.665   4.233   6.401  0.5487  0.5059  0.4937
   13SAPS    HX 1626   0.689   4.262   6.297 -0.1481  0.5433  0.3404
   13SAPS    HY 1627   0.600   4.144   6.388 -0.0101  0.9853 -0.0894
   13SAPS   O31 1628   0.790   4.208   6.469  0.2426 -0.1406 -0.4921
   13SAPS   C31 1629   0.790   4.177   6.596 -0.3970 -0.6387 -0.9967
   13SAPS   O32 1630   0.690   4.149   6.660 -0.0044 -0.3290  0.0880
   13SAPS   C32 1631   0.927   4.154   6.652 -0.0327  0.5170  0.1831
   13SAPS   H2X 1632   0.998   4.140   6.568  0.6631 -1.3262  1.0248
   13SAPS   H2Y 1633   0.932   4.055   6.702  0.1197  0.6544  0.4417
   13SAPS   C23 1634   0.617   4.636   6.830  0.2042 -0.4298 -0.8562
   13SAPS   H3R 1635   0.623   4.550   6.899  0.4390 -0.3095 -0.7281
   13SAPS   H3S 1636   0.508   4.658   6.830  0.5984  2.6045  3.2248
   13SAPS   C24 1637   0.684   4.762   6.898 -0.1934 -0.4958 -0.7580
   13SAPS   H4R 1638   0.611   4.795   6.975 -0.2867 -0.6291 -0.7889
   13SAPS   H4S 1639   0.687   4.842   6.821  0.9887 -0.9460 -1.1996
   13SAPS   C25 1640   0.821   4.733   6.949  0.1553 -0.1898 -0.4746
   13SAPS   H5R 1641   0.908   4.742   6.883  0.3755 -1.3338 -0.3543
   13SAPS   C26 1642   0.844   4.686   7.075 -0.7114  0.0429  0.1084
   13SAPS   H6R 1643   0.944   4.703   7.119 -0.8452 -1.0822  0.8894
   13SAPS   C27 1644   0.743   4.660   7.188 -0.3584 -0.4039  0.2115
   13SAPS   H7R 1645   0.778   4.573   7.246  0.5204  0.5506  1.1538
   13SAPS   H7S 1646   0.642   4.643   7.145 -0.3592  0.3224 -0.0933
   13SAPS   C28 1647   0.724   4.774   7.290  0.0292 -0.1156  0.4778
   13SAPS   H8R 1648   0.774   4.867   7.260  1.7836 -1.4711 -1.0083
   13SAPS   C29 1649   0.657   4.772   7.404  0.0777  0.5008  0.2825
   13SAPS   H9R 1650   0.640   4.868   7.456 -1.1053  0.1907  0.4915
   13SAPS  C210 1651   0.577   4.656   7.460  0.2644 -0.0335 -0.9560
   13SAPS  H10R 1652   0.640   4.614   7.541 -0.1641  1.2750  0.0996
   13SAPS  H10S 1653   0.560   4.582   7.378 -0.3150 -1.3194  0.2862
   13SAPS  C211 1654   0.448   4.698   7.508 -0.3989 -0.2746  0.3011
   13SAPS  H11R 1655   0.374   4.713   7.429 -0.0357  1.5784  0.2589
   13SAPS  C212 1656   0.413   4.725   7.635  0.1382  0.4141  0.2787
   13SAPS  H12R 1657   0.316   4.772   7.655  1.0065  1.5509  2.0308
   13SAPS  C213 1658   0.505   4.710   7.755 -0.3075 -0.3375 -0.4655
   13SAPS  H13R 1659   0.608   4.739   7.726 -0.8016  0.9245 -1.0285
   13SAPS  H13S 1660   0.509   4.602   7.781  1.8783  0.1611  1.5977
   13SAPS  C214 1661   0.459   4.781   7.884  1.0106  1.1561  0.0313
   13SAPS  H14R 1662   0.361   4.754   7.926  0.6352  0.3631 -1.2738
   13SAPS  C215 1663   0.528   4.862   7.958  0.5185 -0.7174  0.6671
   13SAPS  H15R 1664   0.476   4.917   8.038  0.8494 -0.9518  1.0443
   13SAPS  C216 1665   0.665   4.920   7.934  0.7351  0.2186 -0.0395
   13SAPS  H16R 1666   0.707   4.886   7.837 -0.2561  0.3828 -0.5409
   13SAPS  H16S 1667   0.734   4.864   8.000 -0.4466 -0.3556  0.7407
   13SAPS  C217 1668   0.684   5.070   7.968  1.3154 -0.4900 -0.5886
   13SAPS  H17R 1669   0.792   5.093   7.976  1.3346 -0.3804 -1.1466
   13SAPS  H17S 1670   0.626   5.087   8.062  0.9108 -1.9868 -0.5458
   13SAPS  C218 1671   0.622   5.164   7.873 -0.3913 -0.0634  0.3378
   13SAPS  H18R 1672   0.519   5.146   7.835 -1.4567  2.4922  1.7975
   13SAPS  H18S 1673   0.684   5.159   7.781 -1.7317 -0.5971 -0.5778
   13SAPS  C219 1674   0.622   5.312   7.913  0.6938 -0.4424  0.6969
   13SAPS  H19R 1675   0.696   5.333   7.994 -0.9135  1.4468  1.7789
   13SAPS  H19S 1676   0.524   5.323   7.964 -0.0112 -0.0795 -0.7048
   13SAPS  C220 1677   0.619   5.413   7.789  1.0119 -0.2294 -0.4632
   13SAPS  H20R 1678   0.615   5.517   7.827 -1.2661 -0.2773 -0.4162
   13SAPS  H20S 1679   0.535   5.384   7.723 -0.3489 -0.7043  1.3935
   13SAPS  H20T 1680   0.705   5.395   7.722 -1.1321  0.1845 -3.5060
   13SAPS   C33 1681   0.977   4.268   6.751 -1.0179 -0.7761 -0.3362
   13SAPS   H3X 1682   0.967   4.368   6.703  0.4043  0.3982  1.6306
   13SAPS   H3Y 1683   1.086   4.253   6.766 -1.0354 -0.5027  0.0784
   13SAPS   C34 1684   0.916   4.258   6.890  0.1828 -0.0260  0.2390
   13SAPS   H4X 1685   0.900   4.151   6.915  2.7025 -0.4954  0.0541
   13SAPS   H4Y 1686   0.822   4.317   6.880 -0.0563 -0.6690 -1.6189
   13SAPS   C35 1687   0.992   4.326   7.005  0.3279 -0.3763 -0.3192
   13SAPS   H5X 1688   1.005   4.433   6.978  1.5834  0.1069  1.9877
   13SAPS   H5Y 1689   1.096   4.290   7.020  0.0573 -1.2926 -0.5797
   13SAPS   C36 1690   0.911   4.292   7.133 -0.0023  0.2348  0.5033
   13SAPS   H6X 1691   0.920   4.183   7.152 -0.6753  0.2766  1.0701
   13SAPS   H6Y 1692   0.807   4.322   7.108  1.2456  3.4983 -1.5562
   13SAPS   C37 1693   0.967   4.360   7.258 -0.4272 -0.3804 -0.4780
   13SAPS   H7X 1694   0.985   4.468   7.239  0.9707 -0.5169 -0.0756
   13SAPS   H7Y 1695   1.061   4.313   7.296  0.1577  2.2751  1.7080
   13SAPS   C38 1696   0.879   4.322   7.380  0.3318  0.3153  0.3432
   13SAPS   H8X 1697   0.871   4.212   7.392 -0.9807  0.3834  0.2409
   13SAPS   H8Y 1698   0.775   4.356   7.366 -0.5140 -2.1215  0.1899
   13SAPS   C39 1699   0.932   4.390   7.500  0.0540 -0.0286 -0.2183
   13SAPS   H9X 1700   0.923   4.500   7.488 -2.7194 -0.2361 -0.7393
   13SAPS   H9Y 1701   1.035   4.356   7.521  0.1030  0.6284  0.6594
   13SAPS  C310 1702   0.854   4.362   7.631 -0.1599 -0.0742  0.5267
   13SAPS  H10X 1703   0.856   4.251   7.641 -0.5485 -0.2714 -1.2991
   13SAPS  H10Y 1704   0.748   4.394   7.623 -0.5123 -1.4922 -0.8790
   13SAPS  C311 1705   0.908   4.437   7.751  0.1217 -0.2475  0.0425
   13SAPS  H11X 1706   0.882   4.545   7.750  0.3579 -0.1643  1.0984
   13SAPS  H11Y 1707   1.018   4.443   7.766 -0.0195  2.2637  0.6404
   13SAPS  C312 1708   0.839   4.388   7.879  0.1976  0.2102  0.3131
   13SAPS  H12X 1709   0.889   4.296   7.917 -0.3619  0.4265  1.6232
   13SAPS  H12Y 1710   0.732   4.383   7.852  0.5931  0.5368 -1.4462
   13SAPS  C313 1711   0.861   4.481   8.002  0.2834 -0.3277  0.6308
   13SAPS  H13X 1712   0.808   4.577   7.986 -2.4864 -1.7789  0.4648
   13SAPS  H13Y 1713   0.970   4.499   7.990 -0.0319  0.7199 -0.8807
   13SAPS  C314 1714   0.819   4.427   8.135  0.2385 -0.1485 -0.3981
   13SAPS  H14X 1715   0.866   4.482   8.220  3.2087 -0.1687 -1.9011
   13SAPS  H14Y 1716   0.877   4.332   8.134  1.4029  0.5253 -1.9960
   13SAPS  C315 1717   0.671   4.398   8.161 -0.5216 -1.0534  0.3038
   13SAPS  H15X 1718   0.665   4.337   8.253 -0.4188 -3.6269 -1.3061
   13SAPS  H15Y 1719   0.632   4.344   8.072  2.4455 -3.2639  0.2322
   13SAPS  C316 1720   0.591   4.532   8.180  0.7594 -0.1667  0.7817
   13SAPS  H16X 1721   0.602   4.580   8.080 -1.5253  1.0836  1.0661
   13SAPS  H16Y 1722   0.646   4.599   8.249  1.6092 -1.9712  1.9306
   13SAPS  C317 1723   0.444   4.513   8.232 -0.6191  0.5474 -0.5238
   13SAPS  H17X 1724   0.406   4.604   8.284 -0.3230  0.1171  0.4620
   13SAPS  H17Y 1725   0.457   4.442   8.316  3.5432  2.6103  0.8284
   13SAPS  C318 1726   0.356   4.451   8.126 -0.7949 -0.1918 -0.1261
   13SAPS  H18X 1727   0.387   4.349   8.097 -0.8080  0.0327 -0.9846
   13SAPS  H18Y 1728   0.358   4.514   8.034 -2.0614  0.9335  0.5663
   13SAPS  H18Z 1729   0.248   4.456   8.151 -0.6787 -1.3968  0.6595
   14SAPS     N 1730   3.147   1.353   5.993 -0.3277  0.3694 -0.4887
   14SAPS   HN1 1731   3.073   1.416   6.031 -0.7349  0.2824 -1.1138
   14SAPS   HN2 1732   3.098   1.272   5.949 -0.9507  0.0965  0.6704
   14SAPS   HN3 1733   3.190   1.315   6.079  0.7980  1.3526 -0.6032
   14SAPS   C12 1734   3.224   1.441   5.891 -0.1421  0.2444  0.1680
   14SAPS  H12A 1735   3.157   1.442   5.807  1.0697 -0.9437 -0.8567
   14SAPS   C13 1736   3.247   1.588   5.936  0.3169  0.0989 -0.5086
   14SAPS  O13A 1737   3.200   1.618   6.050 -0.4226 -0.5688  0.9922
   14SAPS  O13B 1738   3.304   1.677   5.864  0.0721 -0.6771 -0.1853
   14SAPS   C11 1739   3.354   1.366   5.863 -0.2929  0.0581 -0.3094
   14SAPS  H11A 1740   3.392   1.350   5.966 -1.3993 -0.2357  0.0596
   14SAPS  H11B 1741   3.427   1.429   5.807  0.8611  0.5537  1.6352
   14SAPS     P 1742   3.387   1.118   5.841  0.2795  0.0240 -0.3576
   14SAPS   O13 1743   3.358   1.012   5.744  0.1060  0.3191  0.0327
   14SAPS   O14 1744   3.527   1.145   5.886  0.3631  0.1936 -0.5406
   14SAPS   O12 1745   3.332   1.249   5.795  0.4037  0.1489 -0.1428
   14SAPS   O11 1746   3.291   1.094   5.970 -0.1027  0.1113 -0.5911
   14SAPS    C1 1747   3.186   0.997   5.959 -0.0679  0.3242  0.3590
   14SAPS    HA 1748   3.122   1.019   5.870 -0.0409  1.3687  0.5873
   14SAPS    HB 1749   3.227   0.894   5.948 -1.0479 -0.0266 -0.2387
   14SAPS    C2 1750   3.111   0.988   6.097 -0.0788  0.0223  0.3325
   14SAPS    HS 1751   3.040   0.904   6.079 -0.5535  0.5920 -0.4993
   14SAPS   O21 1752   3.036   1.110   6.118  0.6996  0.4836  0.0917
   14SAPS   C21 1753   2.914   1.086   6.177 -0.1079  0.3647  0.1891
   14SAPS   O22 1754   2.861   0.979   6.204  0.2672  0.3253 -0.2525
   14SAPS   C22 1755   2.850   1.221   6.199  0.3409  0.2383  0.3640
   14SAPS   H2R 1756   2.929   1.295   6.224  0.6828  0.4476 -1.2569
   14SAPS   H2S 1757   2.806   1.245   6.100  1.7458 -0.4433 -0.4526
   14SAPS    C3 1758   3.202   0.953   6.218  0.6918  0.5771 -0.8514
   14SAPS    HX 1759   3.258   1.045   6.246  2.8380 -1.0142  0.4519
   14SAPS    HY 1760   3.278   0.880   6.183 -1.0624 -0.7504 -2.0390
   14SAPS   O31 1761   3.122   0.904   6.329 -0.4609 -0.6777 -0.0144
   14SAPS   C31 1762   3.083   0.780   6.327 -0.2503  1.1664 -0.0559
   14SAPS   O32 1763   3.108   0.686   6.253  0.2891 -0.0056  0.4317
   14SAPS   C32 1764   2.985   0.760   6.444  0.2550 -0.1068 -0.0942
   14SAPS   H2X 1765   2.993   0.656   6.484 -1.3835  0.5433  2.0780
   14SAPS   H2Y 1766   2.882   0.774   6.406 -0.5932  0.7418  2.3979
   14SAPS   C23 1767   2.748   1.232   6.320 -0.0008  0.2459 -0.4993
   14SAPS   H3R 1768   2.658   1.182   6.279 -0.8250  1.8750 -0.7549
   14SAPS   H3S 1769   2.708   1.336   6.321 -2.2582 -0.5574 -1.6763
   14SAPS   C24 1770   2.786   1.170   6.456  0.0793 -0.4505 -0.1941
   14SAPS   H4R 1771   2.780   1.060   6.444 -1.0431 -0.3334 -0.8231
   14SAPS   H4S 1772   2.699   1.190   6.521 -0.1652  0.7328 -0.8528
   14SAPS   C25 1773   2.919   1.218   6.510  0.7773  0.5126  1.3696
   14SAPS   H5R 1774   3.007   1.192   6.450  0.0635  0.5440  0.2922
   14SAPS   C26 1775   2.939   1.285   6.623 -0.1163 -0.0552 -0.2152
   14SAPS   H6R 1776   3.045   1.292   6.651 -0.7329  0.7853  2.1136
   14SAPS   C27 1777   2.830   1.321   6.726 -0.2999 -0.1994 -0.0862
   14SAPS   H7R 1778   2.886   1.336   6.821  1.5985 -3.1478 -0.6057
   14SAPS   H7S 1779   2.769   1.232   6.749  2.6170 -1.9825  1.3718
   14SAPS   C28 1780   2.747   1.439   6.693  0.2947  0.5088 -0.4250
   14SAPS   H8R 1781   2.718   1.439   6.587 -2.6957 -1.0399  0.2608
   14SAPS   C29 1782   2.698   1.540   6.763 -0.2810  0.8037  0.1715
   14SAPS   H9R 1783   2.640   1.618   6.710  1.7041  0.7636 -2.2885
   14SAPS  C210 1784   2.730   1.545   6.911 -0.9539  0.1072  0.3764
   14SAPS  H10R 1785   2.802   1.628   6.927 -2.3108  1.6689 -1.1012
   14SAPS  H10S 1786   2.786   1.455   6.942  1.0995  0.7558 -1.2251
   14SAPS  C211 1787   2.617   1.569   7.008  0.1942  0.2922 -0.2056
   14SAPS  H11R 1788   2.519   1.538   6.968  0.6338 -0.3208 -0.8442
   14SAPS  C212 1789   2.624   1.618   7.129 -0.5158 -0.2286  0.5510
   14SAPS  H12R 1790   2.531   1.619   7.187 -0.4564  2.6622  0.7131
   14SAPS  C213 1791   2.755   1.656   7.193  0.6044  0.0461 -0.0646
   14SAPS  H13R 1792   2.795   1.744   7.138  4.1026  0.5255  2.8049
   14SAPS  H13S 1793   2.835   1.582   7.175  1.7936  1.2715  0.0238
   14SAPS  C214 1794   2.781   1.687   7.343  0.1372  0.2228  0.6689
   14SAPS  H14R 1795   2.864   1.626   7.382 -0.4681 -1.7494 -0.9596
   14SAPS  C215 1796   2.703   1.752   7.433  0.2834 -0.3346  0.1501
   14SAPS  H15R 1797   2.748   1.766   7.533  1.1694  0.5074 -0.3465
   14SAPS  C216 1798   2.574   1.824   7.409 -0.3109 -0.2294 -0.3732
   14SAPS  H16R 1799   2.495   1.783   7.476  1.2329 -2.3511  0.2599
   14SAPS  H16S 1800   2.528   1.802   7.310 -1.4793 -1.3375  0.3889
   14SAPS  C217 1801   2.571   1.979   7.418 -0.0911  0.1213  0.4065
   14SAPS  H17R 1802   2.473   2.022   7.387  0.7336  1.6531 -0.2318
   14SAPS  H17S 1803   2.644   2.017   7.343 -0.5612  1.2312  0.4795
   14SAPS  C218 1804   2.611   2.044   7.551  0.3584  0.6366  0.4123
   14SAPS  H18R 1805   2.596   2.153   7.539 -1.4445  0.3474 -0.2632
   14SAPS  H18S 1806   2.721   2.030   7.560  0.3624  0.2714 -0.1692
   14SAPS  C219 1807   2.546   1.983   7.673  0.2712 -0.5615  0.0979
   14SAPS  H19R 1808   2.568   1.874   7.676 -4.0064 -1.6137  0.0791
   14SAPS  H19S 1809   2.435   1.988   7.668  0.2171 -2.0640 -0.8382
   14SAPS  C220 1810   2.593   2.046   7.808  0.5113  0.5107  0.1900
   14SAPS  H20R 1811   2.554   2.148   7.823  0.9465  0.6200  0.5764
   14SAPS  H20S 1812   2.702   2.060   7.818  0.4246  1.5178 -0.1665
   14SAPS  H20T 1813   2.554   1.983   7.891  1.5232 -0.2745  0.0877
   14SAPS   C33 1814   3.008   0.858   6.564 -0.7097 -0.4803  0.4531
   14SAPS   H3X 1815   2.997   0.966   6.543  1.5222 -0.2253  0.4025
   14SAPS   H3Y 1816   3.117   0.848   6.581 -1.0434 -0.8537  2.5939
   14SAPS   C34 1817   2.943   0.810   6.695  0.0260 -0.0576  0.3883
   14SAPS   H4X 1818   2.834   0.825   6.680 -0.1386 -2.5284 -1.5818
   14SAPS   H4Y 1819   2.993   0.879   6.766 -0.3788  1.0869 -0.4063
   14SAPS   C35 1820   2.977   0.668   6.744 -0.3509  0.6144 -0.3112
   14SAPS   H5X 1821   3.085   0.643   6.743 -0.4654  0.1251 -0.8706
   14SAPS   H5Y 1822   2.932   0.591   6.677 -0.3320 -0.4368  0.8445
   14SAPS   C36 1823   2.913   0.639   6.884 -0.2803  0.0933  0.0100
   14SAPS   H6X 1824   2.948   0.536   6.908  1.7130 -0.2331 -3.4977
   14SAPS   H6Y 1825   2.804   0.648   6.866 -0.0242 -0.6072 -2.2922
   14SAPS   C37 1826   2.963   0.731   6.999  0.5117  0.3406 -0.5301
   14SAPS   H7X 1827   2.909   0.828   6.991 -1.1879 -0.4102  0.9946
   14SAPS   H7Y 1828   3.073   0.732   6.985  0.8789 -3.1822  1.1189
   14SAPS   C38 1829   2.929   0.676   7.141 -0.0071 -0.4080 -0.0661
   14SAPS   H8X 1830   2.955   0.759   7.211  2.8237 -0.7520 -0.5856
   14SAPS   H8Y 1831   2.993   0.588   7.162 -1.3255 -0.8384  2.4572
   14SAPS   C39 1832   2.779   0.624   7.156 -0.6610 -0.3341  0.1474
   14SAPS   H9X 1833   2.747   0.581   7.059 -2.0715  2.9763 -1.0220
   14SAPS   H9Y 1834   2.713   0.710   7.181 -2.0528 -2.0254  2.8223
   14SAPS  C310 1835   2.756   0.518   7.263  0.3447 -0.1476  0.3769
   14SAPS  H10X 1836   2.834   0.441   7.249 -0.7162 -1.4084  1.2240
   14SAPS  H10Y 1837   2.649   0.495   7.243  0.6234 -0.5642 -0.7051
   14SAPS  C311 1838   2.781   0.579   7.399 -0.0152 -0.1708 -0.2270
   14SAPS  H11X 1839   2.727   0.675   7.410  0.2410 -0.1267  0.7632
   14SAPS  H11Y 1840   2.888   0.609   7.400 -0.6157  2.2621 -1.6673
   14SAPS  C312 1841   2.754   0.482   7.513 -1.0031 -0.6389  0.2718
   14SAPS  H12X 1842   2.810   0.386   7.505 -0.2882 -0.2996  0.9455
   14SAPS  H12Y 1843   2.646   0.459   7.517 -1.2230 -0.7334 -3.3063
   14SAPS  C313 1844   2.814   0.541   7.643 -0.2331  0.2159 -0.1017
   14SAPS  H13X 1845   2.757   0.636   7.650  0.8191  0.9694 -1.4172
   14SAPS  H13Y 1846   2.923   0.562   7.636 -0.1534  0.0494  0.5609
   14SAPS  C314 1847   2.800   0.455   7.773 -0.7060  0.7845 -0.7123
   14SAPS  H14X 1848   2.870   0.369   7.774  1.1318  2.2301 -0.5186
   14SAPS  H14Y 1849   2.697   0.414   7.782 -0.3728 -0.0939 -0.7649
   14SAPS  C315 1850   2.845   0.539   7.896 -0.1187  0.4038  0.1597
   14SAPS  H15X 1851   2.804   0.642   7.902 -0.8928  0.0269  2.6256
   14SAPS  H15Y 1852   2.955   0.544   7.879 -0.2417  0.8692 -0.5328
   14SAPS  C316 1853   2.814   0.481   8.035 -0.0030  0.5744  0.0949
   14SAPS  H16X 1854   2.869   0.386   8.046 -0.2472  0.5731  1.3956
   14SAPS  H16Y 1855   2.705   0.458   8.033  0.0820  0.1616 -1.4827
   14SAPS  C317 1856   2.862   0.576   8.149 -0.0930  0.4721 -0.0831
   14SAPS  H17X 1857   2.972   0.567   8.163 -0.3615 -2.2574  0.7267
   14SAPS  H17Y 1858   2.828   0.520   8.239  1.2127  2.0364  1.4633
   14SAPS  C318 1859   2.814   0.726   8.143  0.5457  0.3318 -0.0877
   14SAPS  H18X 1860   2.708   0.720   8.177  0.3991  0.0756 -0.5806
   14SAPS  H18Y 1861   2.814   0.774   8.043  0.5229  2.1341  0.7383
   14SAPS  H18Z 1862   2.871   0.801   8.202  1.6928  0.3671 -1.2215
   15SAPS     N 1863   1.552   6.311   5.813 -0.5339  0.5749 -0.3077
   15SAPS   HN1 1864   1.576   6.247   5.735  0.1214  0.4943 -0.0524
   15SAPS   HN2 1865   1.619   6.386   5.789  0.7797 -0.7015 -0.8052
   15SAPS   HN3 1866   1.574   6.275   5.909  0.9420  0.5682 -0.6185
   15SAPS   C12 1867   1.417   6.354   5.792  0.3602  0.1154 -0.2698
   15SAPS  H12A 1868   1.390   6.427   5.866 -1.1875 -1.9708  1.3643
   15SAPS   C13 1869   1.389   6.410   5.651 -0.1510 -0.6832  0.4294
   15SAPS  O13A 1870   1.483   6.421   5.561  0.1379 -0.6539  0.5195
   15SAPS  O13B 1871   1.273   6.453   5.626  0.1492  0.6013  0.5147
   15SAPS   C11 1872   1.319   6.236   5.819 -0.9346 -0.4060  0.0295
   15SAPS  H11A 1873   1.328   6.154   5.745 -2.3221 -0.8970  0.3810
   15SAPS  H11B 1874   1.216   6.276   5.822 -1.1804 -0.9122 -1.0320
   15SAPS     P 1875   1.267   6.104   6.044 -0.0826 -0.2268  0.0163
   15SAPS   O13 1876   1.212   5.984   5.977  0.5640  0.2580  0.6701
   15SAPS   O14 1877   1.353   6.087   6.165 -0.9598 -0.4205 -0.2066
   15SAPS   O12 1878   1.354   6.188   5.944  0.1802 -0.1779  0.0510
   15SAPS   O11 1879   1.151   6.205   6.079 -0.3539 -0.1818  0.1772
   15SAPS    C1 1880   1.179   6.340   6.121  0.2104  0.2650 -0.4869
   15SAPS    HA 1881   1.263   6.398   6.077 -0.8541  0.6446 -2.1113
   15SAPS    HB 1882   1.093   6.404   6.094 -1.3857 -0.6425  2.0767
   15SAPS    C2 1883   1.189   6.339   6.281 -0.1568  0.0755  0.3577
   15SAPS    HS 1884   1.286   6.295   6.311 -0.2161  0.4158  1.0770
   15SAPS   O21 1885   1.072   6.278   6.344  0.2669  0.0956  0.0198
   15SAPS   C21 1886   1.107   6.191   6.449  0.0513 -0.2212  0.2344
   15SAPS   O22 1887   1.224   6.168   6.476  0.2304 -0.4762 -0.1897
   15SAPS   C22 1888   0.979   6.152   6.530  0.0958  0.4159 -0.2648
   15SAPS   H2R 1889   0.912   6.240   6.544 -2.8077 -1.2933 -2.2162
   15SAPS   H2S 1890   0.914   6.085   6.469 -0.4923  1.8227 -1.2374
   15SAPS    C3 1891   1.204   6.493   6.324  0.4931 -0.2345  0.0838
   15SAPS    HX 1892   1.105   6.544   6.316  1.9512  2.4993 -2.2431
   15SAPS    HY 1893   1.268   6.551   6.255 -1.6759  0.4342 -1.4537
   15SAPS   O31 1894   1.249   6.505   6.456 -0.2310 -0.0003 -0.1493
   15SAPS   C31 1895   1.379   6.488   6.482  0.1885 -0.8014  0.5978
   15SAPS   O32 1896   1.462   6.466   6.400 -0.0627  0.5778 -0.2931
   15SAPS   C32 1897   1.407   6.504   6.624 -0.2207 -0.5851  0.5896
   15SAPS   H2X 1898   1.366   6.406   6.658  1.8522 -1.3274  1.0924
   15SAPS   H2Y 1899   1.334   6.581   6.657  0.4960  0.0302  0.7718
   15SAPS   C23 1900   0.998   6.079   6.672  1.0307 -0.4623 -0.6726
   15SAPS   H3R 1901   1.097   6.028   6.671  0.9243 -0.6644 -0.9617
   15SAPS   H3S 1902   0.912   6.010   6.683 -0.2218  1.0229 -0.7667
   15SAPS   C24 1903   0.981   6.184   6.777 -0.3627 -0.3910 -0.2021
   15SAPS   H4R 1904   0.970   6.133   6.876 -0.7083  1.3882  0.7228
   15SAPS   H4S 1905   0.889   6.245   6.762  0.8587  1.0461 -2.3893
   15SAPS   C25 1906   1.085   6.293   6.796  0.1797 -0.1250 -0.4512
   15SAPS   H5R 1907   1.172   6.284   6.729 -0.3214 -0.1847 -1.1022
   15SAPS   C26 1908   1.084   6.384   6.897  0.1213  0.0690  0.0051
   15SAPS   H6R 1909   1.161   6.463   6.899 -0.1848  0.4353 -1.3428
   15SAPS   C27 1910   0.978   6.386   6.999 -0.0221  0.1409 -0.2362
   15SAPS   H7R 1911   0.882   6.351   6.956  0.6366 -1.6622 -0.3236
   15SAPS   H7S 1912   0.957   6.494   7.017 -0.0256  0.7422 -3.2600
   15SAPS   C28 1913   1.011   6.302   7.123 -0.1389 -0.4698 -0.3158
   15SAPS   H8R 1914   0.994   6.194   7.109 -5.1750 -0.4816  2.9917
   15SAPS   C29 1915   1.045   6.345   7.246 -0.4744  0.5528  0.2210
   15SAPS   H9R 1916   1.077   6.269   7.319  0.7584  1.7893  1.0407
   15SAPS  C210 1917   1.068   6.489   7.289 -0.2113 -0.7765  0.5338
   15SAPS  H10R 1918   0.997   6.533   7.361 -2.3653  0.0875 -1.9490
   15SAPS  H10S 1919   1.050   6.552   7.199 -2.1789 -0.7262  0.9112
   15SAPS  C211 1920   1.205   6.529   7.333  0.0768 -0.3718  0.5955
   15SAPS  H11R 1921   1.291   6.522   7.264 -0.7526 -2.0107 -0.3334
   15SAPS  C212 1922   1.245   6.579   7.453 -0.5646  0.3003  0.4058
   15SAPS  H12R 1923   1.354   6.588   7.457 -0.3410 -1.3706 -0.7713
   15SAPS  C213 1924   1.161   6.626   7.572 -0.2597 -0.0848  0.1569
   15SAPS  H13R 1925   1.088   6.545   7.593 -2.3786  1.1691 -1.8370
   15SAPS  H13S 1926   1.107   6.717   7.539  0.4533 -0.1235 -1.2094
   15SAPS  C214 1927   1.224   6.673   7.699  0.5747  0.0159 -0.6319
   15SAPS  H14R 1928   1.190   6.624   7.792  1.5636 -2.5829 -1.5604
   15SAPS  C215 1929   1.303   6.778   7.709 -0.5951  0.1228 -0.0081
   15SAPS  H15R 1930   1.334   6.818   7.807 -0.1036  2.5067 -1.0682
   15SAPS  C216 1931   1.348   6.878   7.603  0.2827 -0.2846 -0.6045
   15SAPS  H16R 1932   1.288   6.866   7.510 -0.3837 -0.3893 -0.1727
   15SAPS  H16S 1933   1.453   6.854   7.577 -0.2565 -2.7846 -0.6624
   15SAPS  C217 1934   1.337   7.020   7.643 -0.5373 -0.3670  0.1680
   15SAPS  H17R 1935   1.344   7.068   7.543  0.6986 -1.2914 -0.2147
   15SAPS  H17S 1936   1.426   7.062   7.694 -1.8324  3.9062 -0.7137
   15SAPS  C218 1937   1.201   7.068   7.707  0.4662 -0.1859  0.1451
   15SAPS  H18R 1938   1.190   7.034   7.812  0.5248  0.8031  0.4864
   15SAPS  H18S 1939   1.126   7.022   7.640  0.1593  0.4030  0.0790
   15SAPS  C219 1940   1.172   7.212   7.691  0.5100 -0.4827  0.0097
   15SAPS  H19R 1941   1.236   7.276   7.756 -0.4537 -1.2562  1.7911
   15SAPS  H19S 1942   1.069   7.218   7.733 -0.0901 -0.7733 -1.3659
   15SAPS  C220 1943   1.166   7.266   7.543  0.7517  0.5887  0.2009
   15SAPS  H20R 1944   1.109   7.199   7.474  2.2152 -0.1674 -0.3120
   15SAPS  H20S 1945   1.268   7.289   7.506  0.6915  2.7517  1.2073
   15SAPS  H20T 1946   1.108   7.360   7.549 -1.2512 -0.6472  1.4313
   15SAPS   C33 1947   1.552   6.525   6.678 -0.0489  0.4027 -1.1972
   15SAPS   H3X 1948   1.600   6.608   6.623  0.5132  1.2301  0.4630
   15SAPS   H3Y 1949   1.611   6.432   6.661  0.0703  0.2948 -0.2644
   15SAPS   C34 1950   1.549   6.546   6.827  0.5789  0.0441 -0.0634
   15SAPS   H4X 1951   1.499   6.456   6.870 -0.5179  0.9980  0.7313
   15SAPS   H4Y 1952   1.491   6.637   6.856 -0.1267 -0.6689  0.8283
   15SAPS   C35 1953   1.689   6.556   6.898 -0.1722 -0.1550 -0.2645
   15SAPS   H5X 1954   1.742   6.458   6.891 -2.4774 -1.3695 -1.8067
   15SAPS   H5Y 1955   1.681   6.579   7.007  1.0977  1.7059 -0.5219
   15SAPS   C36 1956   1.785   6.665   6.832  0.5913  0.3218 -0.3979
   15SAPS   H6X 1957   1.752   6.771   6.839 -0.4075 -0.0103 -0.0415
   15SAPS   H6Y 1958   1.795   6.649   6.722  0.5752 -0.1883 -0.3268
   15SAPS   C37 1959   1.926   6.669   6.892  0.3225 -0.0252  0.0320
   15SAPS   H7X 1960   1.979   6.762   6.863 -0.5372  0.5363  0.2292
   15SAPS   H7Y 1961   1.983   6.594   6.833 -0.1471  0.7013 -1.3893
   15SAPS   C38 1962   1.941   6.643   7.042  0.3521  0.3542 -0.0696
   15SAPS   H8X 1963   1.885   6.553   7.073 -0.3889  0.8596  0.0787
   15SAPS   H8Y 1964   1.888   6.723   7.097  0.8662 -0.5583  1.8248
   15SAPS   C39 1965   2.085   6.618   7.079  0.5171  0.1939  0.1389
   15SAPS   H9X 1966   2.148   6.706   7.052 -0.4244  0.3476 -1.7253
   15SAPS   H9Y 1967   2.122   6.532   7.019  2.4813  0.9849  0.1414
   15SAPS  C310 1968   2.120   6.582   7.231 -0.6854 -0.3833  0.5887
   15SAPS  H10X 1969   2.225   6.617   7.244 -0.4097 -0.7822 -0.4376
   15SAPS  H10Y 1970   2.110   6.476   7.264 -2.5578 -0.1410  0.8625
   15SAPS  C311 1971   2.037   6.655   7.334 -0.1946 -0.2209  0.3915
   15SAPS  H11X 1972   1.938   6.606   7.347 -0.1929 -1.6456 -3.5818
   15SAPS  H11Y 1973   2.027   6.758   7.294 -0.4191  0.1730  1.4301
   15SAPS  C312 1974   2.099   6.667   7.477  0.3813  0.2038 -0.2349
   15SAPS  H12X 1975   2.125   6.567   7.518 -0.4396  0.0914  0.0334
   15SAPS  H12Y 1976   2.010   6.694   7.538 -0.5813 -1.3675 -0.8924
   15SAPS  C313 1977   2.186   6.786   7.498  0.6684  0.0807  0.1497
   15SAPS  H13X 1978   2.124   6.878   7.496 -0.3747 -0.6034  0.0586
   15SAPS  H13Y 1979   2.253   6.796   7.410 -0.7611  0.4731 -0.9337
   15SAPS  C314 1980   2.266   6.797   7.625  0.2957 -0.4527  0.7521
   15SAPS  H14X 1981   2.324   6.892   7.616 -0.3617 -0.2274 -1.6934
   15SAPS  H14Y 1982   2.340   6.716   7.643 -0.3229 -0.8273  1.6776
   15SAPS  C315 1983   2.172   6.797   7.745 -0.4903  0.9563  0.0963
   15SAPS  H15X 1984   2.136   6.693   7.752  0.9228  0.4520  0.1655
   15SAPS  H15Y 1985   2.083   6.858   7.716  0.1749  1.2307 -1.4576
   15SAPS  C316 1986   2.234   6.844   7.869 -0.0917 -0.1969  0.1173
   15SAPS  H16X 1987   2.284   6.943   7.859 -0.7712  0.0750 -0.6745
   15SAPS  H16Y 1988   2.314   6.777   7.907 -0.4425  1.0682  3.3735
   15SAPS  C317 1989   2.125   6.871   7.976 -0.2858  0.0233  0.1664
   15SAPS  H17X 1990   2.035   6.917   7.930  0.7503 -0.0273 -2.0814
   15SAPS  H17Y 1991   2.176   6.947   8.038 -0.7718 -0.5277  1.2614
   15SAPS  C318 1992   2.088   6.767   8.076 -0.1325 -0.4750  0.0513
   15SAPS  H18X 1993   2.134   6.668   8.057  1.2313  0.3269 -1.0935
   15SAPS  H18Y 1994   1.978   6.755   8.076 -0.2401  0.4356  0.4000
   15SAPS  H18Z 1995   2.123   6.803   8.175  1.8253  0.0263 -0.7657
   16SAPS     N 1996   3.154   2.233   6.197 -0.6393  0.3134 -0.6877
   16SAPS   HN1 1997   3.206   2.194   6.115 -1.7650 -0.0447 -1.2507
   16SAPS   HN2 1998   3.053   2.231   6.175 -0.6087  1.6192 -1.0139
   16SAPS   HN3 1999   3.192   2.325   6.225 -0.8669  0.5500 -1.1555
   16SAPS   C12 2000   3.174   2.141   6.312 -0.0871  0.0685  0.2505
   16SAPS  H12A 2001   3.082   2.160   6.366  0.1792 -0.4956  0.9138
   16SAPS   C13 2002   3.175   1.993   6.282  0.7784  0.1246  0.6742
   16SAPS  O13A 2003   3.146   1.944   6.170 -0.0226 -0.1322 -0.5622
   16SAPS  O13B 2004   3.209   1.914   6.374 -0.0851 -0.0977  0.4732
   16SAPS   C11 2005   3.308   2.174   6.379 -0.1997 -0.8379  0.0797
   16SAPS  H11A 2006   3.396   2.143   6.319 -1.3799  0.3376 -2.4023
   16SAPS  H11B 2007   3.313   2.118   6.474  0.4745 -1.8292 -0.5257
   16SAPS     P 2008   3.337   2.399   6.517 -0.0982 -0.0295  0.1684
   16SAPS   O13 2009   3.452   2.349   6.592 -0.7722  0.0401 -0.0724
   16SAPS   O14 2010   3.340   2.543   6.475 -0.1191 -0.5917 -0.1127
   16SAPS   O12 2011   3.318   2.320   6.381  0.2421 -0.6465 -0.1602
   16SAPS   O11 2012   3.203   2.364   6.591  0.2796  0.0821 -0.0084
   16SAPS    C1 2013   3.184   2.430   6.720  0.0869  0.1665 -0.5373
   16SAPS    HA 2014   3.198   2.540   6.718  1.5003 -0.0128 -2.8528
   16SAPS    HB 2015   3.076   2.423   6.745  0.2775 -0.6138  0.1149
   16SAPS    C2 2016   3.268   2.372   6.840 -0.3166 -0.1638  0.1763
   16SAPS    HS 2017   3.370   2.415   6.836 -0.7953  1.0990  0.9541
   16SAPS   O21 2018   3.268   2.235   6.829 -0.2353 -0.4784  0.2852
   16SAPS   C21 2019   3.383   2.173   6.846 -0.7324  0.3544  0.0488
   16SAPS   O22 2020   3.494   2.226   6.871  0.3700 -0.5647 -0.2712
   16SAPS   C22 2021   3.358   2.025   6.860 -0.1513  0.3375  0.0382
   16SAPS   H2R 2022   3.249   2.005   6.846 -0.5887  0.9961  2.1751
   16SAPS   H2S 2023   3.408   1.986   6.768  2.5052  1.1374  1.0549
   16SAPS    C3 2024   3.216   2.405   6.976  0.4621 -0.3990 -0.1977
   16SAPS    HX 2025   3.115   2.359   6.986  0.3853 -0.0571  0.7167
   16SAPS    HY 2026   3.215   2.517   6.979 -0.8679 -0.2860 -2.4844
   16SAPS   O31 2027   3.290   2.350   7.088 -0.0873  0.3377  0.3125
   16SAPS   C31 2028   3.411   2.407   7.121  0.6555 -0.6940  0.3648
   16SAPS   O32 2029   3.474   2.488   7.054  0.3612 -0.1486  0.1517
   16SAPS   C32 2030   3.460   2.340   7.245 -0.2226  1.5547 -0.0524
   16SAPS   H2X 2031   3.428   2.237   7.220  2.0796  1.2070 -1.8835
   16SAPS   H2Y 2032   3.404   2.373   7.335 -1.4194 -0.2569 -0.0679
   16SAPS   C23 2033   3.431   1.947   6.966  0.2162 -0.2699  0.2151
   16SAPS   H3R 2034   3.539   1.971   6.977  0.3092 -0.7957  0.4985
   16SAPS   H3S 2035   3.432   1.848   6.915  2.1585  1.6892 -4.0688
   16SAPS   C24 2036   3.351   1.928   7.097  0.1726  0.1718  0.4662
   16SAPS   H4R 2037   3.337   2.029   7.141  1.1498  0.1530  0.8420
   16SAPS   H4S 2038   3.414   1.869   7.168  0.8410  0.7875  0.3948
   16SAPS   C25 2039   3.224   1.854   7.080  0.2728  0.0443  0.3998
   16SAPS   H5R 2040   3.197   1.819   6.979 -0.2192  1.7753 -0.1113
   16SAPS   C26 2041   3.134   1.835   7.176  0.5046 -0.0224 -0.6195
   16SAPS   H6R 2042   3.030   1.811   7.150 -0.8580  2.2564  2.2420
   16SAPS   C27 2043   3.140   1.863   7.327  0.2258  0.4196  0.1862
   16SAPS   H7R 2044   3.222   1.803   7.372  0.7069  1.2925  0.5063
   16SAPS   H7S 2045   3.039   1.845   7.370  0.1680 -0.1173 -0.1746
   16SAPS   C28 2046   3.169   2.006   7.372 -0.1450  0.3863  0.0899
   16SAPS   H8R 2047   3.156   2.078   7.289  3.0232 -1.5493 -2.3203
   16SAPS   C29 2048   3.194   2.037   7.498  0.3516  0.5738  0.0134
   16SAPS   H9R 2049   3.214   2.143   7.522  1.7368  0.3906 -0.2695
   16SAPS  C210 2050   3.193   1.944   7.623  0.4671  0.2485  0.8417
   16SAPS  H10R 2051   3.243   1.847   7.598  1.6217  1.3067 -1.2166
   16SAPS  H10S 2052   3.089   1.928   7.659  0.2277 -1.1185 -0.3539
   16SAPS  C211 2053   3.272   2.010   7.725 -0.0409 -0.4821  0.2168
   16SAPS  H11R 2054   3.346   2.087   7.701 -0.2777  1.2045  4.1249
   16SAPS  C212 2055   3.282   1.962   7.851  0.2189  0.6546 -0.4389
   16SAPS  H12R 2056   3.336   2.021   7.927 -1.0269  1.0091  0.2145
   16SAPS  C213 2057   3.202   1.845   7.903  0.0978  0.7012  0.2411
   16SAPS  H13R 2058   3.224   1.752   7.846 -1.1764  0.8140 -0.4844
   16SAPS  H13S 2059   3.094   1.869   7.888  0.0631  0.7613  0.5842
   16SAPS  C214 2060   3.219   1.818   8.050  0.0871 -1.1745 -0.8848
   16SAPS  H14R 2061   3.306   1.863   8.098 -1.7705  0.8849  0.7860
   16SAPS  C215 2062   3.132   1.757   8.133  0.2337 -0.0983  0.4590
   16SAPS  H15R 2063   3.152   1.756   8.241  1.4722  0.2232  0.2432
   16SAPS  C216 2064   2.996   1.695   8.089 -0.0866  0.4632  0.3613
   16SAPS  H16R 2065   3.013   1.589   8.062  0.4242  0.6587 -0.1129
   16SAPS  H16S 2066   2.954   1.737   7.995  1.7666 -1.5314 -1.4665
   16SAPS  C217 2067   2.899   1.683   8.209 -0.3780  0.7486  0.6996
   16SAPS  H17R 2068   2.932   1.644   8.308 -0.7749 -0.0834  0.5140
   16SAPS  H17S 2069   2.824   1.610   8.171 -0.7497  1.4062  0.1687
   16SAPS  C218 2070   2.829   1.822   8.222 -0.4942  0.3789  0.6720
   16SAPS  H18R 2071   2.820   1.870   8.122 -0.2841  1.0707  0.9800
   16SAPS  H18S 2072   2.892   1.892   8.281  0.7530  0.9355 -1.2191
   16SAPS  C219 2073   2.693   1.801   8.288  0.1205  0.4069  0.5496
   16SAPS  H19R 2074   2.708   1.756   8.388 -0.9538 -0.7426  0.2172
   16SAPS  H19S 2075   2.651   1.719   8.227  2.4065  0.5392 -1.3488
   16SAPS  C220 2076   2.612   1.931   8.298 -0.3056  0.0334 -0.4630
   16SAPS  H20R 2077   2.666   2.006   8.360 -1.0699 -0.2336  0.5556
   16SAPS  H20S 2078   2.515   1.904   8.344 -0.4792 -1.8364 -1.7692
   16SAPS  H20T 2079   2.599   1.976   8.197 -0.3261 -3.0975 -1.9700
   16SAPS   C33 2080   3.613   2.341   7.256 -0.1712 -0.0880 -0.2149
   16SAPS   H3X 2081   3.652   2.441   7.229 -3.0278  1.1673 -0.0114
   16SAPS   H3Y 2082   3.655   2.254   7.202 -0.4478  0.2161 -0.9225
   16SAPS   C34 2083   3.658   2.331   7.400 -0.4526  0.2946 -0.2365
   16SAPS   H4X 2084   3.594   2.399   7.461  1.4447  1.5409  0.4632
   16SAPS   H4Y 2085   3.767   2.353   7.405 -0.2659 -0.5838 -0.2754
   16SAPS   C35 2086   3.645   2.189   7.459  0.2341 -0.1637  0.3401
   16SAPS   H5X 2087   3.707   2.125   7.393 -1.5645 -1.9262  0.2444
   16SAPS   H5Y 2088   3.542   2.146   7.452 -0.0918  0.7750 -1.0690
   16SAPS   C36 2089   3.696   2.172   7.597 -0.4567  0.3610 -0.4290
   16SAPS   H6X 2090   3.686   2.065   7.626  0.9096  0.6212  1.1885
   16SAPS   H6Y 2091   3.638   2.235   7.668 -3.2569 -0.5421 -1.7615
   16SAPS   C37 2092   3.844   2.219   7.604 -0.2869  0.3816 -0.2271
   16SAPS   H7X 2093   3.840   2.328   7.625 -0.6029  0.1140  1.2015
   16SAPS   H7Y 2094   3.876   2.197   7.500  2.4210 -2.8848  1.0971
   16SAPS   C38 2095   3.928   2.134   7.696  0.1289 -0.3846  0.1985
   16SAPS   H8X 2096   4.033   2.164   7.676 -0.2424  1.4210  0.7744
   16SAPS   H8Y 2097   3.911   2.028   7.668 -5.5777 -0.3555  2.2077
   16SAPS   C39 2098   3.892   2.154   7.844  0.1570  0.3302 -0.9172
   16SAPS   H9X 2099   3.791   2.112   7.863  0.7441 -1.1693 -0.9695
   16SAPS   H9Y 2100   3.900   2.261   7.871 -0.1875  0.4883 -1.4273
   16SAPS  C310 2101   3.984   2.072   7.938 -1.0662 -0.6378  0.5241
   16SAPS  H10X 2102   4.084   2.080   7.890 -1.0084  0.4367  0.7942
   16SAPS  H10Y 2103   3.954   1.965   7.939  0.6295 -1.1577 -0.5518
   16SAPS  C311 2104   3.980   2.150   8.079 -0.2113  0.2463  0.4850
   16SAPS  H11X 2105   3.877   2.143   8.120 -0.3906 -2.1660 -0.2341
   16SAPS  H11Y 2106   4.016   2.251   8.052  1.4517 -0.6117 -0.7434
   16SAPS  C312 2107   4.066   2.086   8.186 -0.3321 -0.0836 -0.8543
   16SAPS  H12X 2108   4.174   2.101   8.164 -0.4354  0.2617 -1.1483
   16SAPS  H12Y 2109   4.047   1.977   8.190  1.4824 -0.4081  0.2987
   16SAPS  C313 2110   4.028   2.129   8.332 -0.0891  0.2427 -0.2629
   16SAPS  H13X 2111   3.920   2.105   8.341 -0.8381  1.8665 -3.4142
   16SAPS  H13Y 2112   4.032   2.240   8.337  0.6394  0.1593  1.6476
   16SAPS  C314 2113   4.115   2.061   8.439 -0.1320  0.4108  0.8922
   16SAPS  H14X 2114   4.218   2.103   8.444  0.4097 -0.8501  0.6775
   16SAPS  H14Y 2115   4.125   1.953   8.416  1.6710  0.8231 -0.5569
   16SAPS  C315 2116   4.053   2.086   8.572 -0.0494  0.4011 -1.0523
   16SAPS  H15X 2117   4.129   2.075   8.652 -0.7078  1.7065 -0.2141
   16SAPS  H15Y 2118   3.975   2.007   8.582  1.3593 -1.5965 -4.0841
   16SAPS  C316 2119   4.006   2.227   8.615  0.3394 -0.0682 -0.5031
   16SAPS  H16X 2120   3.938   2.200   8.698  1.8056 -1.8715  0.1869
   16SAPS  H16Y 2121   3.946   2.266   8.529  0.5286 -2.7471 -1.9455
   16SAPS  C317 2122   4.119   2.309   8.678  0.5101  0.1843  0.6524
   16SAPS  H17X 2123   4.164   2.239   8.752  2.5008 -1.0539 -1.6153
   16SAPS  H17Y 2124   4.065   2.391   8.731 -0.8453 -2.1724  3.1796
   16SAPS  C318 2125   4.231   2.374   8.592  0.0455 -0.1829  0.1568
   16SAPS  H18X 2126   4.290   2.445   8.654  0.5200  1.0645 -1.6553
   16SAPS  H18Y 2127   4.169   2.441   8.529 -1.9119  1.9497  3.9587
   16SAPS  H18Z 2128   4.303   2.301   8.548  1.8592  1.0331  0.9737
   17SAPC     N 2129   1.875   0.382  10.484 -0.4677  0.1305 -0.4394
   17SAPC   C12 2130   1.971   0.408  10.372 -0.6277 -0.1848  0.2710
   17SAPC  H12A 2131   2.062   0.354  10.394  0.7325  0.9284 -2.1779
   17SAPC  H12B 2132   2.001   0.511  10.378  2.1489 -0.9382  1.0049
   17SAPC   C13 2133   1.843   0.229  10.495  0.1871 -0.0723 -0.9131
   17SAPC  H13A 2134   1.756   0.219  10.559  0.0854 -2.0243 -1.2890
   17SAPC  H13B 2135   1.822   0.194  10.395 -3.8017 -3.1186  0.6950
   17SAPC  H13C 2136   1.922   0.167  10.534  0.6039 -0.0786 -1.7649
   17SAPC   C14 2137   1.945   0.431  10.606  0.3388  0.3539 -0.2573
   17SAPC  H14A 2138   1.883   0.398  10.688 -0.9847  1.4576 -0.7647
   17SAPC  H14B 2139   2.045   0.392  10.611  0.0471 -0.4818 -0.8378
   17SAPC  H14C 2140   1.951   0.539  10.600 -0.9926  0.3484 -3.3939
   17SAPC   C15 2141   1.754   0.457  10.466 -0.4636  0.7312 -0.1816
   17SAPC  H15A 2142   1.684   0.440  10.546 -0.1978 -1.6682 -0.3826
   17SAPC  H15B 2143   1.757   0.564  10.448 -2.3367  0.9222  0.4944
   17SAPC  H15C 2144   1.710   0.410  10.379  2.3399  0.0011 -1.3171
   17SAPC   C11 2145   1.933   0.365  10.228 -0.1473 -1.0984  0.4594
   17SAPC  H11A 2146   2.021   0.404  10.173  1.4636 -2.5010  1.9272
   17SAPC  H11B 2147   1.844   0.410  10.179  1.3840  0.4947 -0.9553
   17SAPC     P 2148   2.060   0.129  10.222  0.4110  0.3392  0.2058
   17SAPC   O13 2149   2.171   0.208  10.272  0.7631  0.5534  0.4814
   17SAPC   O14 2150   2.045   0.002  10.297  0.9314  0.1189 -0.0107
   17SAPC   O12 2151   1.928   0.221  10.220 -0.2575 -0.4567 -0.5937
   17SAPC   O11 2152   2.084   0.088  10.069 -0.0958 -0.3088 -0.3988
   17SAPC    C1 2153   1.969   0.076   9.978  0.0962 -0.0778 -0.1451
   17SAPC    HA 2154   1.903  -0.006  10.013  1.0906 -1.0437 -0.4887
   17SAPC    HB 2155   1.904   0.166   9.982 -0.5693 -0.4240 -2.2156
   17SAPC    C2 2156   2.018   0.058   9.832 -0.2223 -0.0745  0.0056
   17SAPC    HS 2157   1.939   0.096   9.764  0.9119  0.7737 -0.8851
   17SAPC   O21 2158   2.043  -0.083   9.813  0.7761  0.2478 -0.4259
   17SAPC   C21 2159   1.932  -0.159   9.805  0.7390  0.7965  0.2179
   17SAPC   O22 2160   1.818  -0.117   9.783  0.1721  1.0835  0.2370
   17SAPC   C22 2161   1.963  -0.308   9.810 -0.6055  0.9307  0.1284
   17SAPC   H2R 2162   2.053  -0.311   9.875  0.3551  1.1295 -1.1529
   17SAPC   H2S 2163   1.881  -0.359   9.865  0.4350 -1.0779 -0.0732
   17SAPC    C3 2164   2.143   0.149   9.796  0.1579 -0.1464 -0.4801
   17SAPC    HX 2165   2.212   0.137   9.882  0.3168  1.1833 -0.4026
   17SAPC    HY 2166   2.110   0.255   9.797 -2.4641 -0.8831  1.5405
   17SAPC   O31 2167   2.202   0.108   9.666  0.4213  0.3998  0.5220
   17SAPC   C31 2168   2.124   0.163   9.567 -0.3993 -0.3049 -0.2478
   17SAPC   O32 2169   2.024   0.224   9.585  0.1228 -0.0187  1.1578
   17SAPC   C32 2170   2.194   0.151   9.431  0.6662 -0.5041  0.1277
   17SAPC   H2X 2171   2.263   0.064   9.425 -0.4768 -1.5379  1.3152
   17SAPC   H2Y 2172   2.253   0.242   9.407 -0.6598  0.2008 -0.5278
   17SAPC   C23 2173   1.968  -0.374   9.673 -0.0301 -0.3185  0.0171
   17SAPC   H3R 2174   2.059  -0.341   9.618 -0.2898 -0.9730 -0.8242
   17SAPC   H3S 2175   1.880  -0.351   9.610  0.9648 -1.5057 -1.9018
   17SAPC   C24 2176   1.972  -0.533   9.679 -0.1841 -0.2890 -0.2381
   17SAPC   H4R 2177   1.945  -0.578   9.581 -0.5328 -1.7643  0.5026
   17SAPC   H4S 2178   1.882  -0.561   9.738  0.4896 -1.0249  0.4627
   17SAPC   C25 2179   2.091  -0.593   9.750 -0.1519 -1.0767  0.0806
   17SAPC   H5R 2180   2.094  -0.593   9.860 -1.1828  1.0984  0.1464
   17SAPC   C26 2181   2.198  -0.648   9.689 -0.0935  0.1932  0.6219
   17SAPC   H6R 2182   2.273  -0.690   9.758  0.7422 -1.7207 -1.3469
   17SAPC   C27 2183   2.217  -0.664   9.538  0.0825  0.5853 -0.4798
   17SAPC   H7R 2184   2.308  -0.605   9.514  0.8787 -0.4152 -0.0060
   17SAPC   H7S 2185   2.133  -0.627   9.477 -0.5644 -0.3853 -0.2033
   17SAPC   C28 2186   2.263  -0.797   9.480 -0.6424 -0.1399 -0.7425
   17SAPC   H8R 2187   2.354  -0.841   9.524 -2.2470 -1.5915  1.3016
   17SAPC   C29 2188   2.193  -0.876   9.400  0.2827  0.2267  0.2284
   17SAPC   H9R 2189   2.227  -0.976   9.370 -1.5585  0.5067 -3.3359
   17SAPC  C210 2190   2.054  -0.857   9.351 -0.3079 -0.6266 -0.1627
   17SAPC  H10R 2191   2.058  -0.908   9.252  0.3418  0.0820 -0.5107
   17SAPC  H10S 2192   2.026  -0.752   9.326  1.3177 -0.8983 -3.6416
   17SAPC  C211 2193   1.971  -0.932   9.453 -0.0715  0.3930 -0.7632
   17SAPC  H11R 2194   1.927  -0.879   9.539 -0.5542  0.1492 -0.8576
   17SAPC  C212 2195   1.941  -1.071   9.453  0.0824 -0.6745 -0.3155
   17SAPC  H12R 2196   1.890  -1.116   9.539  1.0782  0.0492  0.6951
   17SAPC  C213 2197   1.978  -1.165   9.339 -0.3812 -0.2274 -0.4962
   17SAPC  H13R 2198   1.996  -1.265   9.383  1.6084  1.2611  2.4054
   17SAPC  H13S 2199   2.073  -1.124   9.298  1.1476  0.5797  3.4300
   17SAPC  C214 2200   1.873  -1.168   9.232 -0.1463  0.2008 -0.8249
   17SAPC  H14R 2201   1.817  -1.074   9.222  0.6290  0.9505  1.3836
   17SAPC  C215 2202   1.839  -1.259   9.135 -0.3947 -0.5315  0.2310
   17SAPC  H15R 2203   1.754  -1.239   9.068 -0.1846  1.0388  0.4005
   17SAPC  C216 2204   1.905  -1.393   9.117  0.5528  0.2588 -0.2236
   17SAPC  H16R 2205   2.004  -1.401   9.166  0.4335 -0.1323 -0.0400
   17SAPC  H16S 2206   1.915  -1.410   9.008 -2.4059  1.4246 -0.7842
   17SAPC  C217 2207   1.809  -1.503   9.177 -0.4475 -0.1703  0.0665
   17SAPC  H17R 2208   1.703  -1.501   9.144 -0.9478  0.1418  1.6332
   17SAPC  H17S 2209   1.806  -1.488   9.287  1.6814  0.3455  0.0993
   17SAPC  C218 2210   1.859  -1.649   9.158 -0.2828 -0.0911 -0.3428
   17SAPC  H18R 2211   1.955  -1.647   9.214 -0.4518 -0.2362 -0.0458
   17SAPC  H18S 2212   1.865  -1.663   9.048 -0.9571  2.8262 -0.8328
   17SAPC  C219 2213   1.755  -1.750   9.221  0.2814  0.5161  0.2912
   17SAPC  H19R 2214   1.728  -1.711   9.321 -1.3544  0.4044 -0.0850
   17SAPC  H19S 2215   1.813  -1.845   9.235 -1.2401 -0.4522  0.2072
   17SAPC  C220 2216   1.627  -1.764   9.141  0.2520 -0.3575  0.2089
   17SAPC  H20R 2217   1.571  -1.852   9.178 -1.2590 -0.0963 -1.3242
   17SAPC  H20S 2218   1.647  -1.762   9.032 -2.1654  0.4545 -0.2899
   17SAPC  H20T 2219   1.565  -1.673   9.159  0.5216 -0.1976  0.3293
   17SAPC   C33 2220   2.090   0.140   9.311 -0.9342 -0.0375  0.0524
   17SAPC   H3X 2221   2.151   0.137   9.219 -1.1669 -0.4889 -0.0906
   17SAPC   H3Y 2222   2.023   0.228   9.299  0.1813  0.5730 -2.2439
   17SAPC   C34 2223   2.007   0.010   9.321  0.6952 -0.5681 -0.1498
   17SAPC   H4X 2224   1.949   0.008   9.226 -0.4530 -2.0034  0.5378
   17SAPC   H4Y 2225   1.931   0.011   9.402  2.1070  0.0142  1.2211
   17SAPC   C35 2226   2.087  -0.127   9.318  0.1614 -0.1159 -0.3913
   17SAPC   H5X 2227   2.134  -0.143   9.417  0.8843  0.4133 -0.6439
   17SAPC   H5Y 2228   2.175  -0.111   9.252  0.1029 -0.4420 -0.5491
   17SAPC   C36 2229   1.998  -0.248   9.276  0.2904  0.5325  0.1984
   17SAPC   H6X 2230   1.938  -0.230   9.185  3.1434  2.4406 -1.4469
   17SAPC   H6Y 2231   1.923  -0.269   9.356  0.0558 -1.1072 -0.4078
   17SAPC   C37 2232   2.081  -0.372   9.255 -1.0564 -0.0427 -0.8076
   17SAPC   H7X 2233   2.019  -0.463   9.262  1.1663 -1.4849  2.9710
   17SAPC   H7Y 2234   2.141  -0.378   9.348 -0.9386  0.5263 -0.8431
   17SAPC   C38 2235   2.168  -0.377   9.127  0.0961  0.5457 -0.8398
   17SAPC   H8X 2236   2.272  -0.395   9.160 -0.5925 -0.6456  0.8708
   17SAPC   H8Y 2237   2.170  -0.280   9.074 -1.6346  1.6545  0.9843
   17SAPC   C39 2238   2.122  -0.476   9.018 -0.1880 -0.3593  0.0097
   17SAPC   H9X 2239   2.021  -0.442   8.984 -1.0241 -2.6350  0.0877
   17SAPC   H9Y 2240   2.098  -0.574   9.065 -0.6568 -0.1074  0.3069
   17SAPC  C310 2241   2.227  -0.487   8.900 -0.2454 -0.3094 -0.0321
   17SAPC  H10X 2242   2.324  -0.537   8.922  1.6166  0.8907 -4.3676
   17SAPC  H10Y 2243   2.244  -0.380   8.873 -0.6245 -0.0512  0.7163
   17SAPC  C311 2244   2.172  -0.566   8.782 -0.1119 -0.1442  0.2224
   17SAPC  H11X 2245   2.093  -0.504   8.735 -0.6849 -0.5140  0.6703
   17SAPC  H11Y 2246   2.127  -0.660   8.821  0.7928  0.0394  1.8233
   17SAPC  C312 2247   2.285  -0.582   8.689  0.1317  0.1058  0.8353
   17SAPC  H12X 2248   2.366  -0.651   8.722  0.5462 -0.4690 -1.2094
   17SAPC  H12Y 2249   2.341  -0.487   8.682 -0.5757  0.4364 -1.2042
   17SAPC  C313 2250   2.243  -0.625   8.547  0.4906  0.4071  0.3528
   17SAPC  H13X 2251   2.319  -0.593   8.473 -0.9222  1.1257 -0.8495
   17SAPC  H13Y 2252   2.152  -0.575   8.508 -0.5759 -2.8062 -1.6546
   17SAPC  C314 2253   2.224  -0.775   8.538 -0.0654  0.6258 -0.0237
   17SAPC  H14X 2254   2.140  -0.815   8.600 -0.6597 -0.5037 -1.4841
   17SAPC  H14Y 2255   2.318  -0.825   8.571 -1.0866 -3.9199 -3.0185
   17SAPC  C315 2256   2.201  -0.839   8.398 -0.1664 -0.5827 -0.4126
   17SAPC  H15X 2257   2.288  -0.807   8.337  0.1262  0.5964  0.5758
   17SAPC  H15Y 2258   2.113  -0.792   8.349  0.6999  0.1564 -1.3073
   17SAPC  C316 2259   2.174  -0.990   8.402 -0.0961 -0.2370  0.4995
   17SAPC  H16X 2260   2.091  -0.998   8.476 -0.2596  2.7238  0.7684
   17SAPC  H16Y 2261   2.263  -1.031   8.455  2.9653  2.6394 -1.9400
   17SAPC  C317 2262   2.144  -1.054   8.269 -0.3014  0.5440 -0.3192
   17SAPC  H17X 2263   2.054  -1.000   8.232 -1.5427 -0.9701  0.3334
   17SAPC  H17Y 2264   2.116  -1.161   8.283 -0.2464  0.5005 -0.5513
   17SAPC  C318 2265   2.250  -1.031   8.163  0.0593 -0.4660  0.2078
   17SAPC  H18X 2266   2.210  -1.080   8.072 -1.1867  0.0570  0.4659
   17SAPC  H18Y 2267   2.270  -0.924   8.140 -1.5123 -0.4877 -1.5064
   17SAPC  H18Z 2268   2.343  -1.087   8.187 -0.4098 -1.3998 -0.1104
   18SAPC     N 2269   1.284   0.675  10.365  0.1222 -0.6120 -0.3161
   18SAPC   C12 2270   1.379   0.602  10.280 -0.1015 -0.5636 -0.1205
   18SAPC  H12A 2271   1.456   0.553  10.337 -0.5658 -2.1409 -0.7943
   18SAPC  H12B 2272   1.428   0.671  10.214 -0.4202 -0.3662 -0.1536
   18SAPC   C13 2273   1.225   0.573  10.459 -0.0924 -0.4007  0.2374
   18SAPC  H13A 2274   1.168   0.628  10.532  1.2948 -2.0087  2.6625
   18SAPC  H13B 2275   1.157   0.517  10.396 -1.2717  1.9276 -0.6761
   18SAPC  H13C 2276   1.297   0.529  10.527 -1.5953 -0.4453  1.8602
   18SAPC   C14 2277   1.353   0.781  10.444 -0.4099  0.2730  0.2433
   18SAPC  H14A 2278   1.426   0.742  10.513  1.3306  1.1743 -1.0127
   18SAPC  H14B 2279   1.411   0.843  10.377 -0.9247 -1.0510 -1.4931
   18SAPC  H14C 2280   1.281   0.843  10.496 -1.1729 -0.2204 -0.2142
   18SAPC   C15 2281   1.175   0.741  10.281  0.6829  0.0708 -0.2574
   18SAPC  H15A 2282   1.226   0.830  10.246  0.6093  0.2711  0.1359
   18SAPC  H15B 2283   1.148   0.670  10.204  2.5249 -1.0002  0.0440
   18SAPC  H15C 2284   1.091   0.773  10.341  1.0983  2.7180 -0.9454
   18SAPC   C11 2285   1.318   0.492  10.185 -0.1293  0.0903 -0.0098
   18SAPC  H11A 2286   1.391   0.492  10.102 -0.7810  1.1672 -0.6033
   18SAPC  H11B 2287   1.217   0.523  10.150 -0.6456  0.4000  1.6405
   18SAPC     P 2288   1.436   0.279  10.282  0.1716 -0.4739 -0.5723
   18SAPC   O13 2289   1.561   0.365  10.269  0.5147  0.1507  0.3868
   18SAPC   O14 2290   1.420   0.213  10.412 -0.1357 -1.3880  0.1292
   18SAPC   O12 2291   1.306   0.371  10.261  0.5627  0.0544  0.1058
   18SAPC   O11 2292   1.427   0.176  10.166 -0.3745 -0.5095 -0.2881
   18SAPC    C1 2293   1.325   0.083  10.134 -0.8564  0.4155  0.3486
   18SAPC    HA 2294   1.366  -0.019  10.150  0.0325  0.1582 -2.8663
   18SAPC    HB 2295   1.244   0.097  10.209  0.5194  0.4581  1.8897
   18SAPC    C2 2296   1.263   0.103   9.990 -0.1793  0.1803 -0.2133
   18SAPC    HS 2297   1.204   0.011   9.972  2.1744 -1.4757 -0.0235
   18SAPC   O21 2298   1.367   0.111   9.893  0.1271 -0.2696 -0.1425
   18SAPC   C21 2299   1.438  -0.002   9.876 -0.0659 -0.1317 -0.0804
   18SAPC   O22 2300   1.415  -0.112   9.933 -0.9253 -0.1305 -0.1160
   18SAPC   C22 2301   1.520   0.018   9.754 -0.1786  0.4775  0.7643
   18SAPC   H2R 2302   1.612   0.075   9.777  0.5740 -0.8290  1.1375
   18SAPC   H2S 2303   1.568  -0.080   9.730  1.1172  1.2488  0.0421
   18SAPC    C3 2304   1.175   0.233   9.985  0.1068 -0.9298  0.3936
   18SAPC    HX 2305   1.248   0.317   9.994 -0.5437  0.0180 -2.2522
   18SAPC    HY 2306   1.102   0.229  10.070  0.6806 -0.7933  0.8996
   18SAPC   O31 2307   1.110   0.241   9.853 -0.1201  0.4648  0.5068
   18SAPC   C31 2308   1.116   0.365   9.799 -0.4675  0.2889 -0.1432
   18SAPC   O32 2309   1.182   0.461   9.834  0.0812  0.0965  0.3829
   18SAPC   C32 2310   1.024   0.370   9.675  0.1984  0.1797  0.1060
   18SAPC   H2X 2311   0.928   0.324   9.707 -0.2846  0.5289 -0.8172
   18SAPC   H2Y 2312   1.070   0.305   9.598  1.2531  2.5424 -1.4075
   18SAPC   C23 2313   1.436   0.086   9.637  0.6447  0.2998  0.0563
   18SAPC   H3R 2314   1.428   0.195   9.658  0.2999 -0.0382  1.8191
   18SAPC   H3S 2315   1.329   0.056   9.641  0.9453 -0.9949 -0.9241
   18SAPC   C24 2316   1.485   0.064   9.493 -0.4510 -0.3507 -0.1339
   18SAPC   H4R 2317   1.592   0.094   9.493 -0.7004  0.5730 -0.3895
   18SAPC   H4S 2318   1.430   0.130   9.422 -1.8464 -1.1315  0.1737
   18SAPC   C25 2319   1.465  -0.078   9.437  0.2668 -0.2581 -0.1910
   18SAPC   H5R 2320   1.457  -0.155   9.514 -1.7838 -1.2265 -1.2815
   18SAPC   C26 2321   1.418  -0.117   9.319  0.3362 -0.3873 -0.2779
   18SAPC   H6R 2322   1.407  -0.225   9.306 -1.8558 -0.0010 -2.4493
   18SAPC   C27 2323   1.395  -0.033   9.204 -0.0195 -0.2826  0.3558
   18SAPC   H7R 2324   1.490  -0.021   9.148  0.9365 -1.6995  1.5870
   18SAPC   H7S 2325   1.358   0.063   9.245 -0.6364 -0.3900  0.0612
   18SAPC   C28 2326   1.287  -0.084   9.112 -0.3261 -0.5434 -0.4500
   18SAPC   H8R 2327   1.190  -0.037   9.133 -1.1323 -2.4204  0.3051
   18SAPC   C29 2328   1.302  -0.144   8.989  0.5129 -0.1266 -0.0961
   18SAPC   H9R 2329   1.208  -0.167   8.936  1.0522 -2.1875 -0.2324
   18SAPC  C210 2330   1.428  -0.177   8.913 -0.2868 -0.3629 -0.4812
   18SAPC  H10R 2331   1.500  -0.094   8.933 -0.9713 -0.2962  2.1314
   18SAPC  H10S 2332   1.421  -0.173   8.803  1.7833 -2.0302 -0.7270
   18SAPC  C211 2333   1.477  -0.308   8.974 -0.2599  0.2424 -0.3734
   18SAPC  H11R 2334   1.477  -0.308   9.084  0.6901 -0.5469 -0.3564
   18SAPC  C212 2335   1.533  -0.407   8.905 -0.2705  0.1341  0.6502
   18SAPC  H12R 2336   1.576  -0.492   8.961  2.3422  1.2736  0.5272
   18SAPC  C213 2337   1.554  -0.426   8.756 -0.6212  0.0961 -0.4031
   18SAPC  H13R 2338   1.472  -0.474   8.698  0.8253  0.0208 -2.5299
   18SAPC  H13S 2339   1.637  -0.497   8.741  0.3675  1.1169  0.0567
   18SAPC  C214 2340   1.588  -0.307   8.666 -0.0281 -0.7075  0.3212
   18SAPC  H14R 2341   1.509  -0.270   8.600  2.7664 -0.5480 -3.2312
   18SAPC  C215 2342   1.706  -0.242   8.657 -1.1978  0.2567 -0.1469
   18SAPC  H15R 2343   1.730  -0.170   8.578 -0.1340  1.1975  0.9946
   18SAPC  C216 2344   1.836  -0.288   8.731  0.6491  0.0728  0.0108
   18SAPC  H16R 2345   1.923  -0.301   8.663  1.5660  0.4218  1.0864
   18SAPC  H16S 2346   1.822  -0.392   8.767  0.5938 -0.3141 -1.0961
   18SAPC  C217 2347   1.889  -0.202   8.839 -0.0312 -0.0865 -0.1269
   18SAPC  H17R 2348   1.986  -0.246   8.870 -0.7704 -1.2764  0.6213
   18SAPC  H17S 2349   1.824  -0.216   8.929 -1.5697  1.6437 -0.8975
   18SAPC  C218 2350   1.907  -0.059   8.794 -0.5262  0.1977 -0.3402
   18SAPC  H18R 2351   1.822  -0.022   8.733 -0.2247  3.9656  1.2957
   18SAPC  H18S 2352   1.996  -0.056   8.727 -0.2133  0.3637  0.0844
   18SAPC  C219 2353   1.924   0.031   8.907 -0.1341 -0.0736 -0.2128
   18SAPC  H19R 2354   1.957   0.130   8.869  1.8032 -1.1562 -1.5225
   18SAPC  H19S 2355   1.999   0.007   8.986  1.0521  1.6558 -0.7566
   18SAPC  C220 2356   1.798   0.061   8.979  0.2985  0.3465 -0.0630
   18SAPC  H20R 2357   1.819   0.137   9.058  0.5387 -0.4636  0.6627
   18SAPC  H20S 2358   1.744  -0.017   9.037 -1.0745  0.6215 -0.9435
   18SAPC  H20T 2359   1.718   0.096   8.911 -0.5112 -2.2663 -0.5474
   18SAPC   C33 2360   0.999   0.515   9.607  0.0489  0.4176  0.1603
   18SAPC   H3X 2361   0.986   0.598   9.681 -1.4772  1.0478 -0.7594
   18SAPC   H3Y 2362   0.905   0.503   9.549  1.2313  1.6236 -2.1256
   18SAPC   C34 2363   1.103   0.562   9.502 -0.1715  0.5641  0.4194
   18SAPC   H4X 2364   1.205   0.555   9.546  0.9489  2.7423 -1.6245
   18SAPC   H4Y 2365   1.080   0.668   9.479  0.7368  0.6319 -0.2177
   18SAPC   C35 2366   1.078   0.487   9.369  0.2089  0.0494 -1.1079
   18SAPC   H5X 2367   0.977   0.508   9.327  0.3299  1.7944 -0.6196
   18SAPC   H5Y 2368   1.092   0.379   9.393  0.9002  0.5815  1.1150
   18SAPC   C36 2369   1.187   0.517   9.261 -0.5399  0.1453 -0.1923
   18SAPC   H6X 2370   1.293   0.516   9.297 -0.1841  0.0553 -1.2017
   18SAPC   H6Y 2371   1.162   0.619   9.224  0.7381  0.0446 -1.4373
   18SAPC   C37 2372   1.177   0.424   9.134 -0.4962  0.3196  0.6341
   18SAPC   H7X 2373   1.083   0.448   9.080 -0.8411 -1.2035  0.5085
   18SAPC   H7Y 2374   1.178   0.315   9.153 -0.1536 -0.2201 -2.0618
   18SAPC   C38 2375   1.299   0.447   9.044 -0.2445  0.0266 -0.5330
   18SAPC   H8X 2376   1.392   0.405   9.087  0.5931  2.4152  0.1244
   18SAPC   H8Y 2377   1.311   0.556   9.030 -2.5088  0.5615  1.1422
   18SAPC   C39 2378   1.281   0.386   8.910  0.8466  0.5738  0.1584
   18SAPC   H9X 2379   1.350   0.422   8.831 -1.3819 -1.5882 -3.0142
   18SAPC   H9Y 2380   1.182   0.406   8.864  1.8765  0.8344 -2.0875
   18SAPC  C310 2381   1.291   0.236   8.913 -0.4399 -0.5423 -0.0851
   18SAPC  H10X 2382   1.187   0.197   8.917 -0.0911 -1.9298 -2.6729
   18SAPC  H10Y 2383   1.348   0.198   9.000 -1.7079 -0.8878  0.6296
   18SAPC  C311 2384   1.345   0.183   8.775 -0.1331  0.0068 -0.1591
   18SAPC  H11X 2385   1.349   0.073   8.786  0.7704 -0.0313 -0.7313
   18SAPC  H11Y 2386   1.447   0.223   8.757 -0.3577  0.7752  0.2074
   18SAPC  C312 2387   1.264   0.248   8.661 -0.1729  0.2360  0.3104
   18SAPC  H12X 2388   1.286   0.356   8.644  0.7839  0.0891  0.5692
   18SAPC  H12Y 2389   1.157   0.234   8.686  0.1243 -1.8302  0.5527
   18SAPC  C313 2390   1.305   0.156   8.537  0.2203 -0.1647 -0.9542
   18SAPC  H13X 2391   1.290   0.053   8.574  0.7395 -0.4024 -1.3906
   18SAPC  H13Y 2392   1.410   0.181   8.513  0.4897 -1.4747 -1.1746
   18SAPC  C314 2393   1.208   0.174   8.420 -0.2543  0.3648 -0.4381
   18SAPC  H14X 2394   1.196   0.283   8.411 -0.5658  0.4009  0.3556
   18SAPC  H14Y 2395   1.110   0.128   8.446  1.1952 -2.0384  1.3370
   18SAPC  C315 2396   1.249   0.120   8.283 -0.8578 -0.0338 -0.3091
   18SAPC  H15X 2397   1.333   0.050   8.303 -1.9300 -1.3884 -0.3885
   18SAPC  H15Y 2398   1.292   0.195   8.214  0.1001  0.1346  0.4514
   18SAPC  C316 2399   1.130   0.050   8.214  1.2725  0.3216 -0.5218
   18SAPC  H16X 2400   1.054   0.120   8.174  1.5961  0.2475 -1.2755
   18SAPC  H16Y 2401   1.083  -0.013   8.292 -0.3774  1.4742 -0.5331
   18SAPC  C317 2402   1.170  -0.043   8.101 -0.1180 -0.1216  0.2263
   18SAPC  H17X 2403   1.230  -0.121   8.153  1.7401  0.3447 -1.1319
   18SAPC  H17Y 2404   1.242   0.009   8.035 -0.8140 -0.4123 -0.7871
   18SAPC  C318 2405   1.053  -0.107   8.022  0.2855 -0.5148  0.2050
   18SAPC  H18X 2406   1.011  -0.027   7.957 -2.7000 -0.2817  2.2255
   18SAPC  H18Y 2407   0.968  -0.137   8.088  1.2473 -2.1856  0.7376
   18SAPC  H18Z 2408   1.073  -0.192   7.953 -1.3645 -0.8416  0.0706
   19SAPC     N 2409   2.065   2.642  10.581 -0.5027  0.2685  1.2843
   19SAPC   C12 2410   2.127   2.699  10.460  0.1189 -0.2628  0.0875
   19SAPC  H12A 2411   2.221   2.748  10.482 -0.7118  0.8257  1.3503
   19SAPC  H12B 2412   2.065   2.786  10.445  0.9434  0.3039 -0.1149
   19SAPC   C13 2413   2.057   2.745  10.690  0.0551  0.7312 -0.4429
   19SAPC  H13A 2414   2.154   2.791  10.709 -0.8638  3.1954 -1.2960
   19SAPC  H13B 2415   1.987   2.822  10.662 -0.8910  0.2375  0.5173
   19SAPC  H13C 2416   2.022   2.689  10.776 -0.0778 -0.5000 -1.2770
   19SAPC   C14 2417   1.924   2.600  10.551  0.6506 -0.1881  0.0798
   19SAPC  H14A 2418   1.917   2.522  10.477 -0.5347  0.6767 -0.7699
   19SAPC  H14B 2419   1.879   2.566  10.644  0.1135  0.6184  0.1263
   19SAPC  H14C 2420   1.864   2.685  10.523  0.9188  1.2448  3.4117
   19SAPC   C15 2421   2.141   2.531  10.633 -0.2499 -0.0977  0.3058
   19SAPC  H15A 2422   2.155   2.461  10.552  1.8336  3.8127 -3.1876
   19SAPC  H15B 2423   2.236   2.558  10.678 -1.0673 -2.1087  3.5131
   19SAPC  H15C 2424   2.090   2.478  10.711  0.4813 -1.2710  0.0054
   19SAPC   C11 2425   2.126   2.612  10.332 -0.3294  0.3747 -0.6137
   19SAPC  H11A 2426   2.175   2.674  10.255  1.6064 -2.0357 -1.4743
   19SAPC  H11B 2427   2.021   2.591  10.303 -0.3046 -2.3591  0.8558
   19SAPC     P 2428   2.137   2.343  10.329 -0.2899 -0.0720  0.3829
   19SAPC   O13 2429   2.153   2.267  10.455  0.2514 -0.0333 -0.2893
   19SAPC   O14 2430   2.002   2.360  10.277  0.4214  0.2932  0.1571
   19SAPC   O12 2431   2.193   2.487  10.355  0.1002  0.4410  0.4819
   19SAPC   O11 2432   2.227   2.286  10.209  0.3291 -0.0146  0.3503
   19SAPC    C1 2433   2.238   2.350  10.089 -0.5129 -0.0905 -0.7344
   19SAPC    HA 2434   2.240   2.277  10.005  2.5048 -1.0150  0.0395
   19SAPC    HB 2435   2.149   2.414  10.069 -0.9614 -0.2869  0.5069
   19SAPC    C2 2436   2.367   2.442  10.081  0.4877  0.3837 -0.0105
   19SAPC    HS 2437   2.358   2.521  10.158  0.4964 -0.2087  0.6062
   19SAPC   O21 2438   2.382   2.497   9.951 -0.0840  0.0801  0.2770
   19SAPC   C21 2439   2.303   2.599   9.915 -0.1772  0.0006 -0.0276
   19SAPC   O22 2440   2.214   2.655   9.978 -0.2323  0.3018  0.1987
   19SAPC   C22 2441   2.355   2.637   9.776 -0.8714 -0.1477 -1.0688
   19SAPC   H2R 2442   2.461   2.666   9.794 -0.5692 -1.1695 -1.1193
   19SAPC   H2S 2443   2.356   2.552   9.704  0.3199  0.2213 -1.5247
   19SAPC    C3 2444   2.500   2.372  10.127  0.1571  0.6141 -0.0596
   19SAPC    HX 2445   2.482   2.321  10.224  1.6109 -1.6386 -0.9248
   19SAPC    HY 2446   2.572   2.456  10.141 -1.8036  2.5054 -0.6749
   19SAPC   O31 2447   2.542   2.260  10.040  0.3456  0.4974 -0.3030
   19SAPC   C31 2448   2.635   2.287   9.954  0.3229  0.2688 -0.4401
   19SAPC   O32 2449   2.705   2.387   9.956  0.1750  0.1842 -0.1956
   19SAPC   C32 2450   2.647   2.170   9.861 -0.3924  0.0666  0.5029
   19SAPC   H2X 2451   2.559   2.105   9.840  2.0726 -3.7259  0.7803
   19SAPC   H2Y 2452   2.710   2.100   9.921  2.0683  1.5902 -0.1422
   19SAPC   C23 2453   2.301   2.773   9.719 -0.5292  0.0690 -0.0549
   19SAPC   H3R 2454   2.318   2.860   9.786 -0.1219  1.4171 -1.8431
   19SAPC   H3S 2455   2.191   2.757   9.715 -0.2930 -1.7989 -0.0553
   19SAPC   C24 2456   2.347   2.804   9.571  0.5181 -0.2129  0.0054
   19SAPC   H4R 2457   2.456   2.781   9.565  0.2451 -1.3928 -0.5418
   19SAPC   H4S 2458   2.344   2.914   9.557  0.5182 -0.2525 -0.3002
   19SAPC   C25 2459   2.276   2.737   9.452  0.2314 -0.2241 -0.2604
   19SAPC   H5R 2460   2.215   2.650   9.481 -1.3668  0.0663 -2.4446
   19SAPC   C26 2461   2.256   2.787   9.329  0.4610  0.2633 -0.3664
   19SAPC   H6R 2462   2.213   2.715   9.258  1.2686 -2.4559  1.7222
   19SAPC   C27 2463   2.304   2.924   9.268  1.4102  0.7185 -0.4779
   19SAPC   H7R 2464   2.356   2.890   9.177  3.7985  0.1763  1.0129
   19SAPC   H7S 2465   2.385   2.968   9.330  1.4335 -0.5691  0.4442
   19SAPC   C28 2466   2.199   3.028   9.234 -0.2676  0.3233 -1.2083
   19SAPC   H8R 2467   2.170   3.099   9.312 -0.1609 -3.3058  2.4659
   19SAPC   C29 2468   2.136   3.045   9.119  0.4724 -0.3561  0.0448
   19SAPC   H9R 2469   2.063   3.128   9.110  1.4140  0.5799  0.8664
   19SAPC  C210 2470   2.148   2.963   8.990 -0.6110 -0.5280  0.3334
   19SAPC  H10R 2471   2.050   2.913   8.974 -1.0591  0.6702 -0.9103
   19SAPC  H10S 2472   2.215   2.876   8.999 -0.8115 -0.6777  0.3886
   19SAPC  C211 2473   2.191   3.058   8.878  0.4667  0.2828  0.4431
   19SAPC  H11R 2474   2.293   3.099   8.877  1.4705 -2.0596  0.3782
   19SAPC  C212 2475   2.121   3.090   8.768 -0.0349  0.1714  0.2592
   19SAPC  H12R 2476   2.169   3.155   8.693 -0.7922  0.6542  0.1881
   19SAPC  C213 2477   1.980   3.050   8.729 -0.2974 -0.2401  0.0877
   19SAPC  H13R 2478   1.915   3.062   8.818 -0.4234 -4.8509  0.8986
   19SAPC  H13S 2479   1.975   2.940   8.713 -1.2102 -0.1624 -0.2044
   19SAPC  C214 2480   1.923   3.136   8.624 -0.3257 -0.0051 -0.1047
   19SAPC  H14R 2481   1.904   3.240   8.656  0.7567  0.6282 -1.4120
   19SAPC  C215 2482   1.885   3.100   8.498  0.1151  0.2266 -0.7788
   19SAPC  H15R 2483   1.838   3.180   8.440 -4.2394 -1.3789  0.1370
   19SAPC  C216 2484   1.898   2.965   8.429 -0.3709 -0.1210  0.4624
   19SAPC  H16R 2485   1.802   2.910   8.434 -1.7836  1.6847 -3.0149
   19SAPC  H16S 2486   1.978   2.904   8.475 -0.2028 -0.5369 -0.3674
   19SAPC  C217 2487   1.927   2.961   8.280 -0.6375  1.2646 -0.3438
   19SAPC  H17R 2488   2.034   2.990   8.269  0.7693 -2.1040  2.6215
   19SAPC  H17S 2489   1.872   3.041   8.225 -0.0614  0.2185 -2.5669
   19SAPC  C218 2490   1.915   2.829   8.206  0.5330 -0.4472 -0.5248
   19SAPC  H18R 2491   1.810   2.793   8.207 -0.0722  1.2320  0.0076
   19SAPC  H18S 2492   1.966   2.746   8.260  0.1877 -0.0257  0.4874
   19SAPC  C219 2493   1.973   2.840   8.064 -0.2438  0.4906 -0.4140
   19SAPC  H19R 2494   1.998   2.735   8.036 -1.0024 -0.5064  2.3237
   19SAPC  H19S 2495   2.073   2.886   8.070 -0.2841  0.4259  1.0713
   19SAPC  C220 2496   1.892   2.914   7.961  0.6327 -0.6236  0.0269
   19SAPC  H20R 2497   1.784   2.886   7.953 -0.1180  2.1761 -0.8595
   19SAPC  H20S 2498   1.934   2.896   7.861 -0.3190 -0.1779 -0.4718
   19SAPC  H20T 2499   1.897   3.023   7.980  2.5709 -0.4096 -1.4888
   19SAPC   C33 2500   2.744   2.195   9.743 -0.2743 -0.0347 -0.0247
   19SAPC   H3X 2501   2.789   2.096   9.719 -1.9451 -1.2543  1.5976
   19SAPC   H3Y 2502   2.824   2.271   9.747  0.7936 -1.1022 -0.5110
   19SAPC   C34 2503   2.663   2.221   9.613 -0.2480 -0.6319 -0.1248
   19SAPC   H4X 2504   2.613   2.319   9.622  3.7904  1.5910  0.1464
   19SAPC   H4Y 2505   2.591   2.137   9.605  1.1914 -1.9609  0.2929
   19SAPC   C35 2506   2.763   2.228   9.495  0.0986 -0.3809  0.3864
   19SAPC   H5X 2507   2.838   2.146   9.503 -0.6929 -1.0409  1.3057
   19SAPC   H5Y 2508   2.824   2.321   9.497 -1.2361  0.5699 -1.2309
   19SAPC   C36 2509   2.685   2.213   9.360 -0.0200 -0.5951  0.0079
   19SAPC   H6X 2510   2.585   2.260   9.364  0.8002  1.2574  3.6042
   19SAPC   H6Y 2511   2.672   2.106   9.334 -0.9819 -0.7868  1.1756
   19SAPC   C37 2512   2.762   2.281   9.252  0.3205  0.0471 -0.6298
   19SAPC   H7X 2513   2.872   2.261   9.258  0.3994  0.1178 -1.6183
   19SAPC   H7Y 2514   2.748   2.389   9.273  2.4142 -0.1689  2.5470
   19SAPC   C38 2515   2.707   2.255   9.114 -0.3383  0.0782 -0.0434
   19SAPC   H8X 2516   2.597   2.267   9.107 -0.0985  2.3777 -0.8284
   19SAPC   H8Y 2517   2.732   2.152   9.079  1.3713  0.2967  0.4376
   19SAPC   C39 2518   2.756   2.342   9.003 -0.5113  0.3800  0.4374
   19SAPC   H9X 2519   2.863   2.316   8.992 -0.6196  0.4036 -0.8259
   19SAPC   H9Y 2520   2.753   2.451   9.023  2.5919  0.4021  1.2469
   19SAPC  C310 2521   2.675   2.311   8.877 -0.0090  0.1076 -0.4059
   19SAPC  H10X 2522   2.603   2.394   8.889  1.6015  1.6062 -0.6330
   19SAPC  H10Y 2523   2.635   2.208   8.884 -0.3538  0.1919 -1.1097
   19SAPC  C311 2524   2.762   2.336   8.753 -0.3846  0.3950  0.6611
   19SAPC  H11X 2525   2.841   2.258   8.751  0.2380  0.8827  2.9138
   19SAPC  H11Y 2526   2.813   2.435   8.760  0.6140 -0.1044  0.5574
   19SAPC  C312 2527   2.677   2.336   8.632  0.3306 -0.4518  1.2533
   19SAPC  H12X 2528   2.607   2.422   8.628 -1.6084 -1.9663 -1.3921
   19SAPC  H12Y 2529   2.615   2.246   8.613 -1.6942  1.4736 -2.3972
   19SAPC  C313 2530   2.757   2.349   8.501  0.6978 -0.1896  0.2617
   19SAPC  H13X 2531   2.831   2.266   8.504 -0.0089 -0.8141  3.2189
   19SAPC  H13Y 2532   2.806   2.449   8.507  0.5115 -0.1795  2.0802
   19SAPC  C314 2533   2.678   2.339   8.368 -0.1137  0.2329  0.0898
   19SAPC  H14X 2534   2.574   2.346   8.405  0.1191  0.7624  0.6489
   19SAPC  H14Y 2535   2.684   2.233   8.333  2.6538  0.1513  0.6017
   19SAPC  C315 2536   2.714   2.450   8.272  0.4341 -0.4045  0.1404
   19SAPC  H15X 2537   2.822   2.438   8.247  0.5345 -1.5998  1.0502
   19SAPC  H15Y 2538   2.699   2.547   8.323  0.3440 -0.9466  1.1639
   19SAPC  C316 2539   2.636   2.453   8.142  0.0856  0.6434  0.0364
   19SAPC  H16X 2540   2.542   2.504   8.174  2.4011  3.8051  2.4556
   19SAPC  H16Y 2541   2.614   2.352   8.101  4.3874  0.5518 -2.6901
   19SAPC  C317 2542   2.708   2.548   8.038 -0.0697  0.1777  0.0409
   19SAPC  H17X 2543   2.811   2.515   8.012 -0.8145 -1.1710 -1.3149
   19SAPC  H17Y 2544   2.735   2.641   8.093  0.2258  0.2994 -0.3049
   19SAPC  C318 2545   2.628   2.574   7.905 -0.0086  0.3506 -0.0205
   19SAPC  H18X 2546   2.582   2.485   7.858 -0.0694  1.3554 -1.9432
   19SAPC  H18Y 2547   2.692   2.632   7.835  2.0254 -1.7195  0.0132
   19SAPC  H18Z 2548   2.541   2.635   7.938 -0.6319 -1.6857  2.4602
   20SAPC     N 2549   0.386   5.805  11.135  0.4433  0.3847  0.0351
   20SAPC   C12 2550   0.482   5.697  11.173  0.0418 -0.0981 -0.1881
   20SAPC  H12A 2551   0.494   5.708  11.279 -0.4339  0.6714 -0.2042
   20SAPC  H12B 2552   0.584   5.710  11.142  0.8596 -0.7010  2.0981
   20SAPC   C13 2553   0.251   5.778  11.191  0.4817 -0.8091  0.2441
   20SAPC  H13A 2554   0.186   5.863  11.183  0.9775 -0.4332  0.1150
   20SAPC  H13B 2555   0.201   5.694  11.145 -1.3522  0.9571 -1.1305
   20SAPC  H13C 2556   0.260   5.764  11.298  0.3020 -1.1137  0.2215
   20SAPC   C14 2557   0.435   5.939  11.180 -0.5316 -0.1772  0.3168
   20SAPC  H14A 2558   0.478   5.923  11.278 -0.3790  0.6517  0.3933
   20SAPC  H14B 2559   0.513   5.975  11.115  1.5238 -3.7298  0.5359
   20SAPC  H14C 2560   0.345   6.000  11.181 -0.5458 -0.1948  0.1886
   20SAPC   C15 2561   0.367   5.804  10.991 -0.0434 -0.9355 -0.5808
   20SAPC  H15A 2562   0.347   5.906  10.963  1.6338 -0.3634  0.1652
   20SAPC  H15B 2563   0.464   5.790  10.945 -0.6744  1.0348 -2.6785
   20SAPC  H15C 2564   0.294   5.731  10.958  0.5423 -2.0451  0.4934
   20SAPC   C11 2565   0.441   5.560  11.131 -0.3313  0.0954  0.0155
   20SAPC  H11A 2566   0.343   5.542  11.179  0.2058  1.1700  1.6223
   20SAPC  H11B 2567   0.505   5.484  11.182  0.8155  1.0684  0.0736
   20SAPC     P 2568   0.571   5.522  10.912  0.1691  0.4208 -0.0478
   20SAPC   O13 2569   0.646   5.651  10.913  0.0966 -0.8681 -0.5142
   20SAPC   O14 2570   0.637   5.404  10.982 -0.4402  0.1154  0.0680
   20SAPC   O12 2571   0.429   5.533  10.988  0.3520  0.2214  0.1637
   20SAPC   O11 2572   0.532   5.484  10.770 -0.1466  0.1558  0.0912
   20SAPC    C1 2573   0.401   5.496  10.710  0.1239 -0.0627  0.2959
   20SAPC    HA 2574   0.380   5.435  10.620  2.9410 -0.6123 -0.0817
   20SAPC    HB 2575   0.324   5.483  10.789  3.2756 -0.7798  3.5003
   20SAPC    C2 2576   0.384   5.644  10.652 -0.7855  0.1347  0.3734
   20SAPC    HS 2577   0.400   5.701  10.746  4.7294 -0.1577 -0.0543
   20SAPC   O21 2578   0.261   5.662  10.591 -0.7812  0.1366 -0.0069
   20SAPC   C21 2579   0.202   5.787  10.607 -0.2040  0.0936 -0.0944
   20SAPC   O22 2580   0.257   5.888  10.648 -0.3177  0.4001 -0.4248
   20SAPC   C22 2581   0.064   5.786  10.561  0.0820 -0.7653  0.6525
   20SAPC   H2R 2582  -0.004   5.714  10.612 -1.1001 -1.5230 -1.8486
   20SAPC   H2S 2583   0.017   5.886  10.570  0.1475 -0.7865  1.3053
   20SAPC    C3 2584   0.507   5.688  10.557 -0.4196  0.3364  0.8231
   20SAPC    HX 2585   0.603   5.682  10.612  0.9212 -0.5102 -1.4960
   20SAPC    HY 2586   0.482   5.793  10.531  1.6718  1.1405  1.8472
   20SAPC   O31 2587   0.507   5.602  10.438  0.3909 -0.4556 -0.6450
   20SAPC   C31 2588   0.595   5.648  10.344  0.5311 -0.2634 -0.1595
   20SAPC   O32 2589   0.657   5.755  10.350 -0.4851  0.4008 -0.5173
   20SAPC   C32 2590   0.606   5.543  10.236  0.9288 -0.2342  0.8183
   20SAPC   H2X 2591   0.502   5.540  10.199  1.6436 -0.4998 -1.3173
   20SAPC   H2Y 2592   0.622   5.447  10.290  1.9233 -1.4696 -1.5480
   20SAPC   C23 2593   0.063   5.741  10.410 -0.3680 -0.0048  0.1699
   20SAPC   H3R 2594  -0.042   5.734  10.375  0.1339 -0.6365 -1.3140
   20SAPC   H3S 2595   0.113   5.646  10.383 -0.8388  0.0677 -1.0109
   20SAPC   C24 2596   0.120   5.858  10.334  0.2852  0.0934  0.3063
   20SAPC   H4R 2597   0.087   5.955  10.379  0.6110 -0.5287  1.9773
   20SAPC   H4S 2598   0.062   5.862  10.239 -0.7294  0.9233  0.9315
   20SAPC   C25 2599   0.271   5.866  10.315 -0.7665 -0.7068  0.1098
   20SAPC   H5R 2600   0.320   5.932  10.387 -2.1685  0.6343 -0.1053
   20SAPC   C26 2601   0.341   5.829  10.206 -0.8132  0.7240 -0.8821
   20SAPC   H6R 2602   0.447   5.856  10.212 -0.8104  0.3730  1.2417
   20SAPC   C27 2603   0.295   5.753  10.079  0.0966 -0.5012  0.3890
   20SAPC   H7R 2604   0.184   5.750  10.079  0.1167 -3.1194  0.8072
   20SAPC   H7S 2605   0.332   5.648  10.080  4.4239  0.8356  0.5292
   20SAPC   C28 2606   0.330   5.825   9.952  0.0391  0.7885 -0.8478
   20SAPC   H8R 2607   0.322   5.935   9.959 -1.5117  0.6569 -0.1887
   20SAPC   C29 2608   0.350   5.760   9.839 -0.4264 -0.2975  0.0818
   20SAPC   H9R 2609   0.365   5.812   9.743 -0.9473 -1.1748 -0.4937
   20SAPC  C210 2610   0.341   5.611   9.813  0.0034 -0.1298  0.1851
   20SAPC  H10R 2611   0.273   5.561   9.885 -2.0675  1.0827 -0.8466
   20SAPC  H10S 2612   0.440   5.560   9.817  1.5187  2.6343  0.7214
   20SAPC  C211 2613   0.286   5.576   9.676 -0.3176  0.3947 -0.8148
   20SAPC  H11R 2614   0.181   5.546   9.667 -0.3825  0.9399 -2.0902
   20SAPC  C212 2615   0.370   5.566   9.570 -0.1985  0.3645  1.2184
   20SAPC  H12R 2616   0.322   5.538   9.475 -2.0608 -0.0197  2.2305
   20SAPC  C213 2617   0.521   5.592   9.554 -0.2134  0.0968  0.7721
   20SAPC  H13R 2618   0.558   5.643   9.646  2.6216  0.0190 -0.2460
   20SAPC  H13S 2619   0.535   5.663   9.470 -3.1498  0.2155  0.2545
   20SAPC  C214 2620   0.603   5.470   9.531 -0.2859 -0.5045 -0.1677
   20SAPC  H14R 2621   0.643   5.434   9.627  2.3151  2.0413 -0.1449
   20SAPC  C215 2622   0.635   5.400   9.421 -0.0262  0.0636 -0.1370
   20SAPC  H15R 2623   0.717   5.327   9.429  0.9383  1.0044 -1.0372
   20SAPC  C216 2624   0.612   5.426   9.271 -0.4696 -0.2091  0.1251
   20SAPC  H16R 2625   0.594   5.535   9.269 -0.7923 -0.2025  1.9560
   20SAPC  H16S 2626   0.512   5.386   9.243  0.0567 -1.2411 -0.3374
   20SAPC  C217 2627   0.719   5.390   9.165  0.5839  0.4245  0.2800
   20SAPC  H17R 2628   0.744   5.283   9.183 -1.5322  0.2101  2.5535
   20SAPC  H17S 2629   0.805   5.458   9.178  0.5313  0.6286 -0.4035
   20SAPC  C218 2630   0.672   5.392   9.019  0.8146  1.2659  0.2831
   20SAPC  H18R 2631   0.756   5.380   8.946 -1.4449  0.2970 -2.3396
   20SAPC  H18S 2632   0.613   5.485   9.005 -1.2532 -0.2204 -1.5971
   20SAPC  C219 2633   0.578   5.277   8.979  0.2144  0.5560 -0.2847
   20SAPC  H19R 2634   0.505   5.260   9.060 -0.3866 -3.0227 -1.3835
   20SAPC  H19S 2635   0.644   5.190   8.956  0.6904  0.0742  2.5578
   20SAPC  C220 2636   0.493   5.304   8.847  0.3217  0.5238  0.1999
   20SAPC  H20R 2637   0.569   5.351   8.781  1.7513 -0.3691  1.1677
   20SAPC  H20S 2638   0.402   5.365   8.869 -1.1240 -0.7642 -1.8197
   20SAPC  H20T 2639   0.460   5.203   8.815 -1.1395  0.7281  0.9774
   20SAPC   C33 2640   0.714   5.562  10.130  0.0148 -0.0479  0.1521
   20SAPC   H3X 2641   0.716   5.466  10.075  0.4213  0.3638 -0.5761
   20SAPC   H3Y 2642   0.808   5.585  10.184  0.4301  2.2789 -1.3830
   20SAPC   C34 2643   0.693   5.674  10.022  0.1854 -0.2313 -0.3707
   20SAPC   H4X 2644   0.687   5.771  10.076  1.0274 -0.3605 -0.0343
   20SAPC   H4Y 2645   0.599   5.657   9.964 -0.4491  1.9951 -0.0841
   20SAPC   C35 2646   0.797   5.685   9.915 -0.6108 -0.2664 -0.1910
   20SAPC   H5X 2647   0.788   5.597   9.848 -0.7438  0.4988 -1.2072
   20SAPC   H5Y 2648   0.896   5.685   9.965 -0.3452 -0.4643 -0.7129
   20SAPC   C36 2649   0.783   5.808   9.827 -0.2222 -0.8696  0.1262
   20SAPC   H6X 2650   0.835   5.894   9.874 -1.6837  0.1550 -0.0727
   20SAPC   H6Y 2651   0.675   5.829   9.819 -0.5067 -1.6674  1.6637
   20SAPC   C37 2652   0.833   5.786   9.686  0.2695  0.4329  0.3486
   20SAPC   H7X 2653   0.782   5.691   9.660  2.3013 -0.7505  0.5028
   20SAPC   H7Y 2654   0.941   5.764   9.689  0.0618 -0.6128  0.4210
   20SAPC   C38 2655   0.817   5.902   9.592  0.4721  0.2268 -0.8111
   20SAPC   H8X 2656   0.858   5.993   9.643 -1.4918  0.8012 -0.1615
   20SAPC   H8Y 2657   0.710   5.922   9.573 -0.0623 -0.4778  1.2167
   20SAPC   C39 2658   0.884   5.878   9.453 -0.1767 -0.3406  0.4442
   20SAPC   H9X 2659   0.983   5.826   9.456  0.4875  0.7968 -0.7026
   20SAPC   H9Y 2660   0.899   5.975   9.402 -1.2379 -0.0011  0.7581
   20SAPC  C310 2661   0.794   5.787   9.369 -0.8579  0.0764  0.5164
   20SAPC  H10X 2662   0.690   5.826   9.372 -0.6696  0.9063 -1.5553
   20SAPC  H10Y 2663   0.788   5.690   9.423  0.4161  0.5943  1.6279
   20SAPC  C311 2664   0.842   5.765   9.223  0.3889 -0.1462 -0.3586
   20SAPC  H11X 2665   0.787   5.673   9.193  0.2981 -0.3493  0.4210
   20SAPC  H11Y 2666   0.951   5.742   9.231 -0.2728 -3.6429  0.2010
   20SAPC  C312 2667   0.823   5.891   9.134 -0.1426 -0.8901 -0.0109
   20SAPC  H12X 2668   0.861   5.983   9.185 -3.2311 -0.1816  1.1985
   20SAPC  H12Y 2669   0.718   5.909   9.105 -0.2233  0.7669  1.1262
   20SAPC  C313 2670   0.918   5.880   9.017 -0.6700  0.2572  0.1011
   20SAPC  H13X 2671   1.016   5.845   9.055 -0.9448  0.5524  1.1291
   20SAPC  H13Y 2672   0.936   5.977   8.967 -1.7409  2.2801  3.2856
   20SAPC  C314 2673   0.880   5.767   8.915 -0.1769  0.0217  0.5674
   20SAPC  H14X 2674   0.775   5.782   8.882 -0.3999  1.8304  1.9521
   20SAPC  H14Y 2675   0.900   5.673   8.972 -0.6003 -0.4351 -0.0218
   20SAPC  C315 2676   0.962   5.785   8.786  0.3918  1.3940 -0.0598
   20SAPC  H15X 2677   1.067   5.767   8.820  0.8105  3.4315 -0.1829
   20SAPC  H15Y 2678   0.956   5.887   8.744  0.6613  0.4443 -2.5804
   20SAPC  C316 2679   0.921   5.689   8.673  0.6915  0.1106  0.0278
   20SAPC  H16X 2680   0.997   5.697   8.592 -0.1113  1.0991 -0.6555
   20SAPC  H16Y 2681   0.831   5.740   8.631 -0.1674 -1.9189 -0.7385
   20SAPC  C317 2682   0.887   5.545   8.712 -0.0749 -0.5428 -0.0273
   20SAPC  H17X 2683   0.851   5.493   8.620 -2.2731  1.8928 -0.6625
   20SAPC  H17Y 2684   0.805   5.546   8.786  1.6294  1.1494  1.9686
   20SAPC  C318 2685   1.018   5.481   8.760 -0.1970  0.4202  0.5005
   20SAPC  H18X 2686   1.072   5.432   8.676 -1.8831  0.2585 -0.5313
   20SAPC  H18Y 2687   0.993   5.390   8.818 -0.4027 -0.5219 -1.0012
   20SAPC  H18Z 2688   1.085   5.543   8.823  2.2270  0.7741 -2.2210
   21SAPC     N 2689   1.842   4.922  10.767 -0.0021 -0.1323 -0.1887
   21SAPC   C12 2690   1.700   4.892  10.733  1.2726  0.1697 -0.1498
   21SAPC  H12A 2691   1.666   4.989  10.698  1.3093  0.4988  0.7045
   21SAPC  H12B 2692   1.648   4.857  10.820  3.0305  0.4922  1.0864
   21SAPC   C13 2693   1.913   4.808  10.835 -0.4716  0.0846 -0.6018
   21SAPC  H13A 2694   2.020   4.816  10.828 -0.5684  1.2870 -0.8692
   21SAPC  H13B 2695   1.894   4.799  10.941  0.1943 -0.5422 -0.5241
   21SAPC  H13C 2696   1.896   4.712  10.788  1.1273 -0.8497  0.6044
   21SAPC   C14 2697   1.912   4.963  10.639  0.3196 -0.3205 -0.6857
   21SAPC  H14A 2698   2.012   4.995  10.662 -1.1779  3.9218  0.7869
   21SAPC  H14B 2699   1.901   4.895  10.556 -0.0626  0.1678 -1.0379
   21SAPC  H14C 2700   1.863   5.051  10.600 -1.7871 -1.2739 -0.3372
   21SAPC   C15 2701   1.845   5.042  10.850 -0.3193 -0.2926 -0.0480
   21SAPC  H15A 2702   1.790   5.126  10.810  0.7051  1.7284  2.4851
   21SAPC  H15B 2703   1.799   5.033  10.947  0.5004  3.1500  0.8247
   21SAPC  H15C 2704   1.946   5.079  10.858  0.0504 -1.1609 -0.5833
   21SAPC   C11 2705   1.682   4.783  10.631  0.4038 -0.2525  0.3861
   21SAPC  H11A 2706   1.738   4.805  10.538 -0.2591 -0.7632 -0.1478
   21SAPC  H11B 2707   1.574   4.788  10.604  0.8086 -0.2189 -1.3334
   21SAPC     P 2708   1.642   4.550  10.763  0.2029 -0.2980  0.3055
   21SAPC   O13 2709   1.740   4.454  10.809  0.0242  0.0103 -0.3800
   21SAPC   O14 2710   1.566   4.617  10.874  0.2501  0.0640  0.5129
   21SAPC   O12 2711   1.725   4.655  10.676  0.0650  0.0804 -0.5789
   21SAPC   O11 2712   1.538   4.490  10.655  0.2361 -0.7057 -0.8155
   21SAPC    C1 2713   1.584   4.406  10.544  0.6058  0.7924  0.3231
   21SAPC    HA 2714   1.690   4.377  10.550  0.5091  0.4473  0.3614
   21SAPC    HB 2715   1.531   4.309  10.544  0.4353  0.8836 -0.0488
   21SAPC    C2 2716   1.557   4.480  10.415  0.3329 -0.2697  0.4107
   21SAPC    HS 2717   1.589   4.584  10.436  2.3592 -0.4884 -1.2517
   21SAPC   O21 2718   1.415   4.464  10.396 -0.4386 -0.0801  0.2413
   21SAPC   C21 2719   1.356   4.555  10.332 -0.7137 -0.4355 -0.1095
   21SAPC   O22 2720   1.409   4.659  10.294 -0.2682 -0.3537  0.1247
   21SAPC   C22 2721   1.212   4.507  10.295  0.8407 -0.2949 -0.8464
   21SAPC   H2R 2722   1.195   4.398  10.292  3.1153 -0.7178 -0.2389
   21SAPC   H2S 2723   1.156   4.549  10.381  0.3928  0.0364 -1.2920
   21SAPC    C3 2724   1.635   4.420  10.293  0.0537  1.0120  0.6116
   21SAPC    HX 2725   1.617   4.312  10.273 -1.8522  1.3453  0.2895
   21SAPC    HY 2726   1.743   4.432  10.314  0.2917  1.0575 -0.5363
   21SAPC   O31 2727   1.594   4.488  10.172 -0.3362 -0.3969  0.1526
   21SAPC   C31 2728   1.682   4.563  10.107 -0.2591 -0.2843 -0.4092
   21SAPC   O32 2729   1.804   4.569  10.130  0.4152  0.4124 -0.0219
   21SAPC   C32 2730   1.605   4.626   9.996 -0.3242 -0.0165  0.5355
   21SAPC   H2X 2731   1.513   4.679  10.030 -0.4724  0.3500 -0.4253
   21SAPC   H2Y 2732   1.581   4.551   9.918  2.2894  0.0839 -0.4472
   21SAPC   C23 2733   1.163   4.571  10.165 -0.3253 -0.0676 -0.0331
   21SAPC   H3R 2734   1.171   4.682  10.167 -0.5572 -0.0436 -0.2908
   21SAPC   H3S 2735   1.055   4.548  10.152 -0.4384  1.2881 -2.0797
   21SAPC   C24 2736   1.235   4.520  10.042  0.1320  0.0833 -0.4142
   21SAPC   H4R 2737   1.181   4.426  10.019  2.7431 -1.4352 -0.7840
   21SAPC   H4S 2738   1.339   4.492  10.070 -0.1335  0.0868  0.6196
   21SAPC   C25 2739   1.259   4.617   9.928 -0.1754  0.3226 -0.2128
   21SAPC   H5R 2740   1.288   4.718   9.960 -0.2481 -0.0847  1.1708
   21SAPC   C26 2741   1.241   4.593   9.798  0.8915  0.5157 -0.2668
   21SAPC   H6R 2742   1.246   4.676   9.726 -3.1812  1.7319  0.6283
   21SAPC   C27 2743   1.188   4.470   9.738  0.6101 -0.5194 -0.8301
   21SAPC   H7R 2744   1.087   4.492   9.696  0.8914 -0.5605 -1.5439
   21SAPC   H7S 2745   1.166   4.385   9.806  2.5422 -1.2523 -1.0635
   21SAPC   C28 2746   1.273   4.419   9.626  0.6221 -0.3072  0.3170
   21SAPC   H8R 2747   1.381   4.418   9.645  0.7208 -0.8288 -0.2438
   21SAPC   C29 2748   1.223   4.385   9.506 -0.0022  0.2042 -0.2861
   21SAPC   H9R 2749   1.298   4.331   9.445 -0.3108 -1.1843  0.5300
   21SAPC  C210 2750   1.090   4.377   9.457  0.0393  0.0802  1.0208
   21SAPC  H10R 2751   1.080   4.477   9.409  4.6634  0.2696  0.0257
   21SAPC  H10S 2752   1.019   4.378   9.543 -0.0323 -3.2492  1.1298
   21SAPC  C211 2753   1.040   4.268   9.368  0.4102  0.1687 -0.2304
   21SAPC  H11R 2754   0.982   4.192   9.423 -1.3294  2.2748  1.0151
   21SAPC  C212 2755   1.057   4.256   9.235 -0.4210 -0.5962 -0.0502
   21SAPC  H12R 2756   1.011   4.173   9.180  0.5376 -0.7940 -0.5725
   21SAPC  C213 2757   1.128   4.356   9.151  0.3267  0.8629 -0.0867
   21SAPC  H13R 2758   1.187   4.421   9.219 -0.5125  0.1465  1.3918
   21SAPC  H13S 2759   1.055   4.420   9.097  0.6919  0.9697 -0.4552
   21SAPC  C214 2760   1.220   4.274   9.059 -0.2125 -0.8309 -0.2814
   21SAPC  H14R 2761   1.289   4.205   9.109 -1.3508 -2.5025 -0.9561
   21SAPC  C215 2762   1.231   4.277   8.926 -0.0106 -0.8376  0.0416
   21SAPC  H15R 2763   1.312   4.217   8.880  1.8297  1.5371 -0.0221
   21SAPC  C216 2764   1.161   4.380   8.840 -0.5000  0.1770  0.1960
   21SAPC  H16R 2765   1.242   4.436   8.789 -0.1820  0.7751  1.3399
   21SAPC  H16S 2766   1.087   4.431   8.905 -1.5685 -1.8726  0.6897
   21SAPC  C217 2767   1.083   4.325   8.723  0.7963  0.2286 -0.2360
   21SAPC  H17R 2768   1.000   4.264   8.764 -0.3189  2.0087  0.2484
   21SAPC  H17S 2769   1.145   4.261   8.656  2.1697  0.6260  0.6027
   21SAPC  C218 2770   1.022   4.442   8.635 -0.5419  0.2674 -0.0002
   21SAPC  H18R 2771   1.103   4.508   8.595  1.5048 -0.7423  2.2241
   21SAPC  H18S 2772   0.953   4.507   8.693 -0.0800  1.8303 -1.1307
   21SAPC  C219 2773   0.933   4.411   8.515 -0.7311 -0.6582 -0.5292
   21SAPC  H19R 2774   0.987   4.343   8.446 -0.9188  0.1201 -1.4774
   21SAPC  H19S 2775   0.919   4.508   8.461  1.6112  0.4760  0.7388
   21SAPC  C220 2776   0.802   4.357   8.554 -0.1711  0.8545 -0.0012
   21SAPC  H20R 2777   0.798   4.301   8.650 -0.1993  0.3504 -0.2890
   21SAPC  H20S 2778   0.762   4.288   8.476  1.2482 -0.7049  0.6020
   21SAPC  H20T 2779   0.733   4.444   8.558 -0.2959  0.8702 -1.7822
   21SAPC   C33 2780   1.690   4.736   9.927 -0.0463 -0.6178  0.0936
   21SAPC   H3X 2781   1.792   4.698   9.901  0.7227  1.1021  0.4094
   21SAPC   H3Y 2782   1.721   4.819   9.995  1.9041 -1.3645  0.1899
   21SAPC   C34 2783   1.625   4.784   9.801 -0.6360 -0.1385  0.7694
   21SAPC   H4X 2784   1.697   4.859   9.761  1.0735 -1.2548  1.6387
   21SAPC   H4Y 2785   1.532   4.844   9.818 -0.9212  0.2530 -1.8805
   21SAPC   C35 2786   1.618   4.682   9.691  0.0450 -0.1680  0.8019
   21SAPC   H5X 2787   1.525   4.623   9.710 -0.1942 -0.0537  0.0212
   21SAPC   H5Y 2788   1.708   4.619   9.708 -0.2946 -1.6704 -2.2329
   21SAPC   C36 2789   1.629   4.740   9.551 -0.2143 -0.2867 -0.9220
   21SAPC   H6X 2790   1.731   4.781   9.535  0.1632 -0.3340  1.0732
   21SAPC   H6Y 2791   1.562   4.827   9.541 -0.0442  0.2954  2.0448
   21SAPC   C37 2792   1.615   4.631   9.441  0.0139  0.0115 -0.6823
   21SAPC   H7X 2793   1.570   4.535   9.475  1.8342 -0.9157 -0.7970
   21SAPC   H7Y 2794   1.720   4.601   9.420  0.0251  0.0873 -0.7346
   21SAPC   C38 2795   1.562   4.665   9.305 -0.1590  0.3520  0.6062
   21SAPC   H8X 2796   1.629   4.739   9.256 -0.5151 -0.0714 -0.5322
   21SAPC   H8Y 2797   1.467   4.722   9.320 -0.4470  0.2526 -0.7478
   21SAPC   C39 2798   1.547   4.541   9.217  0.5391  0.6312 -0.1971
   21SAPC   H9X 2799   1.484   4.464   9.267  0.8339 -0.9051 -2.0561
   21SAPC   H9Y 2800   1.645   4.495   9.194 -0.3409 -3.3795  2.9867
   21SAPC  C310 2801   1.465   4.570   9.085 -0.4986 -0.3254 -0.6827
   21SAPC  H10X 2802   1.362   4.602   9.111  0.0180 -0.6462  2.0099
   21SAPC  H10Y 2803   1.445   4.480   9.024 -0.7253  0.1842 -1.3754
   21SAPC  C311 2804   1.513   4.701   9.016  0.1325  0.4006  0.1783
   21SAPC  H11X 2805   1.617   4.680   8.984 -0.1140 -1.3505  0.4088
   21SAPC  H11Y 2806   1.503   4.793   9.077  2.5677  0.0389  1.2160
   21SAPC  C312 2807   1.434   4.725   8.882  0.0441 -0.2500  0.5427
   21SAPC  H12X 2808   1.328   4.738   8.911  0.8251  2.0266  2.7772
   21SAPC  H12Y 2809   1.451   4.638   8.815  1.0770  0.9546 -0.8343
   21SAPC  C313 2810   1.468   4.852   8.809 -0.7423 -0.2861  0.0779
   21SAPC  H13X 2811   1.447   4.945   8.866  1.6350 -0.2748  1.0299
   21SAPC  H13Y 2812   1.413   4.857   8.712  0.1788  1.3928 -0.3926
   21SAPC  C314 2813   1.623   4.854   8.774 -0.6117  0.7548  0.2292
   21SAPC  H14X 2814   1.653   4.752   8.739 -1.0897  0.1230  1.5886
   21SAPC  H14Y 2815   1.676   4.879   8.868  0.5376  0.3331 -0.2962
   21SAPC  C315 2816   1.679   4.956   8.680 -0.3678 -0.0375  0.4385
   21SAPC  H15X 2817   1.641   4.927   8.579  0.9667 -0.2807 -0.0101
   21SAPC  H15Y 2818   1.787   4.930   8.679 -0.8423 -2.1661 -0.0173
   21SAPC  C316 2819   1.650   5.104   8.703 -0.0400 -0.1937  0.2301
   21SAPC  H16X 2820   1.629   5.118   8.811  0.0484  0.3909  0.1736
   21SAPC  H16Y 2821   1.549   5.113   8.657 -0.1011  2.8779  0.7457
   21SAPC  C317 2822   1.743   5.214   8.650  0.4599 -0.0589  0.3106
   21SAPC  H17X 2823   1.697   5.312   8.676  1.6681  0.4880  0.4549
   21SAPC  H17Y 2824   1.753   5.217   8.540 -0.4095  0.4309  0.2293
   21SAPC  C318 2825   1.879   5.216   8.720 -0.1693  0.0813 -0.2194
   21SAPC  H18X 2826   1.934   5.311   8.705 -0.1405  0.0714 -0.1794
   21SAPC  H18Y 2827   1.936   5.121   8.706 -3.3864 -1.9135 -0.7916
   21SAPC  H18Z 2828   1.844   5.212   8.826 -3.0157 -0.6777 -1.0920
   22SAPC     N 2829   1.951   1.858  10.849 -0.0631 -0.1387  0.2458
   22SAPC   C12 2830   1.938   1.805  10.702  0.1416  0.8963 -0.2729
   22SAPC  H12A 2831   1.975   1.884  10.639 -2.3385  0.6785 -2.1406
   22SAPC  H12B 2832   1.831   1.803  10.688  0.1198  0.4726 -0.0744
   22SAPC   C13 2833   2.093   1.877  10.895 -0.3647  0.1371 -0.4491
   22SAPC  H13A 2834   2.154   1.788  10.898  0.9730  0.8560 -2.9731
   22SAPC  H13B 2835   2.145   1.938  10.821  0.5342  0.0905  0.1241
   22SAPC  H13C 2836   2.101   1.919  10.994  0.3684  1.5159 -1.0553
   22SAPC   C14 2837   1.879   1.995  10.865 -0.0504  0.1647  0.1672
   22SAPC  H14A 2838   1.900   2.040  10.961 -0.6324  0.2535  0.2567
   22SAPC  H14B 2839   1.914   2.068  10.793 -0.6556 -0.0393 -0.3386
   22SAPC  H14C 2840   1.772   1.985  10.869 -0.0169 -0.1435  0.3675
   22SAPC   C15 2841   1.888   1.772  10.947  0.3203 -0.6003  0.2778
   22SAPC  H15A 2842   1.780   1.780  10.944  0.4769  1.8505 -0.8861
   22SAPC  H15B 2843   1.916   1.669  10.927  1.1436 -0.1594 -0.9441
   22SAPC  H15C 2844   1.920   1.796  11.047 -0.6287 -2.7397  1.1616
   22SAPC   C11 2845   2.006   1.667  10.663 -0.7761 -0.6638  0.5647
   22SAPC  H11A 2846   1.993   1.656  10.553  0.2337  0.5957  0.2961
   22SAPC  H11B 2847   1.956   1.577  10.704 -0.3382 -1.7401 -1.1458
   22SAPC     P 2848   2.236   1.546  10.692 -0.2519 -0.2489  0.0108
   22SAPC   O13 2849   2.373   1.581  10.754  0.1423 -0.7015 -0.0889
   22SAPC   O14 2850   2.171   1.429  10.758 -0.2943  0.3380  0.4393
   22SAPC   O12 2851   2.147   1.670  10.699  0.1533 -0.2858 -0.2386
   22SAPC   O11 2852   2.245   1.518  10.540 -0.0214  0.2712  0.1722
   22SAPC    C1 2853   2.319   1.593  10.435  0.9324  0.3305 -0.0770
   22SAPC    HA 2854   2.372   1.681  10.478 -0.0442  0.3730  1.0782
   22SAPC    HB 2855   2.397   1.520  10.403  0.4255 -0.4227  0.3771
   22SAPC    C2 2856   2.223   1.641  10.311 -0.7520 -0.2308 -0.1631
   22SAPC    HS 2857   2.132   1.687  10.353 -1.1101  0.1001 -1.2705
   22SAPC   O21 2858   2.188   1.525  10.221  0.1999 -0.0096  0.1886
   22SAPC   C21 2859   2.066   1.532  10.173 -0.8137 -0.2446  0.9973
   22SAPC   O22 2860   1.983   1.612  10.204 -0.1172  0.2424 -0.2622
   22SAPC   C22 2861   2.044   1.436  10.056  0.0543  0.3996 -0.1526
   22SAPC   H2R 2862   2.130   1.451   9.987 -0.0905 -1.3809 -0.7741
   22SAPC   H2S 2863   2.063   1.338  10.105  2.3954 -0.6725 -2.8976
   22SAPC    C3 2864   2.288   1.755  10.228  0.2651  0.0817 -0.1035
   22SAPC    HX 2865   2.393   1.725  10.205 -0.1135 -1.0055 -0.4854
   22SAPC    HY 2866   2.302   1.838  10.300  0.1497 -0.1364  0.1756
   22SAPC   O31 2867   2.215   1.788  10.114  0.2219 -0.0642 -0.4480
   22SAPC   C31 2868   2.120   1.872  10.135  0.8395 -0.2376 -0.5717
   22SAPC   O32 2869   2.076   1.915  10.246 -0.0918  0.2409 -0.6063
   22SAPC   C32 2870   2.052   1.900   9.999  0.0841  0.1865 -0.7120
   22SAPC   H2X 2871   2.030   2.009   9.997 -0.0096  0.4820  4.0731
   22SAPC   H2Y 2872   1.953   1.849  10.006 -0.9301  2.2349  2.7781
   22SAPC   C23 2873   1.906   1.439   9.980 -0.4049 -0.1566  0.3987
   22SAPC   H3R 2874   1.813   1.432  10.040 -0.6767 -0.6333 -0.0674
   22SAPC   H3S 2875   1.900   1.350   9.913 -0.4822 -1.0712  1.5744
   22SAPC   C24 2876   1.883   1.567   9.896 -0.2865  0.2176 -0.1873
   22SAPC   H4R 2877   1.968   1.576   9.826  0.1805  2.4030  0.6122
   22SAPC   H4S 2878   1.886   1.658   9.958  0.2992  0.8867 -1.1676
   22SAPC   C25 2879   1.751   1.563   9.825 -0.8818 -0.3499 -0.2692
   22SAPC   H5R 2880   1.665   1.561   9.892 -0.7289  0.8944 -0.0223
   22SAPC   C26 2881   1.731   1.560   9.693 -0.5491 -0.1879  0.8096
   22SAPC   H6R 2882   1.625   1.573   9.665  0.1468 -0.4848 -2.4115
   22SAPC   C27 2883   1.833   1.552   9.576 -0.1195  1.0591 -0.3525
   22SAPC   H7R 2884   1.938   1.576   9.605  0.1649 -0.8570  0.4099
   22SAPC   H7S 2885   1.811   1.631   9.502  0.4180  0.9961 -0.5888
   22SAPC   C28 2886   1.829   1.418   9.508  0.2173 -0.3045  0.2398
   22SAPC   H8R 2887   1.847   1.332   9.575  0.5418 -0.5910 -0.2114
   22SAPC   C29 2888   1.816   1.385   9.378  1.4273 -0.4384  0.5994
   22SAPC   H9R 2889   1.788   1.283   9.349 -0.7495  0.7053 -1.7452
   22SAPC  C210 2890   1.792   1.486   9.264 -0.2631  0.2390  0.2741
   22SAPC  H10R 2891   1.866   1.567   9.280  1.1851 -1.2376  1.4535
   22SAPC  H10S 2892   1.688   1.524   9.263  0.0112  1.0102  0.4595
   22SAPC  C211 2893   1.834   1.406   9.141  1.0996  0.0630 -0.4378
   22SAPC  H11R 2894   1.933   1.358   9.150  0.9689 -0.7427 -2.6957
   22SAPC  C212 2895   1.769   1.414   9.024  0.2315 -0.2074  0.0671
   22SAPC  H12R 2896   1.782   1.328   8.956 -0.8734  0.7741 -1.4481
   22SAPC  C213 2897   1.647   1.503   8.991  0.7714  0.5568  0.3843
   22SAPC  H13R 2898   1.620   1.577   9.069 -1.1458  0.5925 -0.2402
   22SAPC  H13S 2899   1.558   1.438   8.973  1.5611 -0.4990  0.1520
   22SAPC  C214 2900   1.663   1.586   8.863  0.5910  0.0076  0.0425
   22SAPC  H14R 2901   1.678   1.695   8.871  1.5604 -0.1287  0.1139
   22SAPC  C215 2902   1.671   1.533   8.739  0.0786 -0.0678  0.6410
   22SAPC  H15R 2903   1.676   1.604   8.656 -0.5388 -0.9142 -0.1370
   22SAPC  C216 2904   1.669   1.386   8.699 -0.2353  0.0952  0.2817
   22SAPC  H16R 2905   1.590   1.374   8.622 -0.9090 -0.8973  1.0938
   22SAPC  H16S 2906   1.664   1.306   8.776  3.3758 -2.2339 -1.6217
   22SAPC  C217 2907   1.802   1.341   8.628  0.4184  0.5008 -0.0940
   22SAPC  H17R 2908   1.892   1.366   8.689  1.0811 -1.8041 -0.0370
   22SAPC  H17S 2909   1.813   1.399   8.534  1.1124  0.3074 -0.1406
   22SAPC  C218 2910   1.817   1.189   8.616  0.5855 -0.4408 -0.0144
   22SAPC  H18R 2911   1.766   1.148   8.526  0.9824  1.1098 -0.9703
   22SAPC  H18S 2912   1.783   1.148   8.714 -0.2451  1.2793  0.4449
   22SAPC  C219 2913   1.962   1.164   8.604 -0.1047  0.4372  0.6564
   22SAPC  H19R 2914   1.989   1.057   8.617 -1.2539 -0.1054 -1.0710
   22SAPC  H19S 2915   2.025   1.220   8.677  1.0214  2.7981 -1.9752
   22SAPC  C220 2916   2.012   1.186   8.463 -1.0152 -0.3773  0.2079
   22SAPC  H20R 2917   2.011   1.293   8.436 -1.0699 -0.9112 -2.0901
   22SAPC  H20S 2918   1.951   1.142   8.381  0.9494 -0.6652 -1.1847
   22SAPC  H20T 2919   2.120   1.160   8.452 -1.2584 -1.1992 -0.3920
   22SAPC   C33 2920   2.114   1.849   9.872 -0.3643  0.5214 -0.1291
   22SAPC   H3X 2921   2.030   1.846   9.799 -0.0443 -1.2210 -0.4550
   22SAPC   H3Y 2922   2.155   1.746   9.877 -2.5659 -0.4087 -0.1769
   22SAPC   C34 2923   2.233   1.945   9.827  0.2922  0.3518  0.0829
   22SAPC   H4X 2924   2.281   1.873   9.758  0.0783 -2.1717  2.3893
   22SAPC   H4Y 2925   2.305   1.973   9.907 -1.8857  0.8010  2.0026
   22SAPC   C35 2926   2.194   2.076   9.765  1.3303  0.6889  0.7035
   22SAPC   H5X 2927   2.179   2.159   9.838 -0.1275  1.2079 -0.1483
   22SAPC   H5Y 2928   2.095   2.060   9.719  1.3379  1.1098  0.5288
   22SAPC   C36 2929   2.281   2.128   9.651  0.1825 -0.7258 -0.5879
   22SAPC   H6X 2930   2.303   2.046   9.580  1.4504  0.2036 -1.2920
   22SAPC   H6Y 2931   2.382   2.149   9.692  0.1460 -0.4622 -0.6310
   22SAPC   C37 2932   2.222   2.256   9.594  0.3272 -0.1970  0.4459
   22SAPC   H7X 2933   2.259   2.334   9.664  3.3008 -1.7175  0.6937
   22SAPC   H7Y 2934   2.111   2.251   9.581  0.5788 -0.6238 -1.9920
   22SAPC   C38 2935   2.297   2.280   9.452  0.9236  0.6266 -0.7092
   22SAPC   H8X 2936   2.404   2.253   9.466  1.1592  0.6150 -2.3296
   22SAPC   H8Y 2937   2.282   2.390   9.448  0.1715  0.7728  2.9507
   22SAPC   C39 2938   2.226   2.215   9.330  0.4154  0.0827 -0.7314
   22SAPC   H9X 2939   2.124   2.259   9.324 -0.7019 -1.7397  2.5607
   22SAPC   H9Y 2940   2.205   2.106   9.333 -0.4610  0.2353 -1.0511
   22SAPC  C310 2941   2.297   2.248   9.204  0.2946  0.3446 -0.2275
   22SAPC  H10X 2942   2.256   2.193   9.117 -0.1489 -0.0104  0.2029
   22SAPC  H10Y 2943   2.406   2.225   9.211  0.1636 -1.1627 -2.1972
   22SAPC  C311 2944   2.285   2.403   9.161 -0.1836  0.2982 -0.0708
   22SAPC  H11X 2945   2.327   2.465   9.243 -0.3905 -1.3902  1.3617
   22SAPC  H11Y 2946   2.175   2.421   9.159 -0.3254 -0.3539  0.9694
   22SAPC  C312 2947   2.348   2.428   9.026 -0.0884 -0.2782  0.1413
   22SAPC  H12X 2948   2.301   2.371   8.943  0.2454 -0.1450 -0.1423
   22SAPC  H12Y 2949   2.452   2.393   9.043  0.4198  1.1000 -0.0031
   22SAPC  C313 2950   2.354   2.578   8.976  0.3089 -0.3134 -1.0328
   22SAPC  H13X 2951   2.424   2.641   9.035  1.2523 -1.6718 -0.6489
   22SAPC  H13Y 2952   2.249   2.611   8.990 -0.5635 -2.9399 -0.8674
   22SAPC  C314 2953   2.410   2.593   8.833  0.0447 -0.4190  0.0117
   22SAPC  H14X 2954   2.400   2.495   8.783 -2.6008 -0.9248  1.3429
   22SAPC  H14Y 2955   2.516   2.626   8.843  0.2730 -1.1482  0.0314
   22SAPC  C315 2956   2.345   2.708   8.741  0.5370  0.0131  0.1685
   22SAPC  H15X 2957   2.356   2.806   8.791  1.3222 -0.3124  0.6532
   22SAPC  H15Y 2958   2.236   2.688   8.741  0.6644 -1.4959 -3.4219
   22SAPC  C316 2959   2.414   2.695   8.605  0.4391 -0.0441 -0.6150
   22SAPC  H16X 2960   2.388   2.594   8.566 -1.8161  0.8927 -1.7027
   22SAPC  H16Y 2961   2.524   2.699   8.621  0.8738 -4.2168 -1.3159
   22SAPC  C317 2962   2.370   2.797   8.497 -0.3240  0.4439  0.7764
   22SAPC  H17X 2963   2.387   2.892   8.552  1.0187 -0.0251  1.2094
   22SAPC  H17Y 2964   2.266   2.781   8.461 -0.2713  0.8579  0.4331
   22SAPC  C318 2965   2.457   2.796   8.367  0.0534 -0.4134 -0.7775
   22SAPC  H18X 2966   2.432   2.706   8.307 -1.2009  0.2392 -1.2517
   22SAPC  H18Y 2967   2.567   2.797   8.388  0.0427 -1.5345 -0.5516
   22SAPC  H18Z 2968   2.438   2.888   8.309  1.3340 -0.0747 -0.7004
   23SAPC     N 2969   2.292   4.534  10.391 -0.4179  0.1377 -0.3761
   23SAPC   C12 2970   2.240   4.472  10.528  0.6130  0.0034 -0.1319
   23SAPC  H12A 2971   2.187   4.384  10.493  0.8078 -0.0435 -0.3105
   23SAPC  H12B 2972   2.161   4.531  10.572 -2.5568 -3.0272 -1.2730
   23SAPC   C13 2973   2.173   4.568  10.303 -0.6589  0.4406  0.6828
   23SAPC  H13A 2974   2.113   4.634  10.364 -2.3714 -0.8850  0.4987
   23SAPC  H13B 2975   2.193   4.614  10.207 -1.9659 -1.6728 -0.6955
   23SAPC  H13C 2976   2.110   4.483  10.281 -0.1539  0.7636 -2.5593
   23SAPC   C14 2977   2.370   4.653  10.422 -0.9075  0.8051 -0.2689
   23SAPC  H14A 2978   2.455   4.663  10.356  0.3248 -0.8438  0.9792
   23SAPC  H14B 2979   2.302   4.737  10.429 -2.0339 -0.2020  2.7320
   23SAPC  H14C 2980   2.423   4.632  10.514 -0.2009 -1.7543 -1.1710
   23SAPC   C15 2981   2.384   4.435  10.330  0.0588  0.8821 -0.2515
   23SAPC  H15A 2982   2.435   4.468  10.240  0.7646 -2.1116 -1.0602
   23SAPC  H15B 2983   2.463   4.411  10.399 -0.7879  0.9077  0.7441
   23SAPC  H15C 2984   2.333   4.341  10.315 -0.6516  0.8043  2.3483
   23SAPC   C11 2985   2.337   4.428  10.636  0.2374 -0.2607  1.0629
   23SAPC  H11A 2986   2.416   4.365  10.591  0.4747  0.9303 -0.2860
   23SAPC  H11B 2987   2.286   4.365  10.712 -0.0430  0.9343  1.8962
   23SAPC     P 2988   2.537   4.554  10.729  0.0303  0.3740 -0.2809
   23SAPC   O13 2989   2.572   4.686  10.787 -0.0558 -0.1361 -0.4958
   23SAPC   O14 2990   2.577   4.429  10.798  0.3997  0.4259 -0.1550
   23SAPC   O12 2991   2.388   4.548  10.691 -0.2180  0.3902 -0.5834
   23SAPC   O11 2992   2.601   4.552  10.583  0.6096  0.1403  0.6181
   23SAPC    C1 2993   2.735   4.581  10.555  0.0509  0.2439  0.0958
   23SAPC    HA 2994   2.749   4.690  10.542  0.1104  0.6381  2.8767
   23SAPC    HB 2995   2.797   4.549  10.641  0.0853 -1.6424 -0.5736
   23SAPC    C2 2996   2.785   4.490  10.442  0.0674  0.1968 -0.0598
   23SAPC    HS 2997   2.895   4.500  10.432  0.0494  0.0520 -0.3941
   23SAPC   O21 2998   2.727   4.523  10.318 -0.0786  1.3219 -0.3499
   23SAPC   C21 2999   2.768   4.637  10.260  0.6222  0.3152 -0.8718
   23SAPC   O22 3000   2.855   4.714  10.310  0.4293 -0.2963  0.4419
   23SAPC   C22 3001   2.692   4.664  10.133 -0.0752  0.2576 -0.3005
   23SAPC   H2R 3002   2.678   4.564  10.085  1.4117 -0.1138 -0.0305
   23SAPC   H2S 3003   2.589   4.698  10.156  0.5281  0.6788  1.9692
   23SAPC    C3 3004   2.754   4.337  10.469 -0.1025  1.1135  0.5256
   23SAPC    HX 3005   2.644   4.327  10.457 -0.1588  0.0560  1.7417
   23SAPC    HY 3006   2.777   4.324  10.576  2.3969  0.6496  0.0015
   23SAPC   O31 3007   2.838   4.252  10.388  0.6929 -0.0271  0.3769
   23SAPC   C31 3008   2.796   4.222  10.266  0.3057 -0.5424  0.2254
   23SAPC   O32 3009   2.683   4.249  10.225 -0.1359  0.1257 -0.0364
   23SAPC   C32 3010   2.907   4.154  10.193  0.6525  0.1405 -0.7496
   23SAPC   H2X 3011   2.905   4.045  10.216  0.8261  0.1866 -0.5100
   23SAPC   H2Y 3012   2.998   4.194  10.244 -0.2163  0.5557  0.5419
   23SAPC   C23 3013   2.760   4.762  10.039  0.4518  0.8377  0.2287
   23SAPC   H3R 3014   2.860   4.731  10.003  0.9729  0.2573  2.0319
   23SAPC   H3S 3015   2.764   4.857  10.098 -0.5583 -0.2263  2.1230
   23SAPC   C24 3016   2.661   4.773   9.925 -1.1371  0.2475  0.3200
   23SAPC   H4R 3017   2.678   4.865   9.865 -0.4120 -0.1831 -0.1487
   23SAPC   H4S 3018   2.562   4.795   9.970 -0.1045 -0.7475  3.2810
   23SAPC   C25 3019   2.652   4.657   9.829 -0.3209 -0.0232  0.2612
   23SAPC   H5R 3020   2.602   4.569   9.871 -0.8781 -0.3028 -0.9490
   23SAPC   C26 3021   2.687   4.657   9.703  0.4118 -0.1903 -1.1543
   23SAPC   H6R 3022   2.657   4.569   9.644 -1.7363  0.1239 -0.6271
   23SAPC   C27 3023   2.744   4.763   9.614  0.4092 -0.0559 -0.2248
   23SAPC   H7R 3024   2.842   4.725   9.577  1.7969  2.0212  1.1176
   23SAPC   H7S 3025   2.765   4.852   9.676  0.6849 -1.5260  1.8970
   23SAPC   C28 3026   2.656   4.810   9.505 -0.4319  0.4860 -0.3452
   23SAPC   H8R 3027   2.573   4.874   9.540 -0.3317  1.0034 -1.0270
   23SAPC   C29 3028   2.685   4.797   9.372  0.1445 -0.5439 -0.1867
   23SAPC   H9R 3029   2.621   4.842   9.295 -0.9076 -1.0697  0.3499
   23SAPC  C210 3030   2.802   4.725   9.310 -0.4116  0.3937  0.4324
   23SAPC  H10R 3031   2.878   4.688   9.381  0.1029 -1.2828 -0.9167
   23SAPC  H10S 3032   2.862   4.791   9.243  0.6608 -1.8293 -0.9374
   23SAPC  C211 3033   2.745   4.608   9.227 -0.0572  0.0162 -0.2159
   23SAPC  H11R 3034   2.711   4.523   9.288  0.3900 -0.0519 -0.0606
   23SAPC  C212 3035   2.735   4.593   9.094 -0.0824 -0.6690 -0.1039
   23SAPC  H12R 3036   2.733   4.497   9.041  2.5330 -0.0187 -1.5998
   23SAPC  C213 3037   2.799   4.697   8.998  0.6060 -0.8864 -0.0984
   23SAPC  H13R 3038   2.824   4.644   8.904  2.9697 -0.3727  0.1742
   23SAPC  H13S 3039   2.901   4.729   9.031 -0.4395  0.3623  2.1331
   23SAPC  C214 3040   2.703   4.811   8.972 -0.6273  0.2265  0.4528
   23SAPC  H14R 3041   2.731   4.898   9.034  0.6508 -0.3608  0.7327
   23SAPC  C215 3042   2.608   4.823   8.881  0.9660 -0.2870 -0.0789
   23SAPC  H15R 3043   2.535   4.905   8.894 -0.8924 -2.0421  1.2195
   23SAPC  C216 3044   2.560   4.721   8.781  0.4305  0.2807 -0.0786
   23SAPC  H16R 3045   2.452   4.740   8.759  0.6662  1.7033 -0.0856
   23SAPC  H16S 3046   2.565   4.618   8.823 -2.3182 -0.9646 -2.4177
   23SAPC  C217 3047   2.648   4.719   8.655  0.2840  0.6140 -0.0624
   23SAPC  H17R 3048   2.676   4.614   8.633 -0.5337  0.4001 -0.0894
   23SAPC  H17S 3049   2.745   4.772   8.667  0.2053  0.9243 -0.7337
   23SAPC  C218 3050   2.569   4.769   8.540  0.1387  0.1242  0.3776
   23SAPC  H18R 3051   2.528   4.872   8.551 -3.3794 -0.9326 -1.5654
   23SAPC  H18S 3052   2.479   4.706   8.533  2.1147 -2.9741  0.9342
   23SAPC  C219 3053   2.665   4.772   8.416  0.4252 -0.0987  0.6937
   23SAPC  H19R 3054   2.748   4.702   8.441 -0.8182 -0.7649  3.3970
   23SAPC  H19S 3055   2.723   4.866   8.408  0.7283 -0.1764  1.8130
   23SAPC  C220 3056   2.601   4.740   8.286 -0.3375 -0.3368 -0.3147
   23SAPC  H20R 3057   2.672   4.705   8.208 -2.2367 -3.3449 -0.8641
   23SAPC  H20S 3058   2.535   4.822   8.249  1.6360  2.2124  1.4658
   23SAPC  H20T 3059   2.541   4.647   8.294 -2.9838  1.3219  0.4993
   23SAPC   C33 3060   2.897   4.180  10.043 -0.5444  0.0050 -0.0811
   23SAPC   H3X 3061   2.800   4.140  10.007 -0.8834 -1.7508  2.4922
   23SAPC   H3Y 3062   2.980   4.125   9.994  1.3775  1.4950  1.3417
   23SAPC   C34 3063   2.928   4.324  10.015  0.4598  0.4283 -1.3846
   23SAPC   H4X 3064   2.976   4.375  10.102 -2.3669  0.1688  0.4862
   23SAPC   H4Y 3065   2.838   4.388  10.003  1.8499  3.6676  2.7726
   23SAPC   C35 3066   3.016   4.348   9.889 -0.3177 -0.0931  0.4663
   23SAPC   H5X 3067   3.104   4.283   9.906 -0.9870 -0.1993  4.6054
   23SAPC   H5Y 3068   3.053   4.452   9.881  2.4362 -1.1592 -3.6131
   23SAPC   C36 3069   2.938   4.313   9.761  0.7344  0.8487  0.2010
   23SAPC   H6X 3070   2.871   4.399   9.743  3.1897  2.3634 -2.5537
   23SAPC   H6Y 3071   2.877   4.222   9.778  0.4021  0.8195 -1.0974
   23SAPC   C37 3072   3.023   4.297   9.636  0.4899 -0.1192  0.0972
   23SAPC   H7X 3073   3.093   4.214   9.662  4.3774  2.7001 -0.3669
   23SAPC   H7Y 3074   3.099   4.375   9.611  0.1560 -0.1399 -1.0486
   23SAPC   C38 3075   2.944   4.255   9.512 -0.8761  0.6717 -0.0153
   23SAPC   H8X 3076   2.857   4.321   9.490 -0.4706  1.5775  1.0529
   23SAPC   H8Y 3077   2.913   4.150   9.528 -1.5362  1.2614  3.1388
   23SAPC   C39 3078   3.028   4.264   9.377  0.0625  0.7309 -0.2614
   23SAPC   H9X 3079   3.120   4.203   9.391 -0.8526 -0.2463  2.0377
   23SAPC   H9Y 3080   3.052   4.371   9.365  1.0667  0.3524 -2.0356
   23SAPC  C310 3081   2.950   4.227   9.253  0.1973  0.2046 -0.1706
   23SAPC  H10X 3082   2.852   4.275   9.269  1.5775  2.7096  1.4591
   23SAPC  H10Y 3083   2.937   4.117   9.265  0.8826  0.1204 -0.1430
   23SAPC  C311 3084   3.014   4.274   9.126 -0.4351 -0.2306  0.0909
   23SAPC  H11X 3085   3.115   4.229   9.122  0.1479  1.1292 -1.1669
   23SAPC  H11Y 3086   3.026   4.384   9.134  1.9915 -0.2505 -2.2231
   23SAPC  C312 3087   2.936   4.249   8.999 -0.0958  0.6236 -0.7528
   23SAPC  H12X 3088   2.834   4.292   9.010 -0.8409 -1.4915  1.3214
   23SAPC  H12Y 3089   2.910   4.141   9.002  0.5205  0.4640  2.8256
   23SAPC  C313 3090   2.993   4.307   8.872 -0.7105  0.4969 -1.6059
   23SAPC  H13X 3091   3.104   4.304   8.880 -0.7217  2.0396 -0.1865
   23SAPC  H13Y 3092   2.979   4.418   8.871  1.2958  0.7845 -1.7092
   23SAPC  C314 3093   2.945   4.226   8.751 -0.8686  0.5972 -0.5387
   23SAPC  H14X 3094   2.985   4.122   8.756 -1.6916 -0.0683 -4.3904
   23SAPC  H14Y 3095   2.986   4.274   8.660  0.1806  1.3816  0.3256
   23SAPC  C315 3096   2.798   4.221   8.732 -0.2552  0.0342 -0.3401
   23SAPC  H15X 3097   2.763   4.326   8.736  1.2281  0.6187 -1.6498
   23SAPC  H15Y 3098   2.754   4.154   8.810  2.0260 -2.9905 -1.4420
   23SAPC  C316 3099   2.761   4.176   8.588 -0.3850  0.6492 -0.4830
   23SAPC  H16X 3100   2.753   4.067   8.570 -1.4175  0.5707  0.3357
   23SAPC  H16Y 3101   2.846   4.202   8.521 -1.4747  1.6656 -1.5277
   23SAPC  C317 3102   2.632   4.222   8.530  0.1998 -0.4294 -0.3384
   23SAPC  H17X 3103   2.540   4.178   8.575 -0.4676  1.1625 -0.0631
   23SAPC  H17Y 3104   2.622   4.173   8.431  2.1925 -0.5966 -0.4885
   23SAPC  C318 3105   2.625   4.378   8.505 -0.1131  0.3791 -0.3357
   23SAPC  H18X 3106   2.541   4.384   8.432  0.0589 -1.4165 -0.7292
   23SAPC  H18Y 3107   2.712   4.410   8.445  0.5599 -2.7479 -1.2217
   23SAPC  H18Z 3108   2.606   4.435   8.598 -0.1483 -0.8155  0.4183
   24SAPC     N 3109   6.486   2.542  11.074  0.6868  0.0905  0.7003
   24SAPC   C12 3110   6.531   2.654  11.169 -0.4699  0.9282  0.8338
   24SAPC  H12A 3111   6.595   2.610  11.243 -0.5592 -0.6549  0.0194
   24SAPC  H12B 3112   6.439   2.689  11.213 -1.5757 -0.4182 -0.2964
   24SAPC   C13 3113   6.396   2.586  10.954 -0.0424 -0.0485 -0.0951
   24SAPC  H13A 3114   6.416   2.523  10.869  1.9868 -0.3447  0.5567
   24SAPC  H13B 3115   6.296   2.594  10.993  0.0595 -0.6087  0.2880
   24SAPC  H13C 3116   6.423   2.680  10.908 -1.6031 -0.5378 -2.1912
   24SAPC   C14 3117   6.610   2.496  10.999  0.2522  0.1842 -0.1495
   24SAPC  H14A 3118   6.643   2.584  10.946  0.4501  0.7177  0.8288
   24SAPC  H14B 3119   6.695   2.470  11.060  0.8804 -0.3378 -1.2261
   24SAPC  H14C 3120   6.577   2.424  10.926 -2.1401  1.8481 -0.8475
   24SAPC   C15 3121   6.413   2.435  11.152  0.3012 -0.1381 -0.0833
   24SAPC  H15A 3122   6.485   2.386  11.215 -0.2739 -2.4612 -1.1486
   24SAPC  H15B 3123   6.329   2.477  11.205 -1.1920 -1.1258 -1.5779
   24SAPC  H15C 3124   6.364   2.371  11.081  0.6953  0.2341 -0.6997
   24SAPC   C11 3125   6.613   2.766  11.109 -0.0530  0.2805  0.4162
   24SAPC  H11A 3126   6.710   2.733  11.066  0.3963  1.0197  0.8459
   24SAPC  H11B 3127   6.636   2.828  11.199 -1.1003  1.4547 -0.0906
   24SAPC     P 3128   6.603   2.925  10.905  0.1822  0.3289  0.1384
   24SAPC   O13 3129   6.661   3.045  10.968  0.1616  0.7719  0.2428
   24SAPC   O14 3130   6.689   2.841  10.815  0.8202 -0.0428  0.0166
   24SAPC   O12 3131   6.533   2.834  11.017  0.7544  0.2179 -0.5365
   24SAPC   O11 3132   6.481   2.980  10.821 -0.4149 -0.2989 -0.2132
   24SAPC    C1 3133   6.350   2.980  10.878 -0.2734  0.3511 -0.0469
   24SAPC    HA 3134   6.320   2.876  10.902  1.1935  0.3633  2.0484
   24SAPC    HB 3135   6.333   3.048  10.964 -0.2802  0.6418 -0.2755
   24SAPC    C2 3136   6.244   3.034  10.770  0.2447  0.7354 -0.2076
   24SAPC    HS 3137   6.150   3.063  10.821 -0.3660 -0.0898 -0.8384
   24SAPC   O21 3138   6.215   2.933  10.677  0.4049  0.2552  0.0423
   24SAPC   C21 3139   6.097   2.906  10.639  0.4262  0.0791 -0.1461
   24SAPC   O22 3140   5.994   2.971  10.657  0.1309 -0.0776  0.3059
   24SAPC   C22 3141   6.103   2.778  10.567 -0.3792  0.8228 -0.7178
   24SAPC   H2R 3142   6.197   2.722  10.585 -0.0104  1.4360 -0.7224
   24SAPC   H2S 3143   6.024   2.709  10.604 -2.8935  1.1403 -4.7348
   24SAPC    C3 3144   6.287   3.167  10.691 -0.1533  0.6487 -0.0249
   24SAPC    HX 3145   6.376   3.126  10.639 -0.1040 -0.1005  0.6318
   24SAPC    HY 3146   6.316   3.238  10.771 -3.2304  3.8045 -1.4160
   24SAPC   O31 3147   6.191   3.219  10.592  0.5022  0.0748 -0.1117
   24SAPC   C31 3148   6.075   3.281  10.627  0.4383 -0.2609 -0.5933
   24SAPC   O32 3149   6.047   3.323  10.734  0.2693  0.6468  0.3309
   24SAPC   C32 3150   5.983   3.301  10.511  0.2422  0.2001 -0.3467
   24SAPC   H2X 3151   5.889   3.347  10.550 -0.1282  0.4137 -1.4513
   24SAPC   H2Y 3152   5.959   3.196  10.485 -1.7992  0.5630 -0.1339
   24SAPC   C23 3153   6.071   2.806  10.415 -0.1434  0.2872 -0.0167
   24SAPC   H3R 3154   5.977   2.863  10.399 -0.6879 -0.7436 -0.6276
   24SAPC   H3S 3155   6.039   2.706  10.378 -0.1709 -0.3122  1.5467
   24SAPC   C24 3156   6.190   2.838  10.328  0.0118  0.7855  0.1312
   24SAPC   H4R 3157   6.169   2.792  10.229  0.8617  3.4940 -1.4072
   24SAPC   H4S 3158   6.286   2.795  10.363  1.5181  3.2466 -0.7775
   24SAPC   C25 3159   6.191   2.987  10.308  0.4686  0.3515 -0.0621
   24SAPC   H5R 3160   6.161   3.044  10.397 -1.4751  0.2616 -0.6230
   24SAPC   C26 3161   6.246   3.049  10.203  0.2564  0.1078  0.2997
   24SAPC   H6R 3162   6.244   3.159  10.209 -0.8374  0.1095  0.2745
   24SAPC   C27 3163   6.308   2.992  10.073 -0.1192 -0.5734 -0.3096
   24SAPC   H7R 3164   6.250   3.031   9.987  0.4662  2.2785  0.4768
   24SAPC   H7S 3165   6.288   2.883  10.064 -1.6391 -0.2362 -1.3415
   24SAPC   C28 3166   6.465   3.023  10.059  0.2217  0.4909  0.0105
   24SAPC   H8R 3167   6.511   3.061  10.152  1.3059  0.3950 -0.4799
   24SAPC   C29 3168   6.540   2.993   9.952  0.2007  0.0368  0.4416
   24SAPC   H9R 3169   6.646   3.022   9.945  0.2378 -0.1861 -0.0126
   24SAPC  C210 3170   6.486   2.933   9.821 -0.2795 -0.4600  0.2585
   24SAPC  H10R 3171   6.377   2.948   9.807  0.0981  0.9036 -1.5856
   24SAPC  H10S 3172   6.509   2.824   9.817 -0.1211 -0.6589  3.7360
   24SAPC  C211 3173   6.554   2.996   9.697  0.1127  1.0960 -0.0918
   24SAPC  H11R 3174   6.579   3.102   9.716 -1.8203  1.7487 -0.9274
   24SAPC  C212 3175   6.570   2.934   9.577 -0.1538 -0.0011 -0.8879
   24SAPC  H12R 3176   6.617   2.993   9.497 -1.2253  0.1658 -1.4088
   24SAPC  C213 3177   6.522   2.804   9.526 -0.0742 -0.1509  0.0658
   24SAPC  H13R 3178   6.519   2.715   9.593  2.7553 -0.8686 -0.6060
   24SAPC  H13S 3179   6.596   2.775   9.448 -0.0781  3.0222 -1.2633
   24SAPC  C214 3180   6.379   2.814   9.469  0.4701 -0.1911  0.6887
   24SAPC  H14R 3181   6.301   2.823   9.546  1.0789  2.2167  1.1025
   24SAPC  C215 3182   6.341   2.824   9.341 -0.0249  0.3623  0.6055
   24SAPC  H15R 3183   6.232   2.830   9.326  0.0701 -0.4916 -0.5576
   24SAPC  C216 3184   6.433   2.816   9.219  0.0594 -0.0599  0.5372
   24SAPC  H16R 3185   6.541   2.797   9.242  0.3145  1.0970  0.3534
   24SAPC  H16S 3186   6.420   2.908   9.159 -2.3600  0.0415  1.1106
   24SAPC  C217 3187   6.392   2.698   9.134  0.4091 -0.1306 -0.2844
   24SAPC  H17R 3188   6.291   2.711   9.089 -0.0008  0.1710  0.7004
   24SAPC  H17S 3189   6.399   2.603   9.192 -0.5862 -0.0989 -0.0931
   24SAPC  C218 3190   6.485   2.673   9.009 -0.3582 -0.3940  0.1628
   24SAPC  H18R 3191   6.509   2.770   8.962 -1.0783 -0.1385  0.3072
   24SAPC  H18S 3192   6.442   2.608   8.930 -0.5297 -1.4192  1.0724
   24SAPC  C219 3193   6.621   2.607   9.054 -0.4762 -0.5389 -0.9730
   24SAPC  H19R 3194   6.614   2.507   9.102 -0.6718 -0.1493 -0.1794
   24SAPC  H19S 3195   6.671   2.675   9.126 -0.4583 -0.7289 -0.8053
   24SAPC  C220 3196   6.707   2.590   8.929  0.3902  0.3850 -0.2053
   24SAPC  H20R 3197   6.802   2.537   8.951 -0.8846 -1.3381  1.5210
   24SAPC  H20S 3198   6.735   2.688   8.885  2.1080 -0.2753 -0.6639
   24SAPC  H20T 3199   6.652   2.530   8.854 -0.7530  0.0844  0.8376
   24SAPC   C33 3200   6.046   3.376  10.393  0.1475  0.1856 -0.2271
   24SAPC   H3X 3201   6.146   3.330  10.377 -0.6120 -1.6411 -0.0085
   24SAPC   H3Y 3202   6.047   3.486  10.410  0.8403  0.3195 -1.0915
   24SAPC   C34 3203   5.966   3.353  10.262 -0.0812 -0.3334  0.2925
   24SAPC   H4X 3204   5.864   3.394  10.280  0.5607  0.9488  1.1168
   24SAPC   H4Y 3205   5.955   3.243  10.247 -0.4274 -0.3897  0.9030
   24SAPC   C35 3206   6.023   3.415  10.133 -0.1583  0.1804  0.0171
   24SAPC   H5X 3207   5.970   3.376  10.044 -0.6021  1.5893 -0.3603
   24SAPC   H5Y 3208   6.130   3.386  10.127 -0.0868  0.1332  1.1909
   24SAPC   C36 3209   6.028   3.569  10.128 -0.3256 -0.1338  0.7772
   24SAPC   H6X 3210   6.097   3.602  10.208  0.8018 -0.9914  0.1859
   24SAPC   H6Y 3211   5.924   3.607  10.139 -0.1664  0.4405  0.3424
   24SAPC   C37 3212   6.092   3.619   9.998 -0.2200  0.4433  0.5173
   24SAPC   H7X 3213   6.187   3.561   9.990 -0.1710  0.5666  0.1823
   24SAPC   H7Y 3214   6.124   3.723  10.019  1.9294  0.1236 -0.8066
   24SAPC   C38 3215   6.006   3.606   9.872  0.1881 -0.1307 -0.1483
   24SAPC   H8X 3216   5.909   3.658   9.886 -0.0953 -0.3257 -1.3447
   24SAPC   H8Y 3217   5.983   3.498   9.866 -1.0814  0.1146 -0.0443
   24SAPC   C39 3218   6.080   3.670   9.758  0.0136 -0.1828  0.0339
   24SAPC   H9X 3219   6.110   3.775   9.782 -1.2764  0.7500 -2.0722
   24SAPC   H9Y 3220   6.009   3.674   9.672 -2.9634 -2.4825  2.1538
   24SAPC  C310 3221   6.211   3.598   9.730  0.0191 -0.3604  0.0211
   24SAPC  H10X 3222   6.193   3.496   9.689 -0.7478  0.9353 -3.1917
   24SAPC  H10Y 3223   6.275   3.591   9.820 -0.1196 -0.9766  0.0724
   24SAPC  C311 3224   6.294   3.659   9.614  0.7233  0.0232 -0.7060
   24SAPC  H11X 3225   6.390   3.603   9.603 -1.0009 -2.8723 -2.2868
   24SAPC  H11Y 3226   6.322   3.757   9.657 -1.3056  0.1351  0.4747
   24SAPC  C312 3227   6.215   3.666   9.481 -0.6847  0.2122 -0.0770
   24SAPC  H12X 3228   6.111   3.701   9.498 -1.8559 -3.1121  0.5489
   24SAPC  H12Y 3229   6.207   3.562   9.442  2.0322  0.6470 -2.0977
   24SAPC  C313 3230   6.276   3.728   9.357  0.1456 -0.3219 -0.5360
   24SAPC  H13X 3231   6.369   3.670   9.341 -0.3247 -0.9972 -0.8728
   24SAPC  H13Y 3232   6.307   3.835   9.368  0.0589 -0.1857 -1.5274
   24SAPC  C314 3233   6.180   3.723   9.239  0.4245 -0.0130 -0.2945
   24SAPC  H14X 3234   6.205   3.795   9.158 -1.2537  1.7241  0.6465
   24SAPC  H14Y 3235   6.084   3.767   9.274  1.8796  0.5751  3.4154
   24SAPC  C315 3236   6.152   3.591   9.178  0.1871 -0.0239 -0.2729
   24SAPC  H15X 3237   6.062   3.552   9.231 -0.4407  1.3383 -0.2879
   24SAPC  H15Y 3238   6.233   3.517   9.196 -0.0911 -1.5150 -4.1006
   24SAPC  C316 3239   6.115   3.585   9.028  0.0275  0.2684  0.1471
   24SAPC  H16X 3240   6.054   3.674   9.001 -1.9819 -0.7728  1.0315
   24SAPC  H16Y 3241   6.054   3.493   9.014  2.2005 -0.9051 -2.4935
   24SAPC  C317 3242   6.233   3.570   8.937 -0.0489  0.4571  0.4447
   24SAPC  H17X 3243   6.189   3.558   8.835 -4.3573 -0.3513  2.2024
   24SAPC  H17Y 3244   6.282   3.471   8.951  1.6459  1.0940 -0.6961
   24SAPC  C318 3245   6.335   3.681   8.935  0.0088 -0.3674 -0.1221
   24SAPC  H18X 3246   6.287   3.779   8.915 -1.1937 -0.1911  3.1557
   24SAPC  H18Y 3247   6.421   3.661   8.867  0.0964  0.0336 -0.1304
   24SAPC  H18Z 3248   6.370   3.694   9.039 -1.5882 -0.4545  0.4544
   25SAPC     N 3249   0.383   6.646   6.160  0.0276  0.2334 -0.3665
   25SAPC   C12 3250   0.441   6.510   6.133 -0.4225 -1.1660  0.2444
   25SAPC  H12A 3251   0.407   6.466   6.040  0.5695 -0.9860 -0.2153
   25SAPC  H12B 3252   0.390   6.449   6.205 -1.4870 -0.7573 -0.1464
   25SAPC   C13 3253   0.238   6.630   6.147  0.5256 -0.1447 -0.5160
   25SAPC  H13A 3254   0.196   6.543   6.197 -1.1207  0.3221 -1.0445
   25SAPC  H13B 3255   0.180   6.714   6.182 -0.5736 -1.8974  2.2799
   25SAPC  H13C 3256   0.217   6.611   6.043  0.5816  0.1233 -0.5760
   25SAPC   C14 3257   0.403   6.682   6.304  0.0663 -0.5251  0.4233
   25SAPC  H14A 3258   0.338   6.763   6.331 -0.4077 -1.6863  3.0468
   25SAPC  H14B 3259   0.383   6.600   6.371  0.5926 -0.0372  1.2019
   25SAPC  H14C 3260   0.504   6.714   6.326  0.0686 -1.2125  1.5023
   25SAPC   C15 3261   0.429   6.765   6.073  0.9355 -0.3054 -0.0449
   25SAPC  H15A 3262   0.537   6.775   6.082  0.9710 -1.3623  0.9855
   25SAPC  H15B 3263   0.389   6.750   5.974 -0.5699 -0.5119  0.5818
   25SAPC  H15C 3264   0.390   6.857   6.112  0.6235 -0.1230 -0.7752
   25SAPC   C11 3265   0.596   6.484   6.142  0.2030  0.1628  0.2623
   25SAPC  H11A 3266   0.614   6.382   6.103 -3.8851 -1.1534  1.2824
   25SAPC  H11B 3267   0.625   6.486   6.249  0.8620 -2.0556  0.1742
   25SAPC     P 3268   0.821   6.589   6.060  0.2742 -0.1815  0.1493
   25SAPC   O13 3269   0.861   6.462   6.005 -0.2732 -0.5292 -0.4441
   25SAPC   O14 3270   0.863   6.702   5.979  0.4960 -0.6420 -0.0447
   25SAPC   O12 3271   0.664   6.594   6.075 -0.4296  0.4763  0.0098
   25SAPC   O11 3272   0.872   6.596   6.210 -0.1829 -1.1269  0.3515
   25SAPC    C1 3273   0.860   6.725   6.267 -0.4131  0.1517 -0.2798
   25SAPC    HA 3274   0.961   6.771   6.270  0.4115 -1.5164 -1.1291
   25SAPC    HB 3275   0.785   6.792   6.219 -1.7166 -0.6186  0.6092
   25SAPC    C2 3276   0.822   6.712   6.417 -0.3503 -0.5270  0.5099
   25SAPC    HS 3277   0.712   6.721   6.413 -0.4217 -0.5492  1.8652
   25SAPC   O21 3278   0.874   6.825   6.503  0.4009  0.2009  0.3144
   25SAPC   C21 3279   0.823   6.944   6.464 -0.6536  0.4979  0.9632
   25SAPC   O22 3280   0.719   6.957   6.398 -0.2351 -0.4527 -0.2577
   25SAPC   C22 3281   0.900   7.051   6.534  0.2717  0.4015 -0.4823
   25SAPC   H2R 3282   0.955   7.022   6.626 -0.8843  2.8022  1.0450
   25SAPC   H2S 3283   0.979   7.084   6.463 -0.3129  0.4652 -1.1143
   25SAPC    C3 3284   0.853   6.575   6.482 -0.0588 -0.1730 -0.7679
   25SAPC    HX 3285   0.963   6.585   6.474 -0.2298  0.9886 -2.2761
   25SAPC    HY 3286   0.815   6.492   6.419  0.7565 -1.3436  0.2239
   25SAPC   O31 3287   0.809   6.565   6.621 -0.3098 -0.2758 -0.6271
   25SAPC   C31 3288   0.672   6.568   6.632 -0.0199  0.3432 -1.0014
   25SAPC   O32 3289   0.588   6.540   6.552 -0.1482 -0.1603 -0.0354
   25SAPC   C32 3290   0.655   6.577   6.789  0.6374  1.0574 -0.1638
   25SAPC   H2X 3291   0.711   6.487   6.823  0.0452 -0.1150 -2.1234
   25SAPC   H2Y 3292   0.550   6.550   6.812  1.2796 -1.1885  0.3667
   25SAPC   C23 3293   0.813   7.178   6.553 -0.4413  0.8443 -0.5738
   25SAPC   H3R 3294   0.775   7.212   6.454  2.1556  0.7041 -1.7042
   25SAPC   H3S 3295   0.874   7.264   6.586 -1.5270  1.3918  0.0738
   25SAPC   C24 3296   0.706   7.167   6.670 -0.5390  0.7841  0.6865
   25SAPC   H4R 3297   0.654   7.069   6.660 -1.0172  1.1749 -1.0342
   25SAPC   H4S 3298   0.626   7.243   6.653 -2.3611 -1.2989 -0.6595
   25SAPC   C25 3299   0.771   7.177   6.810 -0.5066  0.7015  0.0229
   25SAPC   H5R 3300   0.838   7.093   6.832 -1.1034  0.5509  1.3801
   25SAPC   C26 3301   0.753   7.273   6.905  0.1324  0.7078  0.2498
   25SAPC   H6R 3302   0.797   7.267   7.005 -1.6950  1.1408  1.1313
   25SAPC   C27 3303   0.660   7.396   6.897  0.1199 -0.1410 -0.1424
   25SAPC   H7R 3304   0.662   7.441   6.999  0.7362 -1.9558  0.6762
   25SAPC   H7S 3305   0.560   7.355   6.871  0.2333 -0.5740  0.1039
   25SAPC   C28 3306   0.691   7.497   6.794  0.4159  0.1496 -0.2561
   25SAPC   H8R 3307   0.743   7.457   6.707 -1.5239 -1.2629 -0.8395
   25SAPC   C29 3308   0.685   7.631   6.802  0.0632  0.0175  0.1978
   25SAPC   H9R 3309   0.706   7.695   6.715 -1.7390  1.7839  0.9831
   25SAPC  C210 3310   0.633   7.702   6.928  0.0671 -0.5663  0.2962
   25SAPC  H10R 3311   0.701   7.675   7.011  1.5477  0.1771 -0.6216
   25SAPC  H10S 3312   0.538   7.653   6.961 -0.1286 -2.5643 -2.7789
   25SAPC  C211 3313   0.613   7.846   6.927 -0.0821  0.1286  0.0777
   25SAPC  H11R 3314   0.590   7.893   6.830 -1.4505  1.0670  0.8186
   25SAPC  C212 3315   0.639   7.930   7.029 -0.7127  0.9156  0.2032
   25SAPC  H12R 3316   0.626   8.036   7.003 -2.5287  0.5150 -0.7110
   25SAPC  C213 3317   0.689   7.886   7.164 -0.4895  0.5802  0.5046
   25SAPC  H13R 3318   0.796   7.859   7.146 -0.6345  2.4923 -5.6125
   25SAPC  H13S 3319   0.636   7.792   7.189 -2.6822  0.9470 -2.2340
   25SAPC  C214 3320   0.671   7.976   7.284  0.0618 -0.5334  0.4512
   25SAPC  H14R 3321   0.567   7.982   7.320  0.3860  0.7874  1.2348
   25SAPC  C215 3322   0.762   8.048   7.353  0.1426 -0.1175 -0.3448
   25SAPC  H15R 3323   0.727   8.113   7.435  0.3375  1.9567 -1.8354
   25SAPC  C216 3324   0.912   8.035   7.328  0.1339  0.2075 -0.2811
   25SAPC  H16R 3325   0.935   7.970   7.242  1.3071 -3.0077  2.2451
   25SAPC  H16S 3326   0.959   7.988   7.417  0.4566 -0.2181 -0.6749
   25SAPC  C217 3327   0.983   8.169   7.313 -0.4383  0.4368  0.0720
   25SAPC  H17R 3328   0.934   8.244   7.247  1.7626  0.6308 -1.4536
   25SAPC  H17S 3329   1.080   8.146   7.265 -1.5742  0.1991 -2.2254
   25SAPC  C218 3330   1.008   8.239   7.444 -0.3167 -0.1732  0.0240
   25SAPC  H18R 3331   1.067   8.165   7.503  0.3345 -1.6802 -2.3917
   25SAPC  H18S 3332   0.906   8.246   7.486 -0.1851 -1.8386  0.7011
   25SAPC  C219 3333   1.066   8.375   7.441 -0.2998  0.2688  0.2819
   25SAPC  H19R 3334   1.032   8.424   7.347 -0.2325 -1.5598 -0.7324
   25SAPC  H19S 3335   1.174   8.351   7.436 -0.3204  0.0897  0.6813
   25SAPC  C220 3336   1.041   8.467   7.562 -1.0795  0.1480  0.2715
   25SAPC  H20R 3337   1.043   8.577   7.545  0.3752  0.2980  1.2362
   25SAPC  H20S 3338   1.107   8.444   7.648 -0.9833  2.4970  0.9168
   25SAPC  H20T 3339   0.934   8.454   7.587 -0.9898 -1.0091  0.0959
   25SAPC   C33 3340   0.711   6.693   6.873 -0.4698  0.3231  1.0671
   25SAPC   H3X 3341   0.659   6.781   6.830  1.1241  1.0266  0.4850
   25SAPC   H3Y 3342   0.820   6.708   6.856 -0.3247 -0.7449  0.9799
   25SAPC   C34 3343   0.698   6.676   7.023  0.1005  0.0699  0.4457
   25SAPC   H4X 3344   0.760   6.590   7.058  0.6322  0.4048  0.3451
   25SAPC   H4Y 3345   0.591   6.662   7.047 -0.5609  4.5923  0.9945
   25SAPC   C35 3346   0.734   6.808   7.099 -0.2339  0.8548  0.4747
   25SAPC   H5X 3347   0.660   6.885   7.066 -1.8321 -0.4497  0.8885
   25SAPC   H5Y 3348   0.838   6.846   7.089 -0.3668  1.0253 -0.3413
   25SAPC   C36 3349   0.714   6.786   7.255 -0.1950 -0.1615 -0.2620
   25SAPC   H6X 3350   0.797   6.715   7.277 -0.0919  0.0682  0.1096
   25SAPC   H6Y 3351   0.610   6.749   7.262 -0.2165  0.0901  0.8840
   25SAPC   C37 3352   0.728   6.914   7.334 -0.4779  0.2860 -0.2619
   25SAPC   H7X 3353   0.649   6.980   7.291 -0.5623 -0.9467 -2.1408
   25SAPC   H7Y 3354   0.827   6.957   7.308  0.5685 -1.3082  0.9119
   25SAPC   C38 3355   0.717   6.896   7.484 -0.0357  0.1947 -0.6753
   25SAPC   H8X 3356   0.792   6.818   7.508 -0.6309  0.3094  1.8493
   25SAPC   H8Y 3357   0.625   6.844   7.520 -0.4373  1.0920 -0.3751
   25SAPC   C39 3358   0.759   7.014   7.573  0.3754 -0.1884  0.4952
   25SAPC   H9X 3359   0.688   7.096   7.549 -1.2127 -1.8818 -0.9028
   25SAPC   H9Y 3360   0.861   7.046   7.542 -0.4049 -1.0170 -3.5003
   25SAPC  C310 3361   0.746   7.005   7.728  0.0058  0.0086 -0.4925
   25SAPC  H10X 3362   0.836   6.955   7.769 -0.6926  1.4764  3.2213
   25SAPC  H10Y 3363   0.657   6.941   7.749  0.6489 -0.6292  0.3475
   25SAPC  C311 3364   0.728   7.131   7.811 -0.0977 -0.6587  0.3897
   25SAPC  H11X 3365   0.674   7.204   7.747 -0.5202 -0.3119  1.1173
   25SAPC  H11Y 3366   0.817   7.182   7.853 -0.5715  1.6845 -1.2822
   25SAPC  C312 3367   0.651   7.109   7.935 -0.2188  0.5680 -0.0971
   25SAPC  H12X 3368   0.701   7.026   7.990  1.5454  1.6855  0.0728
   25SAPC  H12Y 3369   0.543   7.089   7.917 -0.0376 -0.9357  0.3220
   25SAPC  C313 3370   0.651   7.231   8.028 -0.7240  0.5042 -0.2217
   25SAPC  H13X 3371   0.591   7.210   8.119  0.7729 -0.4612  0.5931
   25SAPC  H13Y 3372   0.617   7.326   7.982 -1.3177  0.2567 -0.3065
   25SAPC  C314 3373   0.795   7.247   8.097 -0.2021  0.2104 -0.0918
   25SAPC  H14X 3374   0.784   7.341   8.154 -2.6705 -0.4857  0.6948
   25SAPC  H14Y 3375   0.874   7.266   8.021  0.1370 -1.0870 -0.0768
   25SAPC  C315 3376   0.842   7.137   8.190  0.1853  0.6181  0.0996
   25SAPC  H15X 3377   0.866   7.037   8.149 -0.8617  0.9436 -1.3884
   25SAPC  H15Y 3378   0.753   7.118   8.253  0.0770  1.5449  0.2535
   25SAPC  C316 3379   0.950   7.190   8.288 -0.2065 -0.2095 -0.4779
   25SAPC  H16X 3380   1.045   7.205   8.232 -0.8464 -0.1029 -1.5623
   25SAPC  H16Y 3381   0.975   7.098   8.346 -0.7194 -0.5239 -0.7469
   25SAPC  C317 3382   0.909   7.295   8.382 -0.6267  0.7635 -0.0306
   25SAPC  H17X 3383   0.832   7.253   8.451 -0.1230  1.5195  1.0312
   25SAPC  H17Y 3384   0.861   7.378   8.327 -0.3733  1.2889  0.5366
   25SAPC  C318 3385   1.032   7.359   8.463  0.0360  0.0904 -0.8679
   25SAPC  H18X 3386   0.987   7.437   8.528  1.0768 -0.7233  0.9065
   25SAPC  H18Y 3387   1.107   7.404   8.395  1.1171  0.6181  0.6369
   25SAPC  H18Z 3388   1.085   7.279   8.519  0.7154  1.5363  0.6423
   26SAPC     N 3389   1.179   1.102   5.704 -0.1179 -0.7249  0.3251
   26SAPC   C12 3390   1.254   1.106   5.841 -0.7840  0.8148 -0.2872
   26SAPC  H12A 3391   1.276   1.209   5.867 -1.7221  0.9372  0.0407
   26SAPC  H12B 3392   1.346   1.051   5.831 -1.2303 -0.3993  1.7911
   26SAPC   C13 3393   1.130   0.967   5.656 -0.1522 -0.2853 -0.5766
   26SAPC  H13A 3394   1.066   0.922   5.730  0.1684 -1.2428 -0.8695
   26SAPC  H13B 3395   1.065   0.986   5.573  2.0431 -1.4735 -2.7078
   26SAPC  H13C 3396   1.212   0.905   5.623  1.3999  1.9801 -1.2334
   26SAPC   C14 3397   1.064   1.199   5.705  0.5691 -0.0256 -0.8800
   26SAPC  H14A 3398   1.019   1.201   5.607 -0.1236 -1.0128 -0.5961
   26SAPC  H14B 3399   0.987   1.169   5.774  2.2665  0.6175  1.4487
   26SAPC  H14C 3400   1.093   1.294   5.749 -2.1896  1.4813 -2.0852
   26SAPC   C15 3401   1.273   1.152   5.599  0.2379 -0.1952 -0.1560
   26SAPC  H15A 3402   1.270   1.260   5.597 -1.5731 -0.1926 -2.9164
   26SAPC  H15B 3403   1.371   1.109   5.605  1.7288  2.9535  0.3097
   26SAPC  H15C 3404   1.220   1.117   5.512 -0.2936 -3.2168  1.2823
   26SAPC   C11 3405   1.183   1.041   5.958  0.3984  0.4111 -0.0376
   26SAPC  H11A 3406   1.250   1.064   6.044  1.2241  1.5583 -0.9477
   26SAPC  H11B 3407   1.186   0.932   5.937  2.0744  0.6174 -1.0595
   26SAPC     P 3408   1.011   1.214   6.057 -0.0151 -0.1775  0.3683
   26SAPC   O13 3409   1.098   1.324   6.006  0.1280 -0.7027  0.6938
   26SAPC   O14 3410   0.867   1.241   6.039  0.0917  0.6293  0.5259
   26SAPC   O12 3411   1.043   1.085   5.979 -0.7244 -0.0010  0.1079
   26SAPC   O11 3412   1.048   1.185   6.205 -0.4640 -0.4170 -0.0613
   26SAPC    C1 3413   1.008   1.065   6.277 -0.0487 -0.3496  0.4070
   26SAPC    HA 3414   0.899   1.052   6.260 -0.2249  2.1788 -0.8312
   26SAPC    HB 3415   1.058   0.971   6.245  0.7677  0.3988 -0.5500
   26SAPC    C2 3416   1.042   1.075   6.428 -0.2758 -0.7825 -0.1431
   26SAPC    HS 3417   1.037   0.976   6.477 -0.0516  0.1026  1.7566
   26SAPC   O21 3418   0.959   1.177   6.483  0.0012 -0.3583  0.0172
   26SAPC   C21 3419   0.840   1.132   6.524 -0.1858 -0.0325 -0.0214
   26SAPC   O22 3420   0.806   1.016   6.523  0.3742 -0.0424  0.0883
   26SAPC   C22 3421   0.762   1.247   6.575 -0.4111 -0.6332 -0.2192
   26SAPC   H2R 3422   0.765   1.331   6.502 -0.4748  1.1476  1.7393
   26SAPC   H2S 3423   0.656   1.216   6.587 -1.7849  4.1140  2.5776
   26SAPC    C3 3424   1.191   1.119   6.436  0.3301  0.3778  0.1227
   26SAPC    HX 3425   1.209   1.201   6.363  1.3702 -1.0994 -1.3496
   26SAPC    HY 3426   1.250   1.041   6.383  0.1144  0.7811 -0.7321
   26SAPC   O31 3427   1.230   1.140   6.566  0.1379 -0.2553  0.1708
   26SAPC   C31 3428   1.228   1.261   6.618  0.1457  0.0206  0.0280
   26SAPC   O32 3429   1.177   1.356   6.562 -0.3131  0.2667 -0.3204
   26SAPC   C32 3430   1.291   1.252   6.760  0.2633  0.2922 -0.2768
   26SAPC   H2X 3431   1.397   1.229   6.738  0.0863  0.3432 -1.2098
   26SAPC   H2Y 3432   1.249   1.169   6.822  0.0835  0.9576  0.4985
   26SAPC   C23 3433   0.831   1.289   6.703  0.5895 -0.4666 -0.0351
   26SAPC   H3R 3434   0.939   1.313   6.689  0.5637  0.4000  1.1414
   26SAPC   H3S 3435   0.839   1.203   6.772  0.1025 -1.0185 -0.6477
   26SAPC   C24 3436   0.757   1.409   6.769 -0.5454  0.2934 -0.2043
   26SAPC   H4R 3437   0.798   1.504   6.728 -3.2654  1.9426  0.5697
   26SAPC   H4S 3438   0.799   1.406   6.872  0.1298 -2.5739 -0.4753
   26SAPC   C25 3439   0.605   1.414   6.762 -0.8895  0.4522 -0.2040
   26SAPC   H5R 3440   0.575   1.374   6.664  1.4190 -1.6597 -0.1571
   26SAPC   C26 3441   0.525   1.475   6.850  0.6030  0.8954  0.2254
   26SAPC   H6R 3442   0.416   1.465   6.838  0.8084 -0.0810 -1.1328
   26SAPC   C27 3443   0.571   1.548   6.971  0.3225 -0.0499 -0.3590
   26SAPC   H7R 3444   0.518   1.646   6.965 -0.6400 -0.6169 -1.7426
   26SAPC   H7S 3445   0.679   1.575   6.964 -0.3134  2.4614 -2.0482
   26SAPC   C28 3446   0.558   1.474   7.098  0.4384 -0.1520 -0.2457
   26SAPC   H8R 3447   0.497   1.382   7.100  0.6815 -0.3571 -1.5384
   26SAPC   C29 3448   0.603   1.504   7.218 -0.1611  0.6157 -0.1710
   26SAPC   H9R 3449   0.576   1.444   7.306  3.9884 -0.1068  0.8093
   26SAPC  C210 3450   0.674   1.632   7.262 -0.0097  0.7678 -0.0546
   26SAPC  H10R 3451   0.744   1.676   7.188 -0.2013 -1.4938 -1.7011
   26SAPC  H10S 3452   0.736   1.602   7.349  0.6633  0.9175 -0.4763
   26SAPC  C211 3453   0.579   1.753   7.289 -0.1277  0.4470  0.9761
   26SAPC  H11R 3454   0.502   1.776   7.214  1.9462  0.4199 -1.2528
   26SAPC  C212 3455   0.579   1.836   7.393 -0.2572  0.2951 -0.7162
   26SAPC  H12R 3456   0.518   1.927   7.401  0.8858  0.9824  0.7299
   26SAPC  C213 3457   0.676   1.815   7.510 -0.8697 -0.1986  0.0778
   26SAPC  H13R 3458   0.766   1.876   7.487 -0.2571 -0.8633  0.6917
   26SAPC  H13S 3459   0.705   1.708   7.511 -2.1498 -0.6226 -1.8347
   26SAPC  C214 3460   0.619   1.850   7.645  0.6024  0.4283  0.1067
   26SAPC  H14R 3461   0.510   1.865   7.641  0.5680  0.2977  0.5212
   26SAPC  C215 3462   0.674   1.864   7.763 -0.1057  0.1025 -0.2191
   26SAPC  H15R 3463   0.602   1.903   7.837 -1.2404 -0.0194 -1.2295
   26SAPC  C216 3464   0.818   1.850   7.808 -0.0415 -0.1725  0.2334
   26SAPC  H16R 3465   0.865   1.927   7.872  1.7782 -1.8501  1.0176
   26SAPC  H16S 3466   0.888   1.831   7.725 -0.3893  1.8494 -0.5915
   26SAPC  C217 3467   0.828   1.728   7.907  0.1880  0.5353  0.1836
   26SAPC  H17R 3468   0.934   1.698   7.917 -0.8953 -3.5459  1.6991
   26SAPC  H17S 3469   0.790   1.634   7.862  1.3837  0.8058 -1.4513
   26SAPC  C218 3470   0.764   1.744   8.044  0.5269 -0.3641 -0.1597
   26SAPC  H18R 3471   0.657   1.753   8.018  1.1200  1.2124 -2.3927
   26SAPC  H18S 3472   0.799   1.834   8.098  0.4855 -1.3337  1.5630
   26SAPC  C219 3473   0.783   1.622   8.126 -0.2002 -0.1076 -0.3159
   26SAPC  H19R 3474   0.765   1.535   8.059 -0.9614 -0.2229  0.0266
   26SAPC  H19S 3475   0.717   1.617   8.216  0.4174  1.0435  0.2184
   26SAPC  C220 3476   0.931   1.620   8.175 -0.5604  0.0659 -0.0801
   26SAPC  H20R 3477   0.955   1.689   8.258 -0.0093 -1.1129  0.7717
   26SAPC  H20S 3478   1.001   1.658   8.097  0.5634  1.4943  1.5538
   26SAPC  H20T 3479   0.954   1.513   8.195  0.5441  0.4516  0.7707
   26SAPC   C33 3480   1.279   1.376   6.842  0.2401  0.0718  0.2688
   26SAPC   H3X 3481   1.173   1.408   6.834  0.1676  0.3881  2.0624
   26SAPC   H3Y 3482   1.322   1.472   6.806  0.8787 -0.0977  0.5603
   26SAPC   C34 3483   1.326   1.348   6.983 -0.2447 -0.3314  0.1661
   26SAPC   H4X 3484   1.436   1.335   6.969 -0.0831  0.5418  0.5605
   26SAPC   H4Y 3485   1.286   1.255   7.028 -0.4058  0.0379  0.7986
   26SAPC   C35 3486   1.293   1.461   7.083  0.3366 -0.6772  0.7715
   26SAPC   H5X 3487   1.184   1.449   7.103 -0.4184 -0.5448 -2.7030
   26SAPC   H5Y 3488   1.304   1.556   7.027 -1.2751 -1.6473 -1.3388
   26SAPC   C36 3489   1.375   1.455   7.220 -0.4055 -0.6798 -0.4321
   26SAPC   H6X 3490   1.327   1.513   7.302  0.9995  1.4387 -1.0192
   26SAPC   H6Y 3491   1.468   1.514   7.205  0.1817 -0.8715  2.0382
   26SAPC   C37 3492   1.388   1.309   7.267 -0.1250 -0.1417 -0.8205
   26SAPC   H7X 3493   1.474   1.261   7.216  0.6095  0.9670 -0.6529
   26SAPC   H7Y 3494   1.295   1.252   7.244  0.5455 -0.8675 -1.7688
   26SAPC   C38 3495   1.417   1.278   7.410 -0.5293 -0.2244 -0.2217
   26SAPC   H8X 3496   1.411   1.172   7.443  0.3338  0.2478  1.6132
   26SAPC   H8Y 3497   1.344   1.333   7.473  1.0582  2.1552 -0.3635
   26SAPC   C39 3498   1.560   1.334   7.434  0.0612 -0.0840 -0.0136
   26SAPC   H9X 3499   1.550   1.444   7.427  1.3939  0.0619  0.0754
   26SAPC   H9Y 3500   1.628   1.297   7.354  0.3748 -0.1541  0.2833
   26SAPC  C310 3501   1.604   1.299   7.574 -0.2165 -0.0755 -1.0191
   26SAPC  H10X 3502   1.714   1.314   7.585 -0.2313 -1.7890  4.1204
   26SAPC  H10Y 3503   1.591   1.189   7.578  0.2028 -0.1371 -1.3171
   26SAPC  C311 3504   1.535   1.359   7.695  0.6121  0.1542 -0.1114
   26SAPC  H11X 3505   1.428   1.328   7.693 -0.2587  2.9423 -1.5103
   26SAPC  H11Y 3506   1.541   1.468   7.677 -1.9423  0.1144 -1.6862
   26SAPC  C312 3507   1.603   1.312   7.826 -0.4521 -0.2677 -0.4293
   26SAPC  H12X 3508   1.709   1.345   7.822 -0.2354 -0.6958  1.1361
   26SAPC  H12Y 3509   1.596   1.202   7.815 -0.5034 -0.0795 -2.9624
   26SAPC  C313 3510   1.542   1.370   7.948 -0.0539  0.1178  0.3974
   26SAPC  H13X 3511   1.432   1.354   7.948 -0.2348  0.8102 -2.6622
   26SAPC  H13Y 3512   1.545   1.481   7.953  1.6459  0.0705  1.0673
   26SAPC  C314 3513   1.587   1.315   8.077 -0.0226  0.3851 -0.3634
   26SAPC  H14X 3514   1.603   1.205   8.071 -1.6574  0.1663 -1.1389
   26SAPC  H14Y 3515   1.507   1.324   8.153 -0.1120  0.7427 -0.5002
   26SAPC  C315 3516   1.719   1.380   8.120  0.4542  0.3243  0.0477
   26SAPC  H15X 3517   1.780   1.392   8.029  3.7598 -0.2671  2.0112
   26SAPC  H15Y 3518   1.778   1.309   8.182  2.2816  2.5952  1.0424
   26SAPC  C316 3519   1.708   1.520   8.194  0.1521 -0.4885 -0.0152
   26SAPC  H16X 3520   1.646   1.506   8.285 -2.5139  1.2360 -1.4511
   26SAPC  H16Y 3521   1.634   1.587   8.145  0.3991 -0.5213 -0.4407
   26SAPC  C317 3522   1.843   1.575   8.232  1.0685 -0.5369 -0.2676
   26SAPC  H17X 3523   1.909   1.574   8.143  1.1022 -1.9367 -0.2453
   26SAPC  H17Y 3524   1.878   1.501   8.307 -1.8911 -1.4791  0.3372
   26SAPC  C318 3525   1.819   1.712   8.299  0.3784 -0.6735 -0.1481
   26SAPC  H18X 3526   1.749   1.703   8.385 -0.8932 -1.7729 -1.2753
   26SAPC  H18Y 3527   1.775   1.781   8.225  1.1334 -2.6513 -2.5647
   26SAPC  H18Z 3528   1.919   1.748   8.334  0.6248 -1.7468  0.3000
   27SAPC     N 3529   6.282   2.495   6.380 -0.9258 -0.2934 -0.8797
   27SAPC   C12 3530   6.306   2.537   6.527 -0.0428  0.7538 -0.2099
   27SAPC  H12A 3531   6.215   2.526   6.584 -0.2297 -0.0556 -0.6472
   27SAPC  H12B 3532   6.324   2.643   6.521 -0.5757  1.1385  3.1755
   27SAPC   C13 3533   6.404   2.516   6.294 -0.6246  0.3406  0.0544
   27SAPC  H13A 3534   6.386   2.482   6.193  2.4908 -0.8734 -0.2040
   27SAPC  H13B 3535   6.427   2.621   6.287  0.7890  0.0099 -0.6007
   27SAPC  H13C 3536   6.490   2.456   6.320  1.8814  2.5790 -2.3789
   27SAPC   C14 3537   6.264   2.348   6.380 -0.3943 -0.0673  0.3375
   27SAPC  H14A 3538   6.253   2.304   6.282 -1.6034 -0.6262  0.7031
   27SAPC  H14B 3539   6.351   2.303   6.425  0.3135 -1.4958 -2.2669
   27SAPC  H14C 3540   6.177   2.318   6.437 -2.0549  0.0187 -2.0377
   27SAPC   C15 3541   6.164   2.570   6.316 -0.1545 -0.6349  0.3599
   27SAPC  H15A 3542   6.077   2.550   6.377 -0.5438 -3.1401 -0.8797
   27SAPC  H15B 3543   6.176   2.677   6.321  0.2992 -0.6604 -0.0913
   27SAPC  H15C 3544   6.152   2.536   6.214  1.7308 -0.3442 -0.0031
   27SAPC   C11 3545   6.428   2.495   6.605  0.2990  0.8064 -0.0476
   27SAPC  H11A 3546   6.442   2.558   6.695  0.8302  0.2871  0.2401
   27SAPC  H11B 3547   6.519   2.526   6.550  1.3432  0.4923  1.4610
   27SAPC     P 3548   6.337   2.304   6.761  0.3651 -0.0113  0.0719
   27SAPC   O13 3549   6.232   2.402   6.784  0.5269 -0.0162 -0.1805
   27SAPC   O14 3550   6.299   2.168   6.718 -0.4973  0.0883  0.1008
   27SAPC   O12 3551   6.434   2.363   6.650  0.0607 -0.6616  0.1310
   27SAPC   O11 3552   6.417   2.292   6.897  0.4163  0.2268  0.0728
   27SAPC    C1 3553   6.543   2.237   6.882  0.1191  0.1799 -0.2245
   27SAPC    HA 3554   6.545   2.151   6.811  1.2672 -1.7084  1.9610
   27SAPC    HB 3555   6.609   2.318   6.844 -0.2677  0.3327 -0.5748
   27SAPC    C2 3556   6.607   2.191   7.019 -0.6204 -0.2852 -0.2168
   27SAPC    HS 3557   6.718   2.190   7.008 -0.4884 -2.2149  0.8249
   27SAPC   O21 3558   6.568   2.059   7.054 -0.5488  0.1753 -0.0859
   27SAPC   C21 3559   6.627   1.970   6.972 -0.5218 -0.8667  0.0800
   27SAPC   O22 3560   6.715   1.990   6.887  0.2713  0.2585 -0.4048
   27SAPC   C22 3561   6.567   1.835   7.007 -0.4786  0.2897  0.3113
   27SAPC   H2R 3562   6.577   1.831   7.118  0.5096  0.4222  0.2294
   27SAPC   H2S 3563   6.458   1.837   6.984 -0.3043  0.8474 -0.4883
   27SAPC    C3 3564   6.567   2.294   7.134  0.1564  0.0166 -0.2197
   27SAPC    HX 3565   6.456   2.288   7.126  0.1917  0.8914 -1.7550
   27SAPC    HY 3566   6.597   2.395   7.098  1.0041 -0.4135 -0.7617
   27SAPC   O31 3567   6.609   2.257   7.265 -0.3532 -0.1231  0.0674
   27SAPC   C31 3568   6.721   2.317   7.309  0.1356  0.1143  0.3662
   27SAPC   O32 3569   6.794   2.382   7.234 -0.2600  0.1967 -0.5282
   27SAPC   C32 3570   6.742   2.274   7.455  0.1341 -0.6901 -0.0602
   27SAPC   H2X 3571   6.749   2.164   7.466 -1.1534 -0.9027 -1.1217
   27SAPC   H2Y 3572   6.649   2.310   7.504 -0.1828 -0.6025 -0.7059
   27SAPC   C23 3573   6.636   1.722   6.923 -0.4988  0.0169  0.1171
   27SAPC   H3R 3574   6.745   1.740   6.917 -0.3464 -1.2163 -1.3104
   27SAPC   H3S 3575   6.599   1.733   6.819 -0.7805  0.8253  0.2973
   27SAPC   C24 3576   6.591   1.583   6.952  0.6541  0.4050  0.4069
   27SAPC   H4R 3577   6.596   1.512   6.866  0.6103  1.6135 -0.6250
   27SAPC   H4S 3578   6.482   1.586   6.969  0.3707  0.2520 -1.2020
   27SAPC   C25 3579   6.666   1.523   7.070  0.1270  0.6699 -0.4248
   27SAPC   H5R 3580   6.775   1.533   7.078  0.0625  1.7694 -0.8013
   27SAPC   C26 3581   6.612   1.466   7.184  0.7745 -0.1291  0.7363
   27SAPC   H6R 3582   6.679   1.436   7.266  1.5798 -0.8645 -0.1691
   27SAPC   C27 3583   6.465   1.468   7.203  0.5312 -0.5767 -0.4811
   27SAPC   H7R 3584   6.438   1.391   7.279  1.3451 -1.3355 -0.9477
   27SAPC   H7S 3585   6.417   1.416   7.117 -0.1718  0.6033 -0.8310
   27SAPC   C28 3586   6.404   1.600   7.247 -0.4107 -0.2937 -0.0025
   27SAPC   H8R 3587   6.393   1.676   7.168  2.4196 -2.1804 -2.4354
   27SAPC   C29 3588   6.379   1.635   7.379  0.2759 -0.2481 -0.2804
   27SAPC   H9R 3589   6.332   1.733   7.397 -0.2505 -0.4985 -0.2821
   27SAPC  C210 3590   6.404   1.546   7.502  0.3615 -0.5718  0.1927
   27SAPC  H10R 3591   6.371   1.442   7.486 -1.7414  0.0956 -0.1002
   27SAPC  H10S 3592   6.346   1.580   7.591  2.0172  0.9520  0.7770
   27SAPC  C211 3593   6.553   1.552   7.545 -0.0601 -0.2729  0.1769
   27SAPC  H11R 3594   6.633   1.555   7.470 -0.0175 -0.5789  0.2064
   27SAPC  C212 3595   6.594   1.556   7.675 -0.9511 -0.2052 -0.0649
   27SAPC  H12R 3596   6.701   1.541   7.691 -0.9480  0.6231  0.7791
   27SAPC  C213 3597   6.513   1.557   7.799  0.7675  0.1826 -0.1954
   27SAPC  H13R 3598   6.411   1.601   7.794  1.4755  2.1086  1.0309
   27SAPC  H13S 3599   6.571   1.625   7.866  2.7070 -1.2645 -0.3117
   27SAPC  C214 3600   6.525   1.420   7.858 -0.3367  0.8203  0.7129
   27SAPC  H14R 3601   6.481   1.351   7.784  0.6539 -0.1899  1.0373
   27SAPC  C215 3602   6.573   1.373   7.975 -0.1475 -0.3025  0.1038
   27SAPC  H15R 3603   6.590   1.267   8.000  1.0598 -0.3169 -0.6947
   27SAPC  C216 3604   6.622   1.465   8.095 -0.5907 -0.1845  0.0504
   27SAPC  H16R 3605   6.563   1.448   8.187 -0.0453  2.2342  0.9348
   27SAPC  H16S 3606   6.611   1.574   8.076 -0.4281  0.2587  2.2423
   27SAPC  C217 3607   6.771   1.430   8.131  0.1584 -0.6357 -0.1081
   27SAPC  H17R 3608   6.789   1.480   8.229  0.5343 -2.3974  0.7645
   27SAPC  H17S 3609   6.848   1.475   8.065 -0.4551  0.9108  0.1966
   27SAPC  C218 3610   6.788   1.282   8.162 -0.4495 -0.4668 -0.0126
   27SAPC  H18R 3611   6.785   1.217   8.072 -1.4485  0.9401 -1.0574
   27SAPC  H18S 3612   6.693   1.253   8.212  0.0732 -1.4548  0.4297
   27SAPC  C219 3613   6.913   1.252   8.246  0.5863  0.5959  0.2417
   27SAPC  H19R 3614   6.905   1.149   8.285 -1.8205  0.2191 -1.0740
   27SAPC  H19S 3615   6.927   1.315   8.337 -0.2294  0.0460  0.7641
   27SAPC  C220 3616   7.030   1.243   8.144  0.2899  0.0527  0.3991
   27SAPC  H20R 3617   7.123   1.206   8.193  0.4450  2.4651  2.1285
   27SAPC  H20S 3618   7.058   1.344   8.106  0.1113  0.0581  0.2814
   27SAPC  H20T 3619   7.001   1.172   8.063 -0.6587 -0.0433  0.8131
   27SAPC   C33 3620   6.860   2.351   7.518 -0.3395  0.0390  0.8156
   27SAPC   H3X 3621   6.850   2.459   7.497 -0.1802 -0.3441 -1.4865
   27SAPC   H3Y 3622   6.958   2.313   7.481 -1.0680  0.3785 -1.6157
   27SAPC   C34 3623   6.871   2.320   7.669 -0.1182  0.2596 -0.4652
   27SAPC   H4X 3624   6.891   2.213   7.690  1.3842  0.4495 -0.8335
   27SAPC   H4Y 3625   6.781   2.358   7.723  0.5195  1.9183 -0.4985
   27SAPC   C35 3626   6.988   2.398   7.727  0.5111 -0.1011 -0.1426
   27SAPC   H5X 3627   6.975   2.503   7.693  0.4112  0.3665  1.2787
   27SAPC   H5Y 3628   7.080   2.354   7.682  1.4643  0.9769  0.6863
   27SAPC   C36 3629   6.983   2.396   7.876 -0.1576 -0.1283  0.2910
   27SAPC   H6X 3630   6.893   2.451   7.913  0.3655  0.5126  0.6367
   27SAPC   H6Y 3631   7.077   2.432   7.922  0.5743  0.6130 -1.6784
   27SAPC   C37 3632   6.992   2.251   7.928  1.2227 -0.6088  0.2334
   27SAPC   H7X 3633   7.078   2.200   7.880  0.3474 -2.3505  0.4500
   27SAPC   H7Y 3634   6.898   2.196   7.910 -0.6223  2.4230 -0.0669
   27SAPC   C38 3635   7.020   2.246   8.080  0.4705  0.0448  0.1851
   27SAPC   H8X 3636   7.118   2.297   8.095 -0.8222  2.5439  0.6649
   27SAPC   H8Y 3637   7.044   2.140   8.103 -0.4491 -0.0763  0.6170
   27SAPC   C39 3638   6.907   2.302   8.163  0.4305 -0.6934 -0.2388
   27SAPC   H9X 3639   6.814   2.244   8.139 -1.8583  2.2172  0.9739
   27SAPC   H9Y 3640   6.890   2.408   8.136 -0.5654 -0.8188 -0.1600
   27SAPC  C310 3641   6.948   2.298   8.308  0.1412 -0.1066  0.1216
   27SAPC  H10X 3642   7.022   2.379   8.326  0.7657 -0.4746 -0.7263
   27SAPC  H10Y 3643   6.997   2.200   8.321  0.4524 -0.2752 -1.9260
   27SAPC  C311 3644   6.833   2.306   8.412 -0.4131  0.1404  0.0828
   27SAPC  H11X 3645   6.777   2.211   8.395 -0.4300  0.4246 -1.5373
   27SAPC  H11Y 3646   6.769   2.396   8.402 -1.3093 -0.4647  0.2371
   27SAPC  C312 3647   6.873   2.288   8.558 -0.6789 -0.3952 -0.0840
   27SAPC  H12X 3648   6.943   2.373   8.575  0.8299 -1.6855  0.4311
   27SAPC  H12Y 3649   6.931   2.194   8.564 -0.7270 -0.5657 -1.9778
   27SAPC  C313 3650   6.758   2.276   8.651  0.6913 -0.0490 -0.7787
   27SAPC  H13X 3651   6.667   2.263   8.589 -0.1051 -1.3921  0.5915
   27SAPC  H13Y 3652   6.729   2.374   8.695  0.8678 -0.5940  0.5992
   27SAPC  C314 3653   6.763   2.162   8.752 -0.1758  0.0773 -0.0686
   27SAPC  H14X 3654   6.840   2.183   8.829 -0.2441 -1.9434  0.5994
   27SAPC  H14Y 3655   6.808   2.070   8.709 -0.5289  0.6876 -1.8169
   27SAPC  C315 3656   6.629   2.134   8.826 -0.4611 -0.1141  0.7446
   27SAPC  H15X 3657   6.600   2.218   8.893  0.8081  0.5930  0.4431
   27SAPC  H15Y 3658   6.639   2.051   8.899 -0.4436 -0.0513  0.8149
   27SAPC  C316 3659   6.508   2.120   8.737  0.3827 -0.5827  0.5693
   27SAPC  H16X 3660   6.533   2.050   8.654 -0.7835  0.2404 -0.5114
   27SAPC  H16Y 3661   6.490   2.220   8.693  1.7490 -0.7534 -0.4529
   27SAPC  C317 3662   6.386   2.054   8.806  0.1765  0.1033  1.0372
   27SAPC  H17X 3663   6.345   2.106   8.896 -2.8443 -0.4605  0.0906
   27SAPC  H17Y 3664   6.412   1.949   8.830 -1.4250 -0.5324  0.1068
   27SAPC  C318 3665   6.270   2.035   8.712 -0.3912 -0.2142 -0.8882
   27SAPC  H18X 3666   6.296   1.960   8.635 -0.9731 -0.3937 -0.9145
   27SAPC  H18Y 3667   6.249   2.128   8.654 -1.4130  0.1822  0.0799
   27SAPC  H18Z 3668   6.178   1.999   8.763  0.5091 -1.1974  0.0869
   28SAPC     N 3669   2.812   6.019   5.899  0.5392 -0.2457  0.9534
   28SAPC   C12 3670   2.686   5.937   5.941 -0.2023  0.0916  0.4988
   28SAPC  H12A 3671   2.643   5.884   5.857 -1.0924 -1.9616  2.1748
   28SAPC  H12B 3672   2.608   6.004   5.975 -0.2871  1.1388 -1.6006
   28SAPC   C13 3673   2.866   6.108   6.001 -0.2098 -0.0810 -0.4882
   28SAPC  H13A 3674   2.920   6.059   6.081  0.4219 -1.1691 -1.5459
   28SAPC  H13B 3675   2.921   6.190   5.958 -0.1036  0.5509  0.8070
   28SAPC  H13C 3676   2.786   6.164   6.046 -2.3216 -1.3469 -2.4924
   28SAPC   C14 3677   2.921   5.935   5.850 -0.4430  1.3002  0.2237
   28SAPC  H14A 3678   2.964   5.871   5.925 -0.8462  1.8568  0.9367
   28SAPC  H14B 3679   2.903   5.877   5.760  2.6964  0.6374 -0.0942
   28SAPC  H14C 3680   2.999   6.001   5.813  0.2643 -0.2001 -1.0866
   28SAPC   C15 3681   2.771   6.112   5.783 -0.6552 -0.5711  0.2776
   28SAPC  H15A 3682   2.690   6.173   5.820  0.4262  0.1730  1.4800
   28SAPC  H15B 3683   2.848   6.186   5.765 -2.1013  1.3051  1.4393
   28SAPC  H15C 3684   2.753   6.052   5.694  0.7881  1.1953 -1.2807
   28SAPC   C11 3685   2.716   5.838   6.055  0.0089 -0.2197  0.1995
   28SAPC  H11A 3686   2.784   5.756   6.023 -0.5413 -0.6822  0.1930
   28SAPC  H11B 3687   2.625   5.781   6.083 -0.4432  1.8454  3.5669
   28SAPC     P 3688   2.679   5.993   6.262 -0.3850  0.1754  0.1694
   28SAPC   O13 3689   2.773   6.083   6.329  0.4930 -0.0959  0.1306
   28SAPC   O14 3690   2.575   6.062   6.189 -0.4230  0.6062 -0.3236
   28SAPC   O12 3691   2.768   5.894   6.175  0.3997 -0.4826  0.0567
   28SAPC   O11 3692   2.617   5.898   6.368 -0.0065 -0.2460  0.4022
   28SAPC    C1 3693   2.634   5.760   6.386  0.3723  0.1465  0.3533
   28SAPC    HA 3694   2.536   5.721   6.421 -0.5454  2.7275  0.9131
   28SAPC    HB 3695   2.669   5.704   6.297  1.9640  1.3129  0.1946
   28SAPC    C2 3696   2.739   5.728   6.497  0.0243 -0.8005 -0.1617
   28SAPC    HS 3697   2.834   5.766   6.454  0.9810 -1.2411  1.4872
   28SAPC   O21 3698   2.750   5.592   6.533 -0.5885  0.3993  0.4505
   28SAPC   C21 3699   2.867   5.534   6.491 -0.3355 -0.0371 -0.0640
   28SAPC   O22 3700   2.952   5.589   6.419 -0.0507 -0.5227  0.1228
   28SAPC   C22 3701   2.889   5.393   6.535  0.7220 -0.0495 -0.1369
   28SAPC   H2R 3702   2.792   5.365   6.580  0.0064  0.8243 -1.0932
   28SAPC   H2S 3703   2.903   5.326   6.447 -0.2959 -1.3707  0.6611
   28SAPC    C3 3704   2.704   5.814   6.626 -0.5564  0.1707 -0.1832
   28SAPC    HX 3705   2.594   5.798   6.638 -0.5447 -1.5648 -1.8792
   28SAPC    HY 3706   2.716   5.923   6.612  0.2113  0.3710  1.7285
   28SAPC   O31 3707   2.790   5.768   6.742 -0.1879 -0.8928 -0.6025
   28SAPC   C31 3708   2.729   5.781   6.857  0.6095 -0.0029 -0.0625
   28SAPC   O32 3709   2.622   5.837   6.877  0.0255 -0.2538 -0.2209
   28SAPC   C32 3710   2.811   5.711   6.962 -0.5980  0.2748 -0.0422
   28SAPC   H2X 3711   2.916   5.738   6.937 -0.9094  4.0287  1.9949
   28SAPC   H2Y 3712   2.786   5.603   6.960 -0.1192  0.1207  1.4122
   28SAPC   C23 3713   2.986   5.376   6.650  0.1675  0.2052  0.2017
   28SAPC   H3R 3714   3.075   5.436   6.623 -0.3281  0.3478 -1.1738
   28SAPC   H3S 3715   3.020   5.270   6.648 -0.6192 -0.0439 -1.7442
   28SAPC   C24 3716   2.934   5.430   6.779  0.2484 -0.2303 -0.0833
   28SAPC   H4R 3717   2.896   5.533   6.761  1.5129  0.1563 -0.6623
   28SAPC   H4S 3718   2.861   5.358   6.821 -0.3255  0.5159  0.2175
   28SAPC   C25 3719   3.056   5.439   6.869 -0.0738 -0.0487  0.4464
   28SAPC   H5R 3720   3.114   5.529   6.842 -1.3918 -0.1189 -3.0419
   28SAPC   C26 3721   3.112   5.347   6.955  0.7084 -0.3116 -0.4062
   28SAPC   H6R 3722   3.207   5.380   6.999 -0.9208  3.8333  0.4268
   28SAPC   C27 3723   3.059   5.212   6.998  0.5074 -0.4056  0.0516
   28SAPC   H7R 3724   2.950   5.227   7.016  0.5677  1.1759 -0.7402
   28SAPC   H7S 3725   3.103   5.167   7.090 -1.8788 -0.4598  1.2427
   28SAPC   C28 3726   3.078   5.111   6.883  0.2305 -0.6416  1.0715
   28SAPC   H8R 3727   3.094   5.150   6.782  0.5793  0.1568  1.4233
   28SAPC   C29 3728   3.079   4.978   6.907  0.4820  0.2808 -0.0881
   28SAPC   H9R 3729   3.092   4.912   6.821 -2.7341  0.3333 -0.7392
   28SAPC  C210 3730   3.053   4.906   7.033  0.4837 -0.6519 -0.7464
   28SAPC  H10R 3731   2.947   4.873   7.031 -0.1517  1.3218 -2.4409
   28SAPC  H10S 3732   3.057   4.967   7.126  2.0283 -0.4065 -0.9414
   28SAPC  C211 3733   3.144   4.786   7.064  0.4270  0.7740 -0.8610
   28SAPC  H11R 3734   3.172   4.713   6.987  0.5101 -2.1879  1.7785
   28SAPC  C212 3735   3.210   4.778   7.180 -0.2676  0.4299  0.4095
   28SAPC  H12R 3736   3.277   4.691   7.193 -0.6296  0.2503  1.1534
   28SAPC  C213 3737   3.212   4.870   7.301  0.3199  0.2361 -0.4362
   28SAPC  H13R 3738   3.208   4.977   7.269 -1.1074  0.0950 -0.7793
   28SAPC  H13S 3739   3.291   4.843   7.374 -0.9175 -0.1242  0.8168
   28SAPC  C214 3740   3.098   4.842   7.391  0.3102 -0.0913  0.1514
   28SAPC  H14R 3741   3.087   4.737   7.423  0.3955 -0.1626 -0.0520
   28SAPC  C215 3742   3.019   4.934   7.439  0.3625  0.0754 -0.2948
   28SAPC  H15R 3743   2.939   4.901   7.506 -0.2743  1.0266 -0.5701
   28SAPC  C216 3744   3.011   5.084   7.416 -0.3231 -0.3132  0.0916
   28SAPC  H16R 3745   2.946   5.108   7.329 -0.1139  0.1530  0.0630
   28SAPC  H16S 3746   3.111   5.121   7.385 -0.5565  1.0319  0.8588
   28SAPC  C217 3747   2.946   5.167   7.535 -0.0690  0.3511  0.0407
   28SAPC  H17R 3748   2.854   5.122   7.578 -1.4404 -0.4547 -3.4053
   28SAPC  H17S 3749   2.904   5.257   7.485 -2.0413 -0.1792  0.6315
   28SAPC  C218 3750   3.046   5.190   7.654 -0.2258  0.6474  1.0447
   28SAPC  H18R 3751   3.137   5.246   7.622 -0.2308  0.0630 -0.0404
   28SAPC  H18S 3752   3.086   5.093   7.690  0.8158  0.3181 -0.8432
   28SAPC  C219 3753   3.000   5.267   7.782  0.1344  0.7561  0.1993
   28SAPC  H19R 3754   2.945   5.356   7.747 -2.2041  0.0645  1.8785
   28SAPC  H19S 3755   3.088   5.293   7.844 -0.9867 -0.9270  2.6453
   28SAPC  C220 3756   2.901   5.188   7.865  0.4396 -0.0112 -0.0258
   28SAPC  H20R 3757   2.815   5.241   7.911 -0.1127 -1.3469  0.5186
   28SAPC  H20S 3758   2.957   5.140   7.947 -1.1265 -1.8596  0.0575
   28SAPC  H20T 3759   2.847   5.108   7.810 -1.7435  0.9153  0.6589
   28SAPC   C33 3760   2.784   5.757   7.106  0.3794 -0.2196  0.1388
   28SAPC   H3X 3761   2.674   5.773   7.112  0.2561 -0.4295 -1.2302
   28SAPC   H3Y 3762   2.830   5.853   7.136 -0.8067  0.1818  0.7340
   28SAPC   C34 3763   2.836   5.649   7.200 -0.2393  0.1862  0.3944
   28SAPC   H4X 3764   2.946   5.642   7.187 -0.5682 -0.4495 -3.4990
   28SAPC   H4Y 3765   2.802   5.545   7.180  1.3997 -0.2497 -0.3185
   28SAPC   C35 3766   2.786   5.691   7.342  0.0569  0.4716  0.1910
   28SAPC   H5X 3767   2.676   5.676   7.349  0.4366 -3.2273  0.0597
   28SAPC   H5Y 3768   2.796   5.801   7.350  0.7570  0.3703  0.8124
   28SAPC   C36 3769   2.865   5.614   7.449  0.1977 -0.8100  0.8861
   28SAPC   H6X 3770   2.973   5.603   7.423  0.0208  1.4493 -1.1312
   28SAPC   H6Y 3771   2.822   5.512   7.435  0.4873 -0.5679 -2.9853
   28SAPC   C37 3772   2.856   5.674   7.592 -0.0803 -0.0974  0.7430
   28SAPC   H7X 3773   2.929   5.758   7.596 -0.6138  0.3869  0.3387
   28SAPC   H7Y 3774   2.883   5.596   7.666 -1.6379 -1.1163  0.2785
   28SAPC   C38 3775   2.720   5.740   7.636 -0.4797  0.7429 -0.0880
   28SAPC   H8X 3776   2.634   5.698   7.580  0.2078  0.2682 -0.8305
   28SAPC   H8Y 3777   2.729   5.846   7.602  3.8708 -0.4313 -3.6802
   28SAPC   C39 3778   2.688   5.739   7.781  0.0896  0.9211  0.0056
   28SAPC   H9X 3779   2.763   5.788   7.847 -0.7131  2.2473 -0.0117
   28SAPC   H9Y 3780   2.672   5.638   7.823 -0.8082  2.2210  3.0858
   28SAPC  C310 3781   2.566   5.823   7.812  0.1256 -0.4971  0.1342
   28SAPC  H10X 3782   2.472   5.790   7.762  0.4186 -1.5324  0.2576
   28SAPC  H10Y 3783   2.592   5.927   7.782 -1.6736  0.1412  0.6329
   28SAPC  C311 3784   2.557   5.831   7.964 -0.0490 -0.2338  0.0518
   28SAPC  H11X 3785   2.584   5.732   8.005  0.6006 -1.1455 -2.3742
   28SAPC  H11Y 3786   2.453   5.858   7.992  0.1936  1.6225 -0.6413
   28SAPC  C312 3787   2.644   5.951   8.029  0.2353  0.3521  0.3746
   28SAPC  H12X 3788   2.613   6.049   7.986 -0.2938  0.5836  1.2591
   28SAPC  H12Y 3789   2.751   5.936   8.001 -0.3991  1.1247 -2.9637
   28SAPC  C313 3790   2.615   5.974   8.180 -0.5443 -0.5520  0.0720
   28SAPC  H13X 3791   2.650   5.888   8.242 -0.8603  0.1952  1.3153
   28SAPC  H13Y 3792   2.504   5.980   8.185 -0.6160  1.5340 -2.0847
   28SAPC  C314 3793   2.682   6.094   8.253  0.1597  0.2172  0.9548
   28SAPC  H14X 3794   2.646   6.099   8.357  0.6002  0.5590  1.0955
   28SAPC  H14Y 3795   2.642   6.190   8.212 -0.6145 -0.2607  0.5662
   28SAPC  C315 3796   2.838   6.089   8.258 -0.1467 -0.4188 -0.1046
   28SAPC  H15X 3797   2.881   6.081   8.156  0.1983 -1.1736  0.0944
   28SAPC  H15Y 3798   2.870   5.994   8.307 -0.2607 -0.2870  0.2304
   28SAPC  C316 3799   2.907   6.216   8.319 -0.0436  0.1906 -0.0910
   28SAPC  H16X 3800   2.892   6.200   8.428  1.9397  1.0309  0.3484
   28SAPC  H16Y 3801   2.838   6.298   8.289 -0.0070 -0.3908 -1.8745
   28SAPC  C317 3802   3.051   6.249   8.275  0.0728 -0.2808 -0.2716
   28SAPC  H17X 3803   3.050   6.287   8.171 -0.3669 -0.8314 -0.4744
   28SAPC  H17Y 3804   3.103   6.151   8.289  0.2746 -0.0412  0.7287
   28SAPC  C318 3805   3.116   6.348   8.372 -0.7195 -0.2412 -0.4498
   28SAPC  H18X 3806   3.217   6.367   8.331 -0.4036 -0.5749  0.1638
   28SAPC  H18Y 3807   3.121   6.303   8.474 -1.3123  1.3249  0.3116
   28SAPC  H18Z 3808   3.058   6.443   8.375  2.8004  2.1388 -1.5970
   29SAPC     N 3809   0.310   3.369   6.232  0.7073  0.1865  0.7268
   29SAPC   C12 3810   0.163   3.336   6.275  0.3383  0.2825  0.4801
   29SAPC  H12A 3811   0.120   3.276   6.196  0.7208 -0.6650  0.9756
   29SAPC  H12B 3812   0.097   3.421   6.265 -0.9317 -0.7767 -0.3054
   29SAPC   C13 3813   0.376   3.457   6.322  0.2042 -0.3776  0.3855
   29SAPC  H13A 3814   0.325   3.551   6.339  0.3625 -0.4504  1.3125
   29SAPC  H13B 3815   0.383   3.404   6.415 -0.0688  1.0428  1.2526
   29SAPC  H13C 3816   0.477   3.475   6.287 -0.4703 -0.1673 -1.6407
   29SAPC   C14 3817   0.384   3.238   6.225 -0.6126  0.7273 -1.0045
   29SAPC  H14A 3818   0.483   3.252   6.186 -1.4680 -0.6695 -3.9523
   29SAPC  H14B 3819   0.397   3.183   6.318  1.1959  0.8969 -1.1193
   29SAPC  H14C 3820   0.337   3.163   6.164  0.8094 -2.2474  1.2656
   29SAPC   C15 3821   0.320   3.442   6.105  0.3981 -0.4381  0.1822
   29SAPC  H15A 3822   0.416   3.488   6.085 -0.0349  1.1291  1.5174
   29SAPC  H15B 3823   0.301   3.372   6.025  2.0148  1.1231 -1.6691
   29SAPC  H15C 3824   0.252   3.525   6.099  1.2914  0.2630 -0.7571
   29SAPC   C11 3825   0.139   3.256   6.409 -0.4929 -0.2297  0.0759
   29SAPC  H11A 3826   0.031   3.263   6.434 -0.5358 -0.9174  0.1014
   29SAPC  H11B 3827   0.190   3.306   6.495  0.1730 -0.3570 -0.2380
   29SAPC     P 3828   0.130   3.005   6.315 -0.4178  0.0611  0.3504
   29SAPC   O13 3829   0.026   3.074   6.233  0.0573  0.2646  0.0439
   29SAPC   O14 3830   0.245   2.948   6.248  0.0630  0.3222 -0.1865
   29SAPC   O12 3831   0.186   3.120   6.410 -0.3672 -0.1020 -0.1507
   29SAPC   O11 3832   0.059   2.905   6.407  0.3150 -0.1611 -0.6677
   29SAPC    C1 3833  -0.035   2.948   6.508  0.2259  0.3928 -0.4885
   29SAPC    HA 3834  -0.079   3.049   6.494 -0.8580 -0.0632 -0.4757
   29SAPC    HB 3835  -0.114   2.870   6.515  1.2999 -0.6542  0.4365
   29SAPC    C2 3836   0.031   2.940   6.649 -0.5434  0.1773  0.0947
   29SAPC    HS 3837   0.093   3.032   6.656  0.0937 -0.0505 -1.9036
   29SAPC   O21 3838   0.101   2.813   6.673 -0.1280 -0.2321 -0.5702
   29SAPC   C21 3839   0.227   2.828   6.657 -0.0413  0.4536  0.7019
   29SAPC   O22 3840   0.287   2.929   6.619 -0.1198  0.0139  0.0711
   29SAPC   C22 3841   0.299   2.701   6.687 -0.2326 -0.6809 -0.4590
   29SAPC   H2R 3842   0.228   2.622   6.719 -3.2938  1.8037 -0.6643
   29SAPC   H2S 3843   0.358   2.675   6.596  0.3531 -0.4691 -0.1438
   29SAPC    C3 3844  -0.084   2.962   6.746  0.0675  0.2206 -0.1028
   29SAPC    HX 3845  -0.148   2.872   6.761  0.4400  0.1821  1.3224
   29SAPC    HY 3846  -0.146   3.045   6.707  0.7082  0.1786 -1.2468
   29SAPC   O31 3847  -0.035   3.014   6.872  0.3384 -0.4977  0.5309
   29SAPC   C31 3848  -0.040   2.945   6.983 -0.0314  0.2793 -0.5908
   29SAPC   O32 3849  -0.053   2.824   6.994  0.4431  0.1819  0.5766
   29SAPC   C32 3850  -0.007   3.024   7.108  0.7916  0.4020 -0.8147
   29SAPC   H2X 3851  -0.046   3.127   7.106  0.7225  0.3902 -0.2358
   29SAPC   H2Y 3852   0.104   3.034   7.112  0.8279 -0.2976  1.4963
   29SAPC   C23 3853   0.395   2.725   6.806  0.1565  0.1033 -0.1236
   29SAPC   H3R 3854   0.474   2.799   6.785 -1.2481  1.6223 -0.2567
   29SAPC   H3S 3855   0.455   2.634   6.826 -2.1751 -1.6259 -0.4919
   29SAPC   C24 3856   0.314   2.759   6.936 -0.0559  0.6282 -0.2325
   29SAPC   H4R 3857   0.240   2.678   6.950 -0.1121  0.6298 -0.5012
   29SAPC   H4S 3858   0.272   2.860   6.920  0.7063  0.6819 -2.3225
   29SAPC   C25 3859   0.412   2.781   7.052 -0.4462  0.6312 -0.1880
   29SAPC   H5R 3860   0.517   2.795   7.021  0.2745 -0.4967  1.5360
   29SAPC   C26 3861   0.390   2.755   7.185 -0.3866 -0.0034  0.5036
   29SAPC   H6R 3862   0.474   2.761   7.256  0.0243  0.2827  0.0044
   29SAPC   C27 3863   0.260   2.706   7.240  0.2301 -0.0201  0.5680
   29SAPC   H7R 3864   0.177   2.678   7.172 -0.9209  2.3039  0.9149
   29SAPC   H7S 3865   0.216   2.783   7.308  0.1791 -0.8139  1.4629
   29SAPC   C28 3866   0.283   2.585   7.329  0.6857  0.1860  0.0396
   29SAPC   H8R 3867   0.294   2.488   7.280 -3.3390 -0.9292  0.9592
   29SAPC   C29 3868   0.291   2.589   7.464 -0.6266  0.1575  0.0854
   29SAPC   H9R 3869   0.304   2.496   7.520 -2.5692 -0.2216 -0.0014
   29SAPC  C210 3870   0.280   2.708   7.554  0.4105  0.3053  0.2517
   29SAPC  H10R 3871   0.176   2.692   7.588 -1.5658  1.3891 -4.4827
   29SAPC  H10S 3872   0.268   2.797   7.489 -2.2907 -1.4250 -1.8438
   29SAPC  C211 3873   0.395   2.713   7.650  0.0454  0.3237 -0.5323
   29SAPC  H11R 3874   0.492   2.686   7.604  0.7342  2.0731 -0.1651
   29SAPC  C212 3875   0.379   2.732   7.780 -0.3418 -0.5010  0.0039
   29SAPC  H12R 3876   0.468   2.717   7.843  0.8610  2.4946 -0.8011
   29SAPC  C213 3877   0.248   2.759   7.846  0.5162  0.5290 -0.0924
   29SAPC  H13R 3878   0.192   2.666   7.867 -0.4793  0.6547 -1.9746
   29SAPC  H13S 3879   0.176   2.807   7.776 -0.0942  0.8728  0.7561
   29SAPC  C214 3880   0.265   2.841   7.963 -0.2461 -0.4354 -0.1797
   29SAPC  H14R 3881   0.251   2.949   7.952 -0.0650 -0.1754  1.7947
   29SAPC  C215 3882   0.302   2.798   8.084  1.2830  0.0778 -0.4230
   29SAPC  H15R 3883   0.317   2.874   8.162 -0.4829  2.6816 -2.4376
   29SAPC  C216 3884   0.331   2.657   8.125  0.9234 -0.4872  0.6058
   29SAPC  H16R 3885   0.335   2.584   8.041 -2.1427 -0.2090  0.1136
   29SAPC  H16S 3886   0.244   2.637   8.190 -0.2125 -0.0379 -0.7087
   29SAPC  C217 3887   0.457   2.624   8.213 -0.5556 -0.0931 -0.6435
   29SAPC  H17R 3888   0.551   2.642   8.157  0.0793 -2.3291 -0.4245
   29SAPC  H17S 3889   0.461   2.513   8.209  1.2774 -0.0487 -1.0399
   29SAPC  C218 3890   0.457   2.683   8.350 -0.4563 -0.5791 -0.2420
   29SAPC  H18R 3891   0.373   2.644   8.411  0.7251 -2.0452  0.5197
   29SAPC  H18S 3892   0.443   2.793   8.341  0.6635 -0.4512 -0.5678
   29SAPC  C219 3893   0.587   2.669   8.439  0.4376 -0.1659 -0.2321
   29SAPC  H19R 3894   0.611   2.561   8.442  3.5024  0.4416  0.7436
   29SAPC  H19S 3895   0.575   2.706   8.543 -1.0541  1.8767 -1.0456
   29SAPC  C220 3896   0.705   2.732   8.374 -0.3387 -0.7537  0.2784
   29SAPC  H20R 3897   0.675   2.839   8.377  0.4689 -0.4281 -1.7224
   29SAPC  H20S 3898   0.711   2.707   8.266 -1.8516  2.7437 -0.7576
   29SAPC  H20T 3899   0.802   2.719   8.428  0.6779 -0.4354 -1.3925
   29SAPC   C33 3900  -0.058   2.955   7.234 -0.0469 -0.1245 -0.1986
   29SAPC   H3X 3901  -0.030   2.847   7.233 -0.8415 -0.3956  1.9851
   29SAPC   H3Y 3902  -0.168   2.956   7.246  0.0369 -0.8502  0.8054
   29SAPC   C34 3903   0.008   3.019   7.358  0.4977  0.6753 -1.0606
   29SAPC   H4X 3904  -0.006   3.129   7.355  0.1688  0.7256  0.7445
   29SAPC   H4Y 3905   0.119   3.016   7.361  0.5898  2.7843 -0.7937
   29SAPC   C35 3906  -0.039   2.969   7.497 -0.3140 -0.3384  0.3745
   29SAPC   H5X 3907   0.002   2.866   7.500  0.3263 -0.0758  1.1584
   29SAPC   H5Y 3908  -0.148   2.951   7.501 -0.0826 -1.7359  0.8586
   29SAPC   C36 3909   0.001   3.064   7.615 -0.3179  0.0470 -0.0469
   29SAPC   H6X 3910  -0.038   3.163   7.583  2.0844  0.5265 -1.7275
   29SAPC   H6Y 3911   0.112   3.055   7.622 -0.2217 -0.0884 -1.5658
   29SAPC   C37 3912  -0.056   3.022   7.748  0.1826 -0.7117  0.4974
   29SAPC   H7X 3913  -0.021   2.919   7.768 -1.2943 -1.3024  0.1168
   29SAPC   H7Y 3914  -0.165   3.006   7.739 -0.4719  3.0384  0.0715
   29SAPC   C38 3915  -0.017   3.109   7.869  0.0794  0.3290 -0.0847
   29SAPC   H8X 3916  -0.074   3.204   7.869  0.6265  0.6723  0.8161
   29SAPC   H8Y 3917   0.090   3.141   7.865  0.3808 -0.5839  0.3381
   29SAPC   C39 3918  -0.033   3.029   7.997  0.1672  0.5227  0.4343
   29SAPC   H9X 3919   0.039   2.944   8.001 -0.0746  0.3093  0.2622
   29SAPC   H9Y 3920  -0.132   2.980   8.013 -0.3424  0.1406 -3.0694
   29SAPC  C310 3921  -0.013   3.110   8.123  0.0721 -0.5043  0.4749
   29SAPC  H10X 3922  -0.083   3.196   8.114  0.0565 -0.7538 -3.2701
   29SAPC  H10Y 3923   0.093   3.142   8.133 -0.6652  2.2275  0.2677
   29SAPC  C311 3924  -0.045   3.023   8.241 -0.1199  0.5581  0.0639
   29SAPC  H11X 3925   0.031   2.942   8.242 -0.6498  0.0540  0.3099
   29SAPC  H11Y 3926  -0.141   2.968   8.249  0.8053 -0.9637  1.3160
   29SAPC  C312 3927  -0.038   3.108   8.371 -0.1752  0.4327  0.4010
   29SAPC  H12X 3928  -0.033   3.215   8.342  0.7268  0.4339  0.5571
   29SAPC  H12Y 3929   0.053   3.095   8.433 -1.1496 -0.3167  1.7419
   29SAPC  C313 3930  -0.159   3.091   8.462 -0.1865  0.8932 -0.6800
   29SAPC  H13X 3931  -0.134   3.116   8.567  0.4183 -2.8602  0.2151
   29SAPC  H13Y 3932  -0.190   2.984   8.464 -0.5209  0.9479 -2.1355
   29SAPC  C314 3933  -0.284   3.161   8.425 -0.3141 -0.1638  0.5740
   29SAPC  H14X 3934  -0.305   3.139   8.318  0.5722  1.2019  0.0888
   29SAPC  H14Y 3935  -0.266   3.269   8.446 -0.0766  0.1563 -1.1657
   29SAPC  C315 3936  -0.412   3.117   8.492 -0.1408  0.1185  0.0026
   29SAPC  H15X 3937  -0.432   3.010   8.472  0.6992 -0.2568  1.0750
   29SAPC  H15Y 3938  -0.504   3.172   8.462 -0.5382 -0.4565  0.1641
   29SAPC  C316 3939  -0.431   3.134   8.645 -0.5689 -0.2347  0.4337
   29SAPC  H16X 3940  -0.385   3.233   8.660  2.8795 -1.3337 -1.6962
   29SAPC  H16Y 3941  -0.363   3.061   8.694  1.1313  0.6747 -0.5184
   29SAPC  C317 3942  -0.576   3.122   8.695  0.0308 -0.3233 -0.0347
   29SAPC  H17X 3943  -0.638   3.166   8.614 -1.1638 -2.1885 -0.1897
   29SAPC  H17Y 3944  -0.591   3.186   8.785 -4.7754 -0.4282 -0.5116
   29SAPC  C318 3945  -0.618   2.974   8.709 -0.4362 -1.3658 -0.0176
   29SAPC  H18X 3946  -0.717   2.960   8.757 -0.3754  2.5107  1.6232
   29SAPC  H18Y 3947  -0.549   2.929   8.783 -0.0657 -0.7691  0.0084
   29SAPC  H18Z 3948  -0.605   2.936   8.605 -1.3699 -2.8187  0.3626
   30SAPC     N 3949   1.140   2.302   6.364 -0.0968  0.1710  0.5736
   30SAPC   C12 3950   1.127   2.456   6.338  0.4308 -0.1650 -0.2406
   30SAPC  H12A 3951   1.205   2.497   6.401  1.0383 -0.7190 -0.6184
   30SAPC  H12B 3952   1.030   2.496   6.363  0.1948 -1.1578  0.5070
   30SAPC   C13 3953   1.061   2.235   6.258  0.0016  0.2484 -0.1519
   30SAPC  H13A 3954   1.110   2.260   6.165  0.6712  1.6260  0.5482
   30SAPC  H13B 3955   1.055   2.128   6.276 -0.0272  0.4372  1.0560
   30SAPC  H13C 3956   0.961   2.274   6.258  0.1087  0.5287 -0.5628
   30SAPC   C14 3957   1.276   2.257   6.368 -0.3904 -0.2140  0.5026
   30SAPC  H14A 3958   1.325   2.281   6.274 -2.1841 -1.2120 -0.7443
   30SAPC  H14B 3959   1.336   2.295   6.450 -0.6580 -0.5228  0.8425
   30SAPC  H14C 3960   1.294   2.151   6.368  1.6987  0.0816  0.6591
   30SAPC   C15 3961   1.080   2.265   6.496 -0.0607 -0.1191 -0.0541
   30SAPC  H15A 3962   0.975   2.290   6.497 -0.2371 -0.7550  2.0995
   30SAPC  H15B 3963   1.093   2.162   6.526 -1.0835 -0.1341  0.3839
   30SAPC  H15C 3964   1.116   2.337   6.568  0.1716  0.6438 -0.9028
   30SAPC   C11 3965   1.156   2.504   6.198  0.0963 -0.3472  0.5779
   30SAPC  H11A 3966   1.151   2.615   6.199  2.7275 -0.0469 -2.5557
   30SAPC  H11B 3967   1.073   2.476   6.131 -0.3602  0.4872  0.7874
   30SAPC     P 3968   1.391   2.561   6.098  0.2278 -0.0440  0.2308
   30SAPC   O13 3969   1.512   2.479   6.060 -0.6245 -0.0408 -0.1112
   30SAPC   O14 3970   1.333   2.644   5.993  0.3650  0.5212  0.2907
   30SAPC   O12 3971   1.285   2.463   6.161 -0.3819 -0.5138  0.2178
   30SAPC   O11 3972   1.420   2.660   6.210 -0.1329 -0.2060  0.2548
   30SAPC    C1 3973   1.444   2.612   6.342  0.7733 -0.2469  0.1156
   30SAPC    HA 3974   1.384   2.668   6.416  0.6507 -0.1090 -0.0894
   30SAPC    HB 3975   1.412   2.507   6.359  0.1776  0.0759  1.1079
   30SAPC    C2 3976   1.596   2.620   6.387 -0.1814 -0.1474 -0.2123
   30SAPC    HS 3977   1.663   2.612   6.299 -0.6830 -1.9858 -0.4567
   30SAPC   O21 3978   1.629   2.527   6.488  0.4549 -0.0704  0.1060
   30SAPC   C21 3979   1.631   2.405   6.442 -0.5627 -0.2745 -0.7986
   30SAPC   O22 3980   1.623   2.375   6.323  0.7544 -0.4829  0.8691
   30SAPC   C22 3981   1.642   2.320   6.564 -0.0451 -0.0480 -0.6904
   30SAPC   H2R 3982   1.731   2.343   6.626  0.0922 -0.8600 -0.5733
   30SAPC   H2S 3983   1.554   2.344   6.628 -0.2414 -0.5662 -0.7575
   30SAPC    C3 3984   1.647   2.758   6.445  0.2278 -0.5028  0.1032
   30SAPC    HX 3985   1.604   2.833   6.376 -0.1196 -2.5227 -1.9954
   30SAPC    HY 3986   1.758   2.760   6.444  0.2467 -1.0334  0.3220
   30SAPC   O31 3987   1.593   2.774   6.580  0.1960  0.4472  0.4388
   30SAPC   C31 3988   1.604   2.894   6.621 -0.1381  0.1606  0.0512
   30SAPC   O32 3989   1.653   2.988   6.556  0.4909  0.1587  0.1492
   30SAPC   C32 3990   1.564   2.904   6.771 -0.3956 -0.3397 -0.3418
   30SAPC   H2X 3991   1.566   2.795   6.794 -1.3200 -0.1442  0.7614
   30SAPC   H2Y 3992   1.459   2.939   6.777 -0.4332 -0.3314 -1.0045
   30SAPC   C23 3993   1.645   2.173   6.521 -0.4494  0.1877  0.6576
   30SAPC   H3R 3994   1.719   2.138   6.446 -0.0096  0.0904  1.1234
   30SAPC   H3S 3995   1.547   2.166   6.470 -0.2663  0.9497  0.1761
   30SAPC   C24 3996   1.665   2.068   6.631  0.2094  0.3681 -0.4665
   30SAPC   H4R 3997   1.657   1.965   6.589 -1.5977  1.0774 -2.0232
   30SAPC   H4S 3998   1.583   2.060   6.707  0.8634 -1.1576  0.1326
   30SAPC   C25 3999   1.807   2.083   6.684  0.5722  0.7618 -0.4108
   30SAPC   H5R 4000   1.880   2.090   6.602 -0.2207 -0.8748 -1.3032
   30SAPC   C26 4001   1.833   2.097   6.816  0.1383 -0.6488 -0.1978
   30SAPC   H6R 4002   1.939   2.115   6.840  0.8484 -0.3280 -3.1783
   30SAPC   C27 4003   1.734   2.091   6.931 -0.6530 -0.2640 -0.5376
   30SAPC   H7R 4004   1.777   2.063   7.029  0.4530  0.0476 -0.9236
   30SAPC   H7S 4005   1.663   2.006   6.915  1.8718 -2.7814  0.8527
   30SAPC   C28 4006   1.641   2.205   6.953 -0.1032  0.4924 -0.4693
   30SAPC   H8R 4007   1.617   2.268   6.866 -4.2951  1.8640  1.4093
   30SAPC   C29 4008   1.571   2.231   7.070 -0.5042  0.4612 -0.6262
   30SAPC   H9R 4009   1.510   2.322   7.080  0.8779  1.1609  2.7748
   30SAPC  C210 4010   1.597   2.159   7.204 -0.7157 -0.6048 -0.0915
   30SAPC  H10R 4011   1.633   2.055   7.193  1.4614  0.2127 -1.1912
   30SAPC  H10S 4012   1.503   2.163   7.264  0.0536  5.3506  1.2711
   30SAPC  C211 4013   1.700   2.231   7.291  0.1311 -0.0281  0.1167
   30SAPC  H11R 4014   1.777   2.270   7.223  0.3194 -0.5472  0.0229
   30SAPC  C212 4015   1.706   2.249   7.425  0.4129  0.0447  0.0192
   30SAPC  H12R 4016   1.787   2.314   7.461  2.2056 -1.5134 -0.9783
   30SAPC  C213 4017   1.607   2.192   7.525  0.0455  0.4575 -0.0094
   30SAPC  H13R 4018   1.670   2.121   7.583 -0.0024  0.2025 -0.2680
   30SAPC  H13S 4019   1.524   2.136   7.478 -0.1209  0.5318  0.1979
   30SAPC  C214 4020   1.553   2.300   7.620  0.5421 -0.0460  0.0885
   30SAPC  H14R 4021   1.443   2.303   7.621  0.4338 -2.0674 -0.8148
   30SAPC  C215 4022   1.629   2.376   7.703 -0.0401  0.3393  0.2593
   30SAPC  H15R 4023   1.578   2.440   7.776  0.3815 -0.3054  1.1237
   30SAPC  C216 4024   1.780   2.369   7.725 -0.1354  0.1360  0.2099
   30SAPC  H16R 4025   1.838   2.460   7.700 -0.5849 -0.0830 -1.7285
   30SAPC  H16S 4026   1.822   2.288   7.662 -0.9709 -0.3408  0.2563
   30SAPC  C217 4027   1.808   2.325   7.875  0.0017 -0.1929  0.3105
   30SAPC  H17R 4028   1.910   2.281   7.862 -0.7376 -2.1309  0.6994
   30SAPC  H17S 4029   1.740   2.244   7.910  2.6316 -1.0960  3.9898
   30SAPC  C218 4030   1.809   2.441   7.980  0.6852  0.0766 -0.3119
   30SAPC  H18R 4031   1.710   2.491   7.970  1.2342  0.9789 -1.4973
   30SAPC  H18S 4032   1.893   2.512   7.966  1.7181 -1.0445  0.0058
   30SAPC  C219 4033   1.821   2.385   8.123 -0.7105  0.1492  0.7126
   30SAPC  H19R 4034   1.926   2.350   8.113 -1.4187 -1.7718 -0.8962
   30SAPC  H19S 4035   1.744   2.306   8.138 -0.5269  0.0158  0.9611
   30SAPC  C220 4036   1.797   2.477   8.237  0.7880  0.6941  0.0690
   30SAPC  H20R 4037   1.824   2.425   8.332  2.2067 -1.5371 -1.4465
   30SAPC  H20S 4038   1.688   2.499   8.232  0.0917 -2.3939 -0.5286
   30SAPC  H20T 4039   1.856   2.570   8.232  1.8842 -0.0087 -0.4065
   30SAPC   C33 4040   1.656   2.994   6.853  0.0801 -0.8216 -0.3105
   30SAPC   H3X 4041   1.638   3.101   6.831  0.2438 -0.5599  0.8140
   30SAPC   H3Y 4042   1.764   2.978   6.835  0.5891  1.0398  0.9050
   30SAPC   C34 4043   1.636   2.982   7.003 -0.1721 -0.3190 -0.5774
   30SAPC   H4X 4044   1.684   2.888   7.039  0.7896  1.1721  2.3778
   30SAPC   H4Y 4045   1.527   2.981   7.026  0.0969 -0.0744  0.7593
   30SAPC   C35 4046   1.708   3.090   7.097  0.8936  0.5214 -0.4582
   30SAPC   H5X 4047   1.650   3.185   7.088 -0.5963 -0.3137  0.0881
   30SAPC   H5Y 4048   1.808   3.100   7.049  1.1894  1.7145  0.3663
   30SAPC   C36 4049   1.712   3.056   7.250  0.0342  0.4658  0.2950
   30SAPC   H6X 4050   1.761   2.957   7.259 -3.1247 -1.3411 -0.7952
   30SAPC   H6Y 4051   1.611   3.032   7.290  0.7774 -2.3224  0.7177
   30SAPC   C37 4052   1.781   3.155   7.343 -0.3296  0.0046 -0.5174
   30SAPC   H7X 4053   1.741   3.258   7.331  0.6533  0.8477  2.5535
   30SAPC   H7Y 4054   1.889   3.138   7.322 -0.1109 -0.1715  0.6872
   30SAPC   C38 4055   1.778   3.133   7.495  0.6705  0.3144  0.6752
   30SAPC   H8X 4056   1.790   3.024   7.514 -0.5747  0.4348  2.4617
   30SAPC   H8Y 4057   1.682   3.161   7.545  0.0880 -0.8313  0.2520
   30SAPC   C39 4058   1.890   3.207   7.570 -0.1151  0.9163 -0.4550
   30SAPC   H9X 4059   1.899   3.308   7.525 -6.5641  0.7162 -3.4487
   30SAPC   H9Y 4060   1.984   3.152   7.552 -0.0559  0.0531  2.1343
   30SAPC  C310 4061   1.864   3.203   7.719  0.4389 -0.1492 -0.3430
   30SAPC  H10X 4062   1.963   3.227   7.763  0.5288  0.1112 -0.6860
   30SAPC  H10Y 4063   1.847   3.098   7.752  0.4360  0.6488  2.4103
   30SAPC  C311 4064   1.754   3.297   7.765 -0.2287 -0.5186 -0.1829
   30SAPC  H11X 4065   1.652   3.256   7.748 -0.3907  0.4511 -1.7652
   30SAPC  H11Y 4066   1.770   3.395   7.714 -2.7441  1.4318  2.4404
   30SAPC  C312 4067   1.753   3.331   7.920 -0.2422  0.2144 -0.3962
   30SAPC  H12X 4068   1.744   3.238   7.979  0.9159  1.3607  1.7245
   30SAPC  H12Y 4069   1.677   3.406   7.950  0.0160  0.3510 -0.0753
   30SAPC  C313 4070   1.884   3.399   7.966 -0.0036 -0.0376 -0.3274
   30SAPC  H13X 4071   1.890   3.504   7.933  1.7890 -0.5709 -1.8813
   30SAPC  H13Y 4072   1.975   3.348   7.930  0.2061 -0.2908  0.5210
   30SAPC  C314 4073   1.896   3.400   8.120 -0.1423  0.5019  1.2439
   30SAPC  H14X 4074   1.872   3.298   8.158 -1.1626  0.9029  1.7435
   30SAPC  H14Y 4075   1.814   3.471   8.146  0.0183  1.6567 -1.2238
   30SAPC  C315 4076   2.023   3.453   8.187 -0.7779 -1.1980 -0.3855
   30SAPC  H15X 4077   2.002   3.468   8.295  0.4478 -1.5661 -0.0776
   30SAPC  H15Y 4078   2.061   3.549   8.147 -1.7141 -0.2140  0.9793
   30SAPC  C316 4079   2.122   3.339   8.183 -0.6494  0.0351 -0.3852
   30SAPC  H16X 4080   2.174   3.351   8.086  1.8131  1.7902  1.0505
   30SAPC  H16Y 4081   2.075   3.240   8.201  1.1197 -1.0495 -1.5221
   30SAPC  C317 4082   2.235   3.339   8.283  0.9129 -0.2114 -1.0547
   30SAPC  H17X 4083   2.180   3.357   8.377  0.0202 -0.2369 -1.5654
   30SAPC  H17Y 4084   2.300   3.425   8.258  1.6032 -0.6316 -0.7370
   30SAPC  C318 4085   2.311   3.208   8.305  0.2710  0.2196  0.4434
   30SAPC  H18X 4086   2.353   3.171   8.209 -2.2922 -0.3082 -0.5593
   30SAPC  H18Y 4087   2.243   3.129   8.344 -0.3467  0.9069  0.7679
   30SAPC  H18Z 4088   2.391   3.230   8.378 -0.0212 -0.0955  0.8679
   31SAPC     N 4089   3.228   3.640   5.919  0.1385 -0.0266 -0.3154
   31SAPC   C12 4090   3.100   3.571   5.970  0.0385 -0.0319 -0.2358
   31SAPC  H12A 4091   3.122   3.475   6.015 -1.3261 -0.9531 -1.4517
   31SAPC  H12B 4092   3.026   3.558   5.893  1.6984 -1.4981 -1.6780
   31SAPC   C13 4093   3.295   3.539   5.842  0.1061  0.1878 -0.0597
   31SAPC  H13A 4094   3.327   3.454   5.900  2.8310  0.5309 -0.9350
   31SAPC  H13B 4095   3.227   3.504   5.765  2.4632 -1.5157 -1.5111
   31SAPC  H13C 4096   3.381   3.573   5.786 -0.9588  0.4886 -1.5642
   31SAPC   C14 4097   3.194   3.760   5.835  0.3566 -0.0692 -0.3789
   31SAPC  H14A 4098   3.135   3.737   5.747  0.4127  2.6731 -1.2166
   31SAPC  H14B 4099   3.134   3.827   5.894  0.0011 -0.8352  0.1536
   31SAPC  H14C 4100   3.280   3.815   5.800  2.3835 -3.1408 -0.6206
   31SAPC   C15 4101   3.316   3.684   6.033 -0.3895  0.2385  0.4318
   31SAPC  H15A 4102   3.401   3.738   5.992 -0.5244 -0.6685 -1.1346
   31SAPC  H15B 4103   3.254   3.744   6.098 -0.5293  0.1339  0.3954
   31SAPC  H15C 4104   3.350   3.601   6.093  1.7154 -1.2435 -2.5033
   31SAPC   C11 4105   3.025   3.651   6.077 -0.0237  0.3883 -0.6668
   31SAPC  H11A 4106   3.006   3.751   6.034  1.2916 -0.0956 -2.5249
   31SAPC  H11B 4107   3.065   3.661   6.180  0.3312  0.1958 -0.7824
   31SAPC     P 4108   2.852   3.488   6.206 -0.3132  0.1690  0.2126
   31SAPC   O13 4109   2.718   3.430   6.170  0.3908 -0.3592  0.0538
   31SAPC   O14 4110   2.961   3.396   6.244 -0.1599 -0.4633  1.0196
   31SAPC   O12 4111   2.898   3.584   6.089 -0.0708  0.0329 -0.0370
   31SAPC   O11 4112   2.836   3.580   6.339  0.1790 -0.2667 -0.3189
   31SAPC    C1 4113   2.726   3.674   6.347 -0.4081  0.2176  0.4289
   31SAPC    HA 4114   2.727   3.736   6.255  0.5591 -0.8631 -0.3349
   31SAPC    HB 4115   2.632   3.616   6.359 -0.6032 -0.6994 -3.9019
   31SAPC    C2 4116   2.750   3.782   6.465  0.5568  0.3813 -0.5033
   31SAPC    HS 4117   2.841   3.840   6.442 -0.4083  2.5912  0.9674
   31SAPC   O21 4118   2.761   3.713   6.595  0.9982  0.1899  0.0753
   31SAPC   C21 4119   2.847   3.783   6.668 -0.3963  0.3254  0.7017
   31SAPC   O22 4120   2.894   3.891   6.641 -0.5459  0.5343  0.2425
   31SAPC   C22 4121   2.878   3.706   6.794  0.3001  0.5126 -0.6036
   31SAPC   H2R 4122   2.820   3.730   6.886  0.3253 -3.9706  0.8366
   31SAPC   H2S 4123   2.846   3.600   6.782  1.1679  0.5488 -4.3479
   31SAPC    C3 4124   2.632   3.884   6.474  0.4328  0.1586  0.6233
   31SAPC    HX 4125   2.540   3.823   6.491 -0.0464  0.1652 -1.6125
   31SAPC    HY 4126   2.606   3.934   6.378 -0.6756 -0.9812  0.2856
   31SAPC   O31 4127   2.652   3.979   6.580  0.1743  0.5269 -0.0359
   31SAPC   C31 4128   2.562   4.067   6.598 -0.0019  0.1335 -0.0131
   31SAPC   O32 4129   2.459   4.075   6.531  0.1140 -0.0776  0.1085
   31SAPC   C32 4130   2.596   4.161   6.714  0.5210 -1.1990  0.0508
   31SAPC   H2X 4131   2.556   4.259   6.679 -0.1939 -1.8379 -0.9938
   31SAPC   H2Y 4132   2.706   4.171   6.717  0.3883  0.6647  0.2838
   31SAPC   C23 4133   3.024   3.729   6.825  0.4108 -0.1594  0.3832
   31SAPC   H3R 4134   3.034   3.839   6.837  0.1103  0.0083 -0.8102
   31SAPC   H3S 4135   3.085   3.697   6.738 -0.5059  0.3517 -0.4581
   31SAPC   C24 4136   3.067   3.655   6.952  0.1940 -0.6043  0.0765
   31SAPC   H4R 4137   2.999   3.686   7.035  1.1755  0.2183  0.5917
   31SAPC   H4S 4138   3.167   3.700   6.971 -1.2775  2.3460  1.6402
   31SAPC   C25 4139   3.090   3.504   6.942  0.2926 -0.0598  0.4312
   31SAPC   H5R 4140   3.149   3.471   6.856 -0.5109 -0.5505  0.0569
   31SAPC   C26 4141   3.052   3.408   7.027  0.1916  0.4483  0.6052
   31SAPC   H6R 4142   3.066   3.303   6.995  0.7808  0.6275  0.2505
   31SAPC   C27 4143   2.980   3.423   7.154  0.0390  0.8416  0.4408
   31SAPC   H7R 4144   2.964   3.321   7.195 -2.2356  0.3475 -1.3883
   31SAPC   H7S 4145   2.874   3.451   7.132 -0.4781 -2.2260 -1.6051
   31SAPC   C28 4146   3.038   3.520   7.258 -0.1103  0.3355  0.2549
   31SAPC   H8R 4147   3.140   3.553   7.233 -0.1942 -0.0199 -0.6183
   31SAPC   C29 4148   2.992   3.556   7.380  0.0371 -0.3620 -0.1849
   31SAPC   H9R 4149   3.051   3.629   7.437  1.0422  1.5947 -3.4526
   31SAPC  C210 4150   2.857   3.512   7.443  0.2184  0.2693  0.1698
   31SAPC  H10R 4151   2.890   3.424   7.503  1.5324  0.8135  0.2705
   31SAPC  H10S 4152   2.800   3.465   7.360  1.1343 -1.3252  0.3987
   31SAPC  C211 4153   2.786   3.626   7.515 -0.0248  0.0719 -0.0055
   31SAPC  H11R 4154   2.747   3.707   7.451  0.1157  1.2819  1.3909
   31SAPC  C212 4155   2.754   3.634   7.650 -0.6484  0.4268 -0.1967
   31SAPC  H12R 4156   2.694   3.716   7.693 -1.3765 -1.3224  2.3499
   31SAPC  C213 4157   2.807   3.535   7.757  0.6014 -0.3047  0.5282
   31SAPC  H13R 4158   2.847   3.444   7.707 -1.8797 -1.0206 -0.2898
   31SAPC  H13S 4159   2.713   3.505   7.808 -1.2415  1.6683 -1.4735
   31SAPC  C214 4160   2.896   3.600   7.857  0.3587 -0.4108 -0.5043
   31SAPC  H14R 4161   2.996   3.624   7.817 -0.0529  0.2971 -1.1123
   31SAPC  C215 4162   2.862   3.639   7.982  0.5524 -0.8588 -0.5551
   31SAPC  H15R 4163   2.937   3.681   8.051 -0.5606 -1.2665  0.9683
   31SAPC  C216 4164   2.726   3.614   8.049 -0.4363  0.2379 -0.1063
   31SAPC  H16R 4165   2.649   3.650   7.977  0.1512  1.4171 -0.1749
   31SAPC  H16S 4166   2.712   3.695   8.124 -1.2603  0.0960 -0.0939
   31SAPC  C217 4167   2.703   3.474   8.109 -0.0572 -0.4400 -0.4046
   31SAPC  H17R 4168   2.804   3.447   8.147  0.3039  0.7123 -0.4966
   31SAPC  H17S 4169   2.671   3.403   8.031 -1.0182  0.0156 -0.4416
   31SAPC  C218 4170   2.592   3.476   8.214  0.6173 -0.0866  0.1604
   31SAPC  H18R 4171   2.547   3.378   8.241 -1.7597  1.0285  0.5042
   31SAPC  H18S 4172   2.510   3.540   8.174  0.0664  0.3060  1.8264
   31SAPC  C219 4173   2.629   3.547   8.354  0.5694  0.6960 -0.0650
   31SAPC  H19R 4174   2.653   3.655   8.346 -1.1934  1.0701 -0.9452
   31SAPC  H19S 4175   2.712   3.483   8.391 -0.6198 -1.3297 -0.7184
   31SAPC  C220 4176   2.509   3.533   8.456 -0.3404 -0.3862  1.8201
   31SAPC  H20R 4177   2.513   3.439   8.514  2.4663 -0.5074  1.6027
   31SAPC  H20S 4178   2.412   3.548   8.405  0.7513  3.4009  0.4674
   31SAPC  H20T 4179   2.532   3.617   8.526  1.8837 -0.9354  1.8252
   31SAPC   C33 4180   2.540   4.126   6.849 -0.6183  0.7412  0.2528
   31SAPC   H3X 4181   2.431   4.106   6.850 -0.5023  0.0393  1.5210
   31SAPC   H3Y 4182   2.556   4.213   6.917  0.6928  1.5949 -1.0706
   31SAPC   C34 4183   2.608   4.011   6.917 -0.7852 -0.0113 -0.1640
   31SAPC   H4X 4184   2.607   3.919   6.855 -1.0237 -0.7628  0.9251
   31SAPC   H4Y 4185   2.550   3.980   7.007  0.4863 -0.4312  0.5460
   31SAPC   C35 4186   2.758   4.033   6.961  0.7308 -0.4153 -0.5623
   31SAPC   H5X 4187   2.780   4.139   6.987  0.1785 -0.6088  0.7587
   31SAPC   H5Y 4188   2.822   4.009   6.873 -0.4921 -1.6484 -1.1562
   31SAPC   C36 4189   2.787   3.954   7.090  0.2943 -0.3139 -0.1255
   31SAPC   H6X 4190   2.790   3.845   7.068 -0.8927 -0.4964  0.5313
   31SAPC   H6Y 4191   2.706   3.963   7.165  1.1603  1.1586  0.6800
   31SAPC   C37 4192   2.909   3.996   7.163  0.3501 -0.0017  0.1613
   31SAPC   H7X 4193   2.890   4.097   7.206  1.2504 -0.0380  0.6922
   31SAPC   H7Y 4194   2.991   3.998   7.088  1.4987  0.3306  1.3805
   31SAPC   C38 4195   2.939   3.895   7.266  0.5223  0.5166  0.6853
   31SAPC   H8X 4196   2.922   3.794   7.224 -0.3973  0.9104  0.1059
   31SAPC   H8Y 4197   2.869   3.908   7.351 -0.3746 -1.7818  0.3708
   31SAPC   C39 4198   3.089   3.898   7.310  0.4817  0.2491  0.7862
   31SAPC   H9X 4199   3.148   3.917   7.218  2.2888  2.4419  2.2848
   31SAPC   H9Y 4200   3.103   3.798   7.358 -1.1252 -0.0464  0.6808
   31SAPC  C310 4201   3.128   4.004   7.414  0.3410 -0.4125  0.4278
   31SAPC  H10X 4202   3.131   4.105   7.369  0.9493 -0.5196  0.2108
   31SAPC  H10Y 4203   3.237   3.993   7.436  0.6453 -1.9506 -1.5348
   31SAPC  C311 4204   3.044   3.977   7.545 -0.8870 -0.5800 -0.8196
   31SAPC  H11X 4205   3.042   3.866   7.557  1.4674 -0.6508 -0.5913
   31SAPC  H11Y 4206   2.939   4.009   7.533 -0.5367  2.9146  3.1915
   31SAPC  C312 4207   3.091   4.039   7.683 -0.0968  0.5043  0.2026
   31SAPC  H12X 4208   3.102   4.149   7.683  2.3342  0.3803  2.4518
   31SAPC  H12Y 4209   3.193   4.003   7.711 -0.0874  2.5059  3.1462
   31SAPC  C313 4210   3.003   3.991   7.799 -0.4702 -0.6572 -0.4001
   31SAPC  H13X 4211   3.001   3.880   7.790 -0.6300 -0.7261  0.3857
   31SAPC  H13Y 4212   2.896   4.020   7.785  0.0959  0.5569 -2.7022
   31SAPC  C314 4213   3.037   4.042   7.943  0.9632 -1.1428 -0.2185
   31SAPC  H14X 4214   3.099   3.970   8.002 -1.1071 -2.0633  0.9376
   31SAPC  H14Y 4215   2.944   4.057   8.001  2.1075 -2.1437  2.0339
   31SAPC  C315 4216   3.114   4.173   7.943 -0.0254 -0.5306  0.4496
   31SAPC  H15X 4217   3.064   4.230   7.862 -1.9824  0.7117  2.4052
   31SAPC  H15Y 4218   3.216   4.155   7.903  1.0726  1.2757  2.2618
   31SAPC  C316 4219   3.123   4.254   8.073 -0.0846  0.3371 -0.2565
   31SAPC  H16X 4220   3.163   4.356   8.052 -1.0514  0.6069 -0.8607
   31SAPC  H16Y 4221   3.188   4.203   8.147  0.0286 -0.7035 -1.0509
   31SAPC  C317 4222   2.990   4.274   8.150 -0.6002  0.8347  0.3074
   31SAPC  H17X 4223   2.961   4.175   8.191  1.1446  0.7518  1.4478
   31SAPC  H17Y 4224   2.917   4.311   8.075 -0.8492  2.2065  1.1793
   31SAPC  C318 4225   2.986   4.373   8.262 -0.4589  0.5334  0.2473
   31SAPC  H18X 4226   2.880   4.388   8.292 -0.0608  0.3466  1.7993
   31SAPC  H18Y 4227   3.028   4.471   8.231  0.3647  0.3405  0.7199
   31SAPC  H18Z 4228   3.039   4.333   8.351 -0.7571  0.4609  0.3940
   32SAPC     N 4229   3.131   4.382   6.166 -0.5767 -0.5335 -0.2497
   32SAPC   C12 4230   3.234   4.289   6.101 -0.0101  0.0461  0.0769
   32SAPC  H12A 4231   3.334   4.314   6.134 -1.1365  0.1714  3.9287
   32SAPC  H12B 4232   3.239   4.314   5.997  0.8013 -2.0160 -0.4369
   32SAPC   C13 4233   3.119   4.333   6.309 -0.2376  0.0974 -0.8808
   32SAPC  H13A 4234   3.023   4.362   6.348  0.3823  2.4533 -0.9618
   32SAPC  H13B 4235   3.126   4.226   6.320 -1.3862  0.1030  0.1702
   32SAPC  H13C 4236   3.199   4.375   6.368  1.8000 -0.6233 -2.9635
   32SAPC   C14 4237   3.179   4.525   6.168  0.3157  0.3165 -0.5434
   32SAPC  H14A 4238   3.280   4.535   6.206  0.3733 -0.0868 -0.5878
   32SAPC  H14B 4239   3.181   4.579   6.074 -1.0957  1.7991  0.2247
   32SAPC  H14C 4240   3.121   4.588   6.233  0.9592  1.4382 -1.0291
   32SAPC   C15 4241   3.001   4.368   6.093  0.0282 -0.1488 -0.1190
   32SAPC  H15A 4242   3.014   4.417   5.998  1.8977  0.6529  0.5058
   32SAPC  H15B 4243   2.967   4.265   6.093 -0.4432 -0.0511  2.0171
   32SAPC  H15C 4244   2.927   4.413   6.158 -0.1554 -2.0813  1.1132
   32SAPC   C11 4245   3.219   4.137   6.115  0.9452  0.0675  0.6524
   32SAPC  H11A 4246   3.276   4.082   6.038 -1.4230 -1.6752  0.0611
   32SAPC  H11B 4247   3.112   4.124   6.090  1.2060  0.9447 -1.0974
   32SAPC     P 4248   3.383   4.108   6.310  0.0756  0.0893 -0.2481
   32SAPC   O13 4249   3.477   4.013   6.258 -0.8204 -0.1680  0.3463
   32SAPC   O14 4250   3.428   4.247   6.312  0.3829 -0.1965  0.1226
   32SAPC   O12 4251   3.247   4.086   6.242 -0.2108  0.4049 -0.0256
   32SAPC   O11 4252   3.359   4.077   6.462  0.2925  0.4549 -0.0852
   32SAPC    C1 4253   3.253   3.999   6.521  0.3203  0.0268 -0.4767
   32SAPC    HA 4254   3.156   4.051   6.509  0.7428  0.6812 -1.1414
   32SAPC    HB 4255   3.243   3.902   6.469  0.5187  0.0091 -0.4837
   32SAPC    C2 4256   3.285   3.970   6.671  0.4923  0.2803  0.0623
   32SAPC    HS 4257   3.199   3.913   6.713  0.6588  0.1432  0.2188
   32SAPC   O21 4258   3.318   4.093   6.739 -0.1384  0.7135  0.3687
   32SAPC   C21 4259   3.213   4.172   6.777 -0.1627  0.6590 -0.0223
   32SAPC   O22 4260   3.096   4.144   6.756  0.0744 -0.5199 -0.2008
   32SAPC   C22 4261   3.271   4.303   6.831  0.2563 -0.3380  0.1198
   32SAPC   H2R 4262   3.343   4.346   6.757 -0.6351  0.6097 -0.2128
   32SAPC   H2S 4263   3.188   4.373   6.854 -0.4289 -1.3462  0.7969
   32SAPC    C3 4264   3.419   3.888   6.677 -0.5223  0.2518 -0.2126
   32SAPC    HX 4265   3.492   3.937   6.609  1.0949 -1.0152  0.5175
   32SAPC    HY 4266   3.387   3.789   6.636  1.5863 -0.7960  0.4927
   32SAPC   O31 4267   3.466   3.877   6.811 -0.5072  0.4920 -0.1678
   32SAPC   C31 4268   3.589   3.933   6.840 -0.1074 -1.1844  0.2641
   32SAPC   O32 4269   3.661   3.990   6.760 -0.1942 -0.3771  0.0586
   32SAPC   C32 4270   3.628   3.916   6.984 -0.5620 -0.2083 -0.2092
   32SAPC   H2X 4271   3.663   4.017   7.015  0.7007 -0.7981  0.3264
   32SAPC   H2Y 4272   3.712   3.843   6.983  0.0814  0.3118  3.4375
   32SAPC   C23 4273   3.355   4.291   6.963  0.0915 -0.0493 -0.4000
   32SAPC   H3R 4274   3.389   4.395   6.981 -0.1661 -0.1614  0.9067
   32SAPC   H3S 4275   3.438   4.220   6.941  0.3893  1.1274 -3.4867
   32SAPC   C24 4276   3.271   4.231   7.078  0.4797 -0.3316  0.1260
   32SAPC   H4R 4277   3.345   4.206   7.157  2.4277 -0.3595 -1.6096
   32SAPC   H4S 4278   3.243   4.128   7.046  1.7175 -1.1145  1.4396
   32SAPC   C25 4279   3.154   4.316   7.122  0.3193 -0.4889  0.2939
   32SAPC   H5R 4280   3.058   4.321   7.067  0.9749  0.7120 -0.8180
   32SAPC   C26 4281   3.162   4.398   7.225  1.0087 -0.7619 -0.3685
   32SAPC   H6R 4282   3.079   4.463   7.256  1.6302 -0.3336  0.4406
   32SAPC   C27 4283   3.283   4.410   7.322 -0.3656 -0.0020  0.2807
   32SAPC   H7R 4284   3.376   4.441   7.269  1.0990  0.6097  3.0168
   32SAPC   H7S 4285   3.301   4.316   7.378  0.2535  0.0280  0.1340
   32SAPC   C28 4286   3.274   4.519   7.422  0.0937 -0.2463 -0.4001
   32SAPC   H8R 4287   3.354   4.592   7.402  1.8090 -1.6945  0.8376
   32SAPC   C29 4288   3.194   4.534   7.536 -1.0976 -0.0418 -0.1710
   32SAPC   H9R 4289   3.222   4.617   7.602  1.7799 -1.5583  0.7258
   32SAPC  C210 4290   3.091   4.441   7.589  0.1368 -1.0290 -0.3252
   32SAPC  H10R 4291   3.133   4.394   7.680  1.7377  0.1855 -0.3978
   32SAPC  H10S 4292   3.072   4.361   7.515  1.7689  0.9284 -3.0449
   32SAPC  C211 4293   2.963   4.510   7.631  0.2582  0.4558 -0.6515
   32SAPC  H11R 4294   2.886   4.491   7.555  2.2160  0.5720 -2.7791
   32SAPC  C212 4295   2.939   4.593   7.737  0.2859  0.4863  0.6493
   32SAPC  H12R 4296   2.836   4.626   7.756  0.9584  1.4680  2.8961
   32SAPC  C213 4297   3.038   4.629   7.844  0.6566  0.3610  0.1113
   32SAPC  H13R 4298   3.096   4.720   7.816 -0.6721  1.0635 -0.4625
   32SAPC  H13S 4299   3.109   4.544   7.857 -2.1193 -1.8338  1.9211
   32SAPC  C214 4300   2.964   4.636   7.978 -0.6675 -0.2815 -0.0615
   32SAPC  H14R 4301   2.937   4.534   8.010 -0.8366 -0.0048  0.6997
   32SAPC  C215 4302   2.934   4.733   8.068 -0.4704 -0.9822  0.2672
   32SAPC  H15R 4303   2.871   4.698   8.151  0.9267  1.3004  2.3996
   32SAPC  C216 4304   2.949   4.881   8.053  0.0051 -0.6062  0.0818
   32SAPC  H16R 4305   2.846   4.919   8.071  0.1717  0.7406 -1.5556
   32SAPC  H16S 4306   2.970   4.917   7.950 -0.9914 -0.6750 -0.1538
   32SAPC  C217 4307   3.042   4.954   8.149  0.0884 -0.4802 -0.1655
   32SAPC  H17R 4308   3.049   5.063   8.129  1.3609 -0.6796 -0.9407
   32SAPC  H17S 4309   3.147   4.922   8.129  0.7724  0.8959  1.0363
   32SAPC  C218 4310   3.022   4.932   8.295 -0.4256  0.0001  0.3485
   32SAPC  H18R 4311   2.997   4.827   8.322  2.8674 -1.6694 -2.2475
   32SAPC  H18S 4312   2.934   4.994   8.321 -1.0576 -0.5722 -0.4008
   32SAPC  C219 4313   3.150   4.956   8.379 -0.3710  0.5890  0.0446
   32SAPC  H19R 4314   3.175   5.062   8.356 -1.2263  1.0757  1.2723
   32SAPC  H19S 4315   3.232   4.887   8.352  0.6716  2.2617 -1.2723
   32SAPC  C220 4316   3.119   4.950   8.525 -0.2115 -0.1136 -0.8404
   32SAPC  H20R 4317   3.097   4.845   8.556  0.9389 -0.0635  0.2316
   32SAPC  H20S 4318   3.040   5.021   8.556 -0.2325 -0.2492 -0.5792
   32SAPC  H20T 4319   3.210   4.982   8.580 -0.8338  0.4025 -0.0810
   32SAPC   C33 4320   3.519   3.870   7.082 -0.9995 -0.8155 -0.9637
   32SAPC   H3X 4321   3.485   3.771   7.044  0.6307 -1.6325 -0.3713
   32SAPC   H3Y 4322   3.429   3.936   7.082 -0.4788 -0.0896 -1.4331
   32SAPC   C34 4323   3.586   3.856   7.217 -0.2724  0.0664  0.1355
   32SAPC   H4X 4324   3.630   3.949   7.258  0.3886  0.2437 -0.9350
   32SAPC   H4Y 4325   3.675   3.790   7.210  0.0349  0.3273  1.4456
   32SAPC   C35 4326   3.479   3.810   7.318 -0.7620 -0.2589 -0.1048
   32SAPC   H5X 4327   3.442   3.713   7.278 -0.5221 -0.9534  1.2989
   32SAPC   H5Y 4328   3.405   3.892   7.326 -1.1974 -0.7923  1.7069
   32SAPC   C36 4329   3.527   3.778   7.463  0.1903 -0.4608  0.2524
   32SAPC   H6X 4330   3.588   3.864   7.497  0.3252 -1.2910  2.2680
   32SAPC   H6Y 4331   3.595   3.690   7.462  2.6300  1.3204 -0.1184
   32SAPC   C37 4332   3.417   3.778   7.564 -0.0346  0.8753  0.2717
   32SAPC   H7X 4333   3.344   3.700   7.531  1.3597  0.1612 -1.2601
   32SAPC   H7Y 4334   3.359   3.873   7.561 -0.9029  0.3647  0.5211
   32SAPC   C38 4335   3.455   3.749   7.705 -1.0392  0.3212  0.1912
   32SAPC   H8X 4336   3.510   3.832   7.755 -1.0141  0.9700 -0.8807
   32SAPC   H8Y 4337   3.515   3.656   7.710 -1.0214  0.3168 -0.0927
   32SAPC   C39 4338   3.324   3.729   7.786 -0.7955  0.0398  0.0490
   32SAPC   H9X 4339   3.250   3.663   7.735 -1.3218  0.8413 -0.2526
   32SAPC   H9Y 4340   3.286   3.831   7.805  0.4847  0.3893  0.8315
   32SAPC  C310 4341   3.365   3.664   7.919  0.5200  0.7130  0.2262
   32SAPC  H10X 4342   3.434   3.729   7.976  1.1223 -0.8489  1.3535
   32SAPC  H10Y 4343   3.433   3.582   7.886  1.7240  2.2055 -1.1800
   32SAPC  C311 4344   3.240   3.609   7.992 -0.0486  0.2554 -0.4578
   32SAPC  H11X 4345   3.183   3.555   7.913  2.4380 -3.0007 -0.2497
   32SAPC  H11Y 4346   3.180   3.699   8.017 -1.1932 -0.9679  1.5671
   32SAPC  C312 4347   3.271   3.537   8.119  0.3150 -0.4662  0.0760
   32SAPC  H12X 4348   3.291   3.612   8.199 -1.0742 -0.4551  0.4440
   32SAPC  H12Y 4349   3.360   3.470   8.114 -0.3978 -1.7091  2.4030
   32SAPC  C313 4350   3.157   3.448   8.169  0.5522 -0.0172  0.3852
   32SAPC  H13X 4351   3.077   3.518   8.201  1.2626  0.7482  0.5049
   32SAPC  H13Y 4352   3.187   3.395   8.262 -0.5350 -1.2787  0.0531
   32SAPC  C314 4353   3.098   3.350   8.069 -0.0124  0.8886  0.2769
   32SAPC  H14X 4354   3.173   3.315   7.995 -1.2516  1.4118 -1.2999
   32SAPC  H14Y 4355   3.022   3.409   8.013 -1.1136 -0.0736  0.7337
   32SAPC  C315 4356   3.036   3.218   8.127 -0.3986  0.2812  0.1727
   32SAPC  H15X 4357   2.988   3.246   8.223 -0.6391  1.4797 -0.2757
   32SAPC  H15Y 4358   3.125   3.158   8.157  0.4995  1.9335  0.9714
   32SAPC  C316 4359   2.927   3.152   8.045  0.6038  0.2019  0.3137
   32SAPC  H16X 4360   2.964   3.100   7.954 -1.3782 -0.1063 -0.3685
   32SAPC  H16Y 4361   2.870   3.242   8.011  0.0312 -0.0331  0.6269
   32SAPC  C317 4362   2.837   3.058   8.132 -0.5348  0.5770  0.2840
   32SAPC  H17X 4363   2.742   3.030   8.083 -0.6214  1.8743 -0.3293
   32SAPC  H17Y 4364   2.816   3.117   8.224 -1.6198 -0.0449  0.4490
   32SAPC  C318 4365   2.910   2.923   8.152  0.1744 -0.3480  0.4451
   32SAPC  H18X 4366   3.014   2.936   8.189  1.0010  1.7136 -2.2548
   32SAPC  H18Y 4367   2.911   2.859   8.061 -0.4998 -2.5892  1.9339
   32SAPC  H18Z 4368   2.854   2.866   8.229  0.0501  0.6988  1.1532
   33POPC     N 4369   1.142   0.795  10.870  0.3912  0.1164 -0.6672
   33POPC   C12 4370   1.043   0.870  10.779  0.2534  0.3625  0.5662
   33POPC  H12A 4371   1.059   0.976  10.792 -1.5364  0.7202  0.0949
   33POPC  H12B 4372   0.942   0.848  10.811  0.2673  0.5597  0.7448
   33POPC   C13 4373   1.276   0.792  10.809 -0.5682 -0.0755 -0.3744
   33POPC  H13A 4374   1.354   0.749  10.870 -2.0376 -2.7932 -0.2760
   33POPC  H13B 4375   1.266   0.726  10.723  3.5974 -0.8555 -0.4959
   33POPC  H13C 4376   1.312   0.885  10.767  1.0563 -0.4220  0.1688
   33POPC   C14 4377   1.147   0.856  11.009  0.4878 -0.3528  0.4512
   33POPC  H14A 4378   1.181   0.958  11.003 -2.6523  0.7670 -0.3858
   33POPC  H14B 4379   1.052   0.856  11.060 -0.2670 -1.3586 -0.8936
   33POPC  H14C 4380   1.231   0.804  11.053 -0.6896 -3.0688 -0.2814
   33POPC   C15 4381   1.106   0.650  10.872  0.4369  0.1605 -0.3989
   33POPC  H15A 4382   1.002   0.640  10.902  0.2617  0.3755 -0.9278
   33POPC  H15B 4383   1.169   0.588  10.934  2.1557  0.9851 -1.2514
   33POPC  H15C 4384   1.108   0.609  10.773 -0.6519 -0.6392 -0.1132
   33POPC   C11 4385   1.041   0.843  10.626  0.3765  0.0286  0.7355
   33POPC  H11A 4386   1.139   0.871  10.582  0.3221 -0.9180 -0.0184
   33POPC  H11B 4387   0.966   0.910  10.578  3.2378  0.9125 -2.9772
   33POPC     P 4388   0.858   0.659  10.594 -0.0003 -0.1710  0.3955
   33POPC   O13 4389   0.777   0.741  10.685 -0.6998 -0.0329  0.4711
   33POPC   O14 4390   0.848   0.514  10.616 -0.0970 -0.0782 -0.0250
   33POPC   O12 4391   1.014   0.705  10.592 -0.3900  0.3385 -0.0368
   33POPC   O11 4392   0.818   0.690  10.443 -0.0499 -0.5940  0.5384
   33POPC    C1 4393   0.725   0.803  10.428 -0.5130 -0.5842 -0.3757
   33POPC    HA 4394   0.626   0.782  10.475 -1.6967  2.7460 -1.1144
   33POPC    HB 4395   0.776   0.894  10.466 -2.7767  0.2591  0.8255
   33POPC    C2 4396   0.686   0.842  10.280 -0.2522 -0.0817  0.6762
   33POPC    HS 4397   0.624   0.935  10.285 -1.6708 -0.8141 -1.5883
   33POPC   O21 4398   0.623   0.731  10.217 -0.0731 -0.6117  0.1514
   33POPC   C21 4399   0.492   0.718  10.232 -0.1914  0.7031 -0.2172
   33POPC   O22 4400   0.426   0.798  10.289  0.1142  0.2548 -0.8100
   33POPC   C22 4401   0.439   0.590  10.168 -1.1005 -0.4191  0.0325
   33POPC   H2R 4402   0.396   0.527  10.249 -1.0303  1.0080  1.2072
   33POPC   H2S 4403   0.530   0.542  10.125 -1.7194  0.0374 -1.8918
   33POPC    C3 4404   0.817   0.867  10.201 -0.3862 -0.5724  0.7269
   33POPC    HX 4405   0.880   0.776  10.193  0.5186  0.0058  1.0959
   33POPC    HY 4406   0.866   0.954  10.249 -1.7463  0.6265  0.0452
   33POPC   O31 4407   0.777   0.919  10.073 -0.0860 -0.1033  0.0521
   33POPC   C31 4408   0.770   0.836   9.970  0.2692  0.5445  0.7299
   33POPC   O32 4409   0.797   0.718   9.970 -0.4091  0.4057  0.3262
   33POPC   C32 4410   0.712   0.911   9.849 -0.4407  0.1144 -0.1546
   33POPC   H2X 4411   0.779   0.998   9.834 -0.3383  0.0712  0.0508
   33POPC   H2Y 4412   0.616   0.959   9.876 -1.4621  0.5839 -3.9929
   33POPC   C23 4413   0.339   0.611  10.055 -0.6125  1.0431 -0.1083
   33POPC   H3R 4414   0.250   0.667  10.091  0.5599  2.2633  1.0158
   33POPC   H3S 4415   0.296   0.515  10.019  0.6453  0.6551 -0.6169
   33POPC   C24 4416   0.407   0.673   9.943 -0.1120 -0.4752  1.1363
   33POPC   H4R 4417   0.480   0.595   9.911  1.3565 -0.1698  3.5084
   33POPC   H4S 4418   0.468   0.763   9.965  0.0414  0.0131 -1.0868
   33POPC   C25 4419   0.302   0.708   9.832 -0.4829  0.3594  0.4236
   33POPC   H5R 4420   0.365   0.770   9.764  0.8760  0.0209  1.3119
   33POPC   H5S 4421   0.225   0.779   9.870 -1.1876 -1.0376  1.7036
   33POPC   C26 4422   0.236   0.596   9.746 -0.0008 -0.0196 -0.1425
   33POPC   H6R 4423   0.173   0.535   9.815 -0.7338  1.1303  0.2299
   33POPC   H6S 4424   0.308   0.526   9.698  1.0389  0.9268  0.0043
   33POPC   C27 4425   0.159   0.638   9.623  0.3727 -0.3648  0.3205
   33POPC   H7R 4426   0.083   0.713   9.655  2.3133  0.9390  2.1596
   33POPC   H7S 4427   0.094   0.554   9.589 -2.0750  1.8958 -0.9639
   33POPC   C28 4428   0.238   0.705   9.511  0.1264 -0.2916  0.5827
   33POPC   H8R 4429   0.290   0.793   9.556  1.1404 -1.3666  1.5867
   33POPC   H8S 4430   0.159   0.739   9.440 -0.1778  1.4989  1.7200
   33POPC   C29 4431   0.339   0.620   9.443 -0.2581 -0.1012 -0.3013
   33POPC   H91 4432   0.411   0.575   9.514 -0.8308  0.3023  0.5476
   33POPC  C210 4433   0.358   0.585   9.309 -0.4114 -0.5376 -0.0757
   33POPC  H101 4434   0.446   0.524   9.282 -0.8163 -0.4029 -1.8427
   33POPC  C211 4435   0.278   0.622   9.188  0.2254  0.2448  0.6120
   33POPC  H11R 4436   0.242   0.726   9.197 -0.1134  0.1446  0.4370
   33POPC  H11S 4437   0.186   0.559   9.188  0.4192 -0.0447  0.4450
   33POPC  C212 4438   0.351   0.603   9.058 -0.2887  0.3376 -0.0084
   33POPC  H12R 4439   0.384   0.498   9.041 -0.5996 -0.2201  2.3492
   33POPC  H12S 4440   0.447   0.658   9.053 -0.1064  0.3956  2.4860
   33POPC  C213 4441   0.285   0.665   8.934 -0.3096 -0.2419 -0.4105
   33POPC  H13R 4442   0.275   0.775   8.944  0.3649  0.0248 -2.3347
   33POPC  H13S 4443   0.184   0.618   8.931 -0.7708  0.6199  0.8294
   33POPC  C214 4444   0.370   0.644   8.807 -0.5204 -0.7738 -0.3866
   33POPC  H14R 4445   0.407   0.539   8.808  2.0055  0.0413  1.5114
   33POPC  H14S 4446   0.465   0.701   8.806 -0.1642 -1.2964  0.8331
   33POPC  C215 4447   0.298   0.667   8.670  0.2959  0.5664 -0.2202
   33POPC  H15R 4448   0.272   0.775   8.670  1.9597  1.0186 -1.5994
   33POPC  H15S 4449   0.204   0.609   8.679  0.5799  0.1683  0.3058
   33POPC  C216 4450   0.372   0.631   8.541 -0.5102  0.1159 -0.5859
   33POPC  H16R 4451   0.310   0.680   8.463 -1.7441  0.1978  0.4005
   33POPC  H16S 4452   0.355   0.522   8.528  0.4430  0.0722 -1.6299
   33POPC  C217 4453   0.511   0.674   8.528 -0.4174  0.0151  0.1237
   33POPC  H17R 4454   0.570   0.616   8.602 -0.3645 -2.0760 -1.4677
   33POPC  H17S 4455   0.507   0.782   8.554 -1.2713  0.4914 -1.8344
   33POPC  C218 4456   0.574   0.655   8.396 -0.1826 -0.3293  0.4866
   33POPC  H18R 4457   0.663   0.716   8.367 -1.2987 -0.0099 -2.6696
   33POPC  H18S 4458   0.502   0.695   8.322 -0.1311 -1.2123 -0.0532
   33POPC  H18T 4459   0.594   0.548   8.373  2.9245  0.3880 -0.7640
   33POPC   C33 4460   0.693   0.818   9.722  1.1607 -0.6552  0.0899
   33POPC   H3X 4461   0.593   0.770   9.732  1.0159 -0.2130  0.8506
   33POPC   H3Y 4462   0.753   0.725   9.724 -0.0798 -1.5340 -1.1152
   33POPC   C34 4463   0.703   0.901   9.591 -0.6708 -0.4172 -0.6533
   33POPC   H4X 4464   0.808   0.891   9.559  0.5997  2.0418  2.2980
   33POPC   H4Y 4465   0.677   1.009   9.590  0.3117 -0.1680  0.0858
   33POPC   C35 4466   0.634   0.829   9.472  0.0040  0.9074 -0.0536
   33POPC   H5X 4467   0.524   0.818   9.484 -0.1269 -1.2086 -2.3174
   33POPC   H5Y 4468   0.677   0.726   9.473  0.1007  0.9198 -1.2935
   33POPC   C36 4469   0.656   0.872   9.331  0.7717 -0.7898 -0.0934
   33POPC   H6X 4470   0.625   0.978   9.323  0.4732 -0.7087  1.6621
   33POPC   H6Y 4471   0.579   0.818   9.271 -0.7841 -1.2070  2.1457
   33POPC   C37 4472   0.800   0.847   9.288  0.3839  0.0764 -0.6274
   33POPC   H7X 4473   0.822   0.739   9.278  0.2929 -0.1421  1.1561
   33POPC   H7Y 4474   0.873   0.898   9.356  0.5947 -1.0570  0.0102
   33POPC   C38 4475   0.832   0.899   9.151  0.1362 -0.5566 -0.1666
   33POPC   H8X 4476   0.933   0.867   9.119 -0.5368 -1.5961 -1.3010
   33POPC   H8Y 4477   0.827   1.010   9.158 -0.5775 -0.4839 -1.4875
   33POPC   C39 4478   0.732   0.847   9.044 -0.5859  0.2422 -0.3187
   33POPC   H9X 4479   0.652   0.924   9.034 -1.2003 -0.5493 -1.6888
   33POPC   H9Y 4480   0.678   0.756   9.076 -0.6322  0.2501 -0.3738
   33POPC  C310 4481   0.802   0.814   8.911  0.1249 -0.3386 -0.0250
   33POPC  H10X 4482   0.727   0.766   8.845 -0.3061  0.2046  0.0597
   33POPC  H10Y 4483   0.886   0.742   8.916  2.4998  2.2530 -0.3178
   33POPC  C311 4484   0.872   0.939   8.846 -0.8576  0.2523  0.4497
   33POPC  H11X 4485   0.939   0.984   8.923  0.5860 -0.0740 -0.5765
   33POPC  H11Y 4486   0.790   1.009   8.818 -0.9784 -0.4510 -1.0390
   33POPC  C312 4487   0.943   0.902   8.718 -0.5749 -0.4893 -0.6198
   33POPC  H12X 4488   0.873   0.856   8.645 -1.4150  0.7858 -0.6581
   33POPC  H12Y 4489   1.013   0.824   8.754  0.1163 -0.9578 -2.8145
   33POPC  C313 4490   1.006   1.028   8.652  0.3522 -0.1530  0.2580
   33POPC  H13X 4491   1.061   1.077   8.735 -3.0389 -1.9041  3.8774
   33POPC  H13Y 4492   0.936   1.101   8.606  0.6343 -0.4483 -0.6696
   33POPC  C314 4493   1.088   0.981   8.535 -0.3597  0.3590  0.6216
   33POPC  H14X 4494   1.019   0.931   8.463 -0.9646  1.2796  0.5500
   33POPC  H14Y 4495   1.159   0.900   8.562  1.4230  2.0916  1.3609
   33POPC  C315 4496   1.165   1.090   8.450 -0.0694 -0.3365  0.0850
   33POPC  H15X 4497   1.265   1.120   8.489 -0.3208  0.4379  0.1657
   33POPC  H15Y 4498   1.105   1.184   8.443  0.4099 -0.0080  0.3000
   33POPC  C316 4499   1.203   1.045   8.310 -0.3704 -0.3947  0.1067
   33POPC  H16X 4500   1.276   1.112   8.260 -0.2053 -0.0020  0.8654
   33POPC  H16Y 4501   1.111   1.054   8.248 -0.2334  0.5677  0.0249
   33POPC  H16Z 4502   1.251   0.945   8.314 -0.5177 -0.4969 -0.5361
   34POPC     N 4503   6.710   0.803  10.770 -0.3529  0.1219  0.1067
   34POPC   C12 4504   6.815   0.828  10.881 -0.7603  0.2830 -0.4504
   34POPC  H12A 4505   6.792   0.767  10.967  2.2151 -2.9490 -1.6879
   34POPC  H12B 4506   6.816   0.934  10.896  1.1609  0.3442 -0.7015
   34POPC   C13 4507   6.703   0.657  10.747  0.5866 -0.4479  0.0590
   34POPC  H13A 4508   6.637   0.647  10.662  0.0685  0.3649  0.3590
   34POPC  H13B 4509   6.798   0.610  10.728  0.5978 -0.1842 -0.5428
   34POPC  H13C 4510   6.662   0.598  10.827  0.4151 -0.7689 -0.2637
   34POPC   C14 4511   6.573   0.842  10.807 -0.0610 -0.0832 -0.2385
   34POPC  H14A 4512   6.508   0.808  10.727  0.3077  0.4583 -0.7724
   34POPC  H14B 4513   6.534   0.795  10.896 -0.4632  0.3055 -0.2062
   34POPC  H14C 4514   6.561   0.948  10.822 -1.4382 -0.3979  1.1280
   34POPC   C15 4515   6.750   0.886  10.654 -0.5255  0.2936 -0.1285
   34POPC  H15A 4516   6.685   0.886  10.568 -0.3363 -0.3907 -0.2741
   34POPC  H15B 4517   6.848   0.857  10.619 -0.7884 -0.7169 -0.0467
   34POPC  H15C 4518   6.759   0.988  10.687  0.9074 -0.0647  0.6859
   34POPC   C11 4519   6.960   0.785  10.848  0.3764 -1.0968 -0.3737
   34POPC  H11A 4520   7.031   0.826  10.923  0.1383 -1.3258 -0.0219
   34POPC  H11B 4521   6.984   0.835  10.752 -1.0574 -1.4068 -0.9120
   34POPC     P 4522   7.062   0.576  10.724  0.5756  0.4835  0.8100
   34POPC   O13 4523   7.126   0.454  10.772  0.5645 -0.3816 -0.4146
   34POPC   O14 4524   7.159   0.676  10.677 -0.0801  0.8439 -0.1770
   34POPC   O12 4525   6.976   0.645  10.842  0.2252 -0.2295  0.0212
   34POPC   O11 4526   6.956   0.548  10.608  0.1545 -0.0268 -0.2506
   34POPC    C1 4527   7.005   0.483  10.489  0.3050 -0.0183 -0.2353
   34POPC    HA 4528   7.056   0.387  10.513  0.2811  0.6731  3.1490
   34POPC    HB 4529   7.083   0.542  10.437  1.5158 -0.8795  0.5466
   34POPC    C2 4530   6.893   0.470  10.379 -1.0905  0.6958 -0.7966
   34POPC    HS 4531   6.813   0.414  10.431 -0.5970 -0.8007 -1.5999
   34POPC   O21 4532   6.952   0.402  10.271  0.2455 -0.2073 -0.2203
   34POPC   C21 4533   6.879   0.303  10.224 -0.0292  0.3996 -0.6644
   34POPC   O22 4534   6.784   0.249  10.278  0.0031  0.2225  0.0653
   34POPC   C22 4535   6.934   0.248  10.092  0.6058 -0.0942 -0.1319
   34POPC   H2R 4536   7.013   0.174  10.115  0.0892 -0.5772  0.1097
   34POPC   H2S 4537   6.994   0.334  10.054  2.8006 -0.9398  1.2366
   34POPC    C3 4538   6.827   0.601  10.336 -1.2038  0.0806 -0.2267
   34POPC    HX 4539   6.900   0.663  10.280 -0.8115 -0.3338 -0.1785
   34POPC    HY 4540   6.807   0.655  10.431 -1.2163 -0.9249  0.3485
   34POPC   O31 4541   6.705   0.593  10.273 -0.1201  0.2522 -0.1982
   34POPC   C31 4542   6.606   0.559  10.352 -0.3248  0.0743 -0.1034
   34POPC   O32 4543   6.611   0.524  10.469 -0.5149  0.3252  0.4169
   34POPC   C32 4544   6.476   0.587  10.275 -0.0451  0.4022 -0.3067
   34POPC   H2X 4545   6.498   0.668  10.203 -1.1676 -1.8750 -3.4346
   34POPC   H2Y 4546   6.420   0.625  10.363  0.6572  1.8964 -0.4753
   34POPC   C23 4547   6.829   0.199   9.997  0.8561  0.3397  0.2623
   34POPC   H3R 4548   6.748   0.271   9.975  0.5884  0.1889  0.7223
   34POPC   H3S 4549   6.784   0.119  10.059 -0.3926  1.0067  0.2438
   34POPC   C24 4550   6.890   0.127   9.882  0.7509  0.3154  0.2069
   34POPC   H4R 4551   6.810   0.070   9.830  0.9222  0.8557 -0.6580
   34POPC   H4S 4552   6.968   0.055   9.913  0.7883  0.5300  0.6116
   34POPC   C25 4553   6.952   0.219   9.780  0.2561 -1.1404  0.6629
   34POPC   H5R 4554   7.055   0.251   9.805 -0.2195  0.7169  0.3952
   34POPC   H5S 4555   6.889   0.310   9.767 -0.4723 -2.0591 -3.5387
   34POPC   C26 4556   6.966   0.156   9.637 -0.0076 -0.1316 -0.4913
   34POPC   H6R 4557   6.862   0.126   9.613 -0.1563 -1.2954  1.4346
   34POPC   H6S 4558   7.027   0.063   9.648 -0.6669 -0.3564  1.8288
   34POPC   C27 4559   7.028   0.246   9.523 -0.1974 -0.4455 -0.8218
   34POPC   H7R 4560   7.138   0.245   9.535 -0.3780  1.7120  2.2385
   34POPC   H7S 4561   6.995   0.349   9.550 -0.6494 -0.6412 -0.6074
   34POPC   C28 4562   6.986   0.218   9.382  0.0285  0.1961  0.5478
   34POPC   H8R 4563   7.012   0.304   9.316 -0.3793  0.2919  0.5161
   34POPC   H8S 4564   6.876   0.204   9.379  0.1718 -0.8912 -1.6371
   34POPC   C29 4565   7.043   0.083   9.333 -0.5937 -0.8485  0.4702
   34POPC   H91 4566   7.038   0.011   9.416 -1.1085 -0.5614  0.6974
   34POPC  C210 4567   7.105   0.048   9.220 -0.4386 -0.2936 -0.0902
   34POPC  H101 4568   7.129  -0.058   9.205  0.3657 -0.7524  3.5685
   34POPC  C211 4569   7.144   0.154   9.116  0.2507 -0.2495 -0.4012
   34POPC  H11R 4570   7.254   0.169   9.112  0.0770  1.8171  1.1369
   34POPC  H11S 4571   7.104   0.254   9.141 -1.0130 -0.9172  0.3054
   34POPC  C212 4572   7.098   0.132   8.969 -0.7002  0.5103  0.1339
   34POPC  H12R 4573   7.141   0.214   8.908  1.4410 -0.5099  0.1943
   34POPC  H12S 4574   6.988   0.147   8.970 -0.5959  1.3058 -0.0830
   34POPC  C213 4575   7.136  -0.006   8.907  0.1886  0.0986 -0.3306
   34POPC  H13R 4576   7.072  -0.091   8.939  1.4905 -0.6913  0.2226
   34POPC  H13S 4577   7.241  -0.036   8.925 -0.1422 -0.5241  0.6104
   34POPC  C214 4578   7.123   0.006   8.752  0.0740 -0.1166  0.4312
   34POPC  H14R 4579   7.185   0.091   8.717  0.7618 -1.1823 -1.0219
   34POPC  H14S 4580   7.020   0.016   8.713 -0.1196  2.2979  1.3924
   34POPC  C215 4581   7.180  -0.114   8.684 -0.3656  0.8896  0.4992
   34POPC  H15R 4582   7.264  -0.152   8.747 -0.2014  0.3480 -0.0315
   34POPC  H15S 4583   7.230  -0.076   8.592 -0.4202  1.5031  0.7212
   34POPC  C216 4584   7.076  -0.221   8.650 -0.2339 -0.3818  0.5066
   34POPC  H16R 4585   7.017  -0.180   8.565  2.2564  0.9257 -0.6911
   34POPC  H16S 4586   7.018  -0.257   8.737  0.2450 -0.8192  0.6479
   34POPC  C217 4587   7.151  -0.349   8.595 -0.1115  0.5619  0.4782
   34POPC  H17R 4588   7.171  -0.413   8.684 -1.9866 -1.8758 -0.7317
   34POPC  H17S 4589   7.244  -0.314   8.544 -2.1374  0.6247 -3.5656
   34POPC  C218 4590   7.058  -0.442   8.506  0.4051  0.3683 -0.3358
   34POPC  H18R 4591   7.124  -0.521   8.463  0.6148 -0.8185  1.9861
   34POPC  H18S 4592   7.007  -0.376   8.433 -1.6931 -0.8704 -0.0698
   34POPC  H18T 4593   6.979  -0.491   8.567 -0.9743  0.8743 -1.6762
   34POPC   C33 4594   6.422   0.462  10.203  0.4818 -0.0707 -0.2123
   34POPC   H3X 4595   6.320   0.487  10.169  0.3690 -1.9087 -1.3489
   34POPC   H3Y 4596   6.408   0.384  10.281  0.1541  0.3412  0.1412
   34POPC   C34 4597   6.497   0.418  10.079  0.1159 -0.3089 -0.6543
   34POPC   H4X 4598   6.587   0.355  10.095 -0.6499 -1.8451 -2.1601
   34POPC   H4Y 4599   6.516   0.510  10.019 -0.0257 -0.6546 -1.2281
   34POPC   C35 4600   6.411   0.328   9.993 -0.2644 -0.4087  1.0072
   34POPC   H5X 4601   6.314   0.374   9.968  0.1821 -0.2454 -0.5532
   34POPC   H5Y 4602   6.383   0.238  10.051 -1.9669  0.0251  0.9036
   34POPC   C36 4603   6.476   0.279   9.857 -0.3851 -0.8085  0.3289
   34POPC   H6X 4604   6.392   0.232   9.802 -1.8151 -1.3094  2.8155
   34POPC   H6Y 4605   6.551   0.201   9.883 -2.3014 -2.2367  1.8425
   34POPC   C37 4606   6.532   0.388   9.762  0.1575 -0.2483  0.4268
   34POPC   H7X 4607   6.631   0.427   9.795  0.7849 -0.7044 -0.8545
   34POPC   H7Y 4608   6.456   0.468   9.748  1.2471  0.5746 -1.1202
   34POPC   C38 4609   6.543   0.329   9.621 -0.3160  0.4706  0.2566
   34POPC   H8X 4610   6.438   0.304   9.592 -0.9554  0.6406  2.2914
   34POPC   H8Y 4611   6.601   0.234   9.621  0.0631  0.6413 -2.0193
   34POPC   C39 4612   6.591   0.437   9.525  0.3867  0.8549  0.1623
   34POPC   H9X 4613   6.695   0.457   9.557  0.6300 -0.6709  0.3928
   34POPC   H9Y 4614   6.532   0.531   9.533  1.3751  1.3089  3.5134
   34POPC  C310 4615   6.599   0.386   9.378 -0.3750  0.0489  0.2891
   34POPC  H10X 4616   6.671   0.301   9.388 -0.6145 -0.1908 -0.0014
   34POPC  H10Y 4617   6.659   0.459   9.320  0.4717 -0.1342  0.9087
   34POPC  C311 4618   6.471   0.351   9.312 -0.3135  0.1123 -0.1534
   34POPC  H11X 4619   6.388   0.417   9.345  1.2733  1.2909  1.7037
   34POPC  H11Y 4620   6.433   0.247   9.327 -2.2691  0.5826 -1.4798
   34POPC  C312 4621   6.481   0.378   9.159 -0.9611  0.2941  0.2084
   34POPC  H12X 4622   6.546   0.311   9.098 -0.3378  0.4270  0.7111
   34POPC  H12Y 4623   6.538   0.474   9.154 -1.0626  0.4773  1.8774
   34POPC  C313 4624   6.348   0.371   9.087  0.6380 -0.7257 -0.5110
   34POPC  H13X 4625   6.305   0.471   9.112  1.0939 -0.7419  0.3950
   34POPC  H13Y 4626   6.287   0.292   9.135 -0.9519  1.9195  2.1278
   34POPC  C314 4627   6.353   0.367   8.928  0.5540  0.3558  0.5009
   34POPC  H14X 4628   6.248   0.343   8.899  0.3155 -0.1691  1.7208
   34POPC  H14Y 4629   6.419   0.281   8.903 -2.1374 -2.0645  1.1360
   34POPC  C315 4630   6.407   0.505   8.874  0.6544  0.8801 -0.8755
   34POPC  H15X 4631   6.507   0.520   8.922  1.0842  0.1383 -1.5120
   34POPC  H15Y 4632   6.329   0.580   8.898 -1.1476 -0.8674 -0.9951
   34POPC  C316 4633   6.425   0.499   8.725  0.9754  0.0380 -0.5617
   34POPC  H16X 4634   6.505   0.427   8.698  0.1676 -0.7888 -0.7629
   34POPC  H16Y 4635   6.455   0.601   8.691  2.3982  0.6502  2.2525
   34POPC  H16Z 4636   6.334   0.458   8.676 -0.3146  2.1466 -0.0685
   35POPC     N 4637   6.199   4.043  11.297  0.1832 -0.0223 -0.6014
   35POPC   C12 4638   6.149   4.046  11.152 -0.3561 -0.5400 -0.5349
   35POPC  H12A 4639   6.086   4.133  11.137 -3.4130 -2.5249 -0.3220
   35POPC  H12B 4640   6.074   3.969  11.137 -2.1718  1.1826 -0.8719
   35POPC   C13 4641   6.097   4.050  11.392  0.0852 -1.3159 -0.1309
   35POPC  H13A 4642   6.143   4.059  11.489  1.7285 -2.5254 -0.7354
   35POPC  H13B 4643   6.040   4.138  11.367  3.1932  0.2855 -2.2862
   35POPC  H13C 4644   6.022   3.973  11.403 -0.8790 -0.2733  0.8465
   35POPC   C14 4645   6.279   3.920  11.327  0.0924  0.2987 -0.5201
   35POPC  H14A 4646   6.361   3.916  11.256 -1.0806  1.6947 -2.0591
   35POPC  H14B 4647   6.309   3.932  11.430 -1.6344 -0.1921  0.0753
   35POPC  H14C 4648   6.212   3.836  11.325 -1.0194  1.1079  0.7851
   35POPC   C15 4649   6.294   4.159  11.310  0.3210 -0.1770  0.2514
   35POPC  H15A 4650   6.369   4.149  11.234 -0.5608 -0.9065 -0.5316
   35POPC  H15B 4651   6.344   4.158  11.406  0.5562 -0.3216  0.1264
   35POPC  H15C 4652   6.256   4.260  11.300 -1.3011 -0.7950 -0.0595
   35POPC   C11 4653   6.258   4.046  11.039 -0.0700 -0.2799  0.1690
   35POPC  H11A 4654   6.329   4.130  11.052  0.9708 -1.0112 -0.6645
   35POPC  H11B 4655   6.203   4.058  10.943 -2.3687 -0.5029  1.3654
   35POPC     P 4656   6.263   3.791  11.007 -0.0315  0.2480  0.0838
   35POPC   O13 4657   6.126   3.796  11.049 -0.0137  0.6527 -0.5776
   35POPC   O14 4658   6.354   3.685  11.059  0.4865 -0.1716  0.2218
   35POPC   O12 4659   6.338   3.928  11.033  0.1914 -0.3515  0.0101
   35POPC   O11 4660   6.258   3.785  10.851  0.3090  0.0769  0.2063
   35POPC    C1 4661   6.387   3.792  10.786  0.0498 -0.4919  0.6472
   35POPC    HA 4662   6.444   3.700  10.814  0.1784 -1.1446 -1.5769
   35POPC    HB 4663   6.452   3.879  10.807 -0.6001 -0.3313  2.0992
   35POPC    C2 4664   6.367   3.777  10.632  0.3338  0.2635  0.3527
   35POPC    HS 4665   6.469   3.783  10.588  0.3218  2.7910  0.5366
   35POPC   O21 4666   6.290   3.887  10.582 -0.1971 -0.1013  0.1041
   35POPC   C21 4667   6.350   4.000  10.559  0.1266  0.6471  0.3125
   35POPC   O22 4668   6.464   4.024  10.587 -0.6068 -0.7799  0.1151
   35POPC   C22 4669   6.244   4.105  10.508 -0.1783 -0.4922  0.6450
   35POPC   H2R 4670   6.269   4.210  10.533 -0.6665  0.1065 -1.2192
   35POPC   H2S 4671   6.148   4.075  10.556 -1.6373  0.5219 -1.5221
   35POPC    C3 4672   6.305   3.637  10.595 -0.0186  0.0701  0.2068
   35POPC    HX 4673   6.204   3.632  10.642  0.3454  2.5390  1.4156
   35POPC    HY 4674   6.371   3.565  10.646  0.8295  0.3948 -0.4181
   35POPC   O31 4675   6.296   3.614  10.451  0.4152 -0.1262  0.1135
   35POPC   C31 4676   6.407   3.552  10.396 -0.1480  0.1127  0.3814
   35POPC   O32 4677   6.509   3.532  10.450  0.5063 -0.0160 -0.1772
   35POPC   C32 4678   6.378   3.538  10.247  0.5745  0.4129  0.6456
   35POPC   H2X 4679   6.365   3.633  10.191 -0.9421 -0.5090 -0.6635
   35POPC   H2Y 4680   6.284   3.480  10.239  0.9593 -0.1863  0.3111
   35POPC   C23 4681   6.232   4.083  10.354  0.2194  0.0227 -0.4196
   35POPC   H3R 4682   6.147   4.149  10.324 -0.4216 -0.4413  0.3445
   35POPC   H3S 4683   6.203   3.982  10.319  0.8505 -1.0978  2.1133
   35POPC   C24 4684   6.353   4.130  10.281 -0.7984  0.0249 -0.2341
   35POPC   H4R 4685   6.450   4.089  10.316  0.6496  2.4143 -1.2166
   35POPC   H4S 4686   6.369   4.238  10.302  0.5469 -0.1281 -0.4096
   35POPC   C25 4687   6.347   4.112  10.129 -0.8520 -0.6432  0.4099
   35POPC   H5R 4688   6.355   4.003  10.108 -2.5068 -0.2943 -2.5148
   35POPC   H5S 4689   6.435   4.155  10.075 -0.6496 -1.8041 -0.2132
   35POPC   C26 4690   6.217   4.155  10.060  0.1685 -1.2214 -0.1979
   35POPC   H6R 4691   6.131   4.100  10.103 -1.0819 -3.0151 -4.4438
   35POPC   H6S 4692   6.209   4.118   9.956 -0.4974 -1.0858 -0.1961
   35POPC   C27 4693   6.176   4.306  10.071 -0.4329 -0.1546  0.1840
   35POPC   H7R 4694   6.184   4.335  10.178  1.7452 -0.0154  0.0419
   35POPC   H7S 4695   6.073   4.322  10.032  0.3545 -1.3868 -2.5966
   35POPC   C28 4696   6.276   4.394   9.988  0.0532 -0.0393  0.2643
   35POPC   H8R 4697   6.379   4.382  10.029  0.2153  2.2846  0.6257
   35POPC   H8S 4698   6.248   4.499  10.008  0.3835  0.1400 -0.2106
   35POPC   C29 4699   6.286   4.367   9.839 -0.1906  0.3970  0.1298
   35POPC   H91 4700   6.378   4.318   9.803 -0.9480 -1.4748  0.6644
   35POPC  C210 4701   6.196   4.405   9.750 -0.0856 -0.5987  0.4855
   35POPC  H101 4702   6.213   4.386   9.643 -1.1552  1.0306 -0.0081
   35POPC  C211 4703   6.066   4.485   9.776  0.3549  0.1613 -0.7160
   35POPC  H11R 4704   6.012   4.449   9.866 -0.5009  1.2590 -0.7608
   35POPC  H11S 4705   5.994   4.466   9.694  0.7328 -1.3363 -0.7283
   35POPC  C212 4706   6.085   4.631   9.788 -0.8041 -0.0136  0.1008
   35POPC  H12R 4707   6.148   4.651   9.877  0.4960  0.0010 -0.7942
   35POPC  H12S 4708   5.990   4.678   9.822 -1.1204  0.3034 -1.1465
   35POPC  C213 4709   6.132   4.696   9.659  0.0407 -0.3513  0.6136
   35POPC  H13R 4710   6.063   4.696   9.572  2.4238 -0.3504 -1.4175
   35POPC  H13S 4711   6.228   4.644   9.636 -0.2880 -0.5800 -0.2799
   35POPC  C214 4712   6.159   4.841   9.681 -0.4245  0.5165 -0.2482
   35POPC  H14R 4713   6.244   4.853   9.752 -0.5242  0.1001 -0.0540
   35POPC  H14S 4714   6.077   4.883   9.744  1.5739  1.7642  1.6667
   35POPC  C215 4715   6.200   4.925   9.561  0.5019  0.4403  0.0642
   35POPC  H15R 4716   6.268   4.864   9.499 -1.0995  0.0384 -1.3758
   35POPC  H15S 4717   6.251   5.018   9.597 -1.2105  1.8188 -0.9134
   35POPC  C216 4718   6.081   4.967   9.465  0.3654 -0.2223 -0.1772
   35POPC  H16R 4719   5.999   5.011   9.526  1.6846  0.2038  1.3616
   35POPC  H16S 4720   6.054   4.882   9.399 -1.6747 -1.6409  2.3172
   35POPC  C217 4721   6.125   5.080   9.371 -0.4202 -0.3242  0.4738
   35POPC  H17R 4722   6.162   5.163   9.434 -2.3892  0.1225  1.0933
   35POPC  H17S 4723   6.037   5.128   9.323  2.0655  3.1322 -1.0108
   35POPC  C218 4724   6.227   5.042   9.269  0.2954 -0.3331  0.5215
   35POPC  H18R 4725   6.262   5.131   9.213  2.0174 -2.1976 -1.5792
   35POPC  H18S 4726   6.180   4.972   9.196 -0.4694 -0.0342  0.7173
   35POPC  H18T 4727   6.322   4.996   9.305  0.5952  0.1099  0.2992
   35POPC   C33 4728   6.484   3.447  10.168 -0.2032  0.2244 -0.0361
   35POPC   H3X 4729   6.482   3.342  10.205  0.6056 -0.1775 -1.0790
   35POPC   H3Y 4730   6.586   3.471  10.204 -0.3812  0.0446  0.6191
   35POPC   C34 4731   6.458   3.440  10.022 -0.4894  0.2981  0.1210
   35POPC   H4X 4732   6.446   3.542   9.979  0.5094 -0.1695 -1.3443
   35POPC   H4Y 4733   6.370   3.376   9.997  0.0286  0.1722 -1.4874
   35POPC   C35 4734   6.576   3.366   9.959 -0.3041  1.4126  0.2507
   35POPC   H5X 4735   6.574   3.258   9.982 -0.3630  1.1843 -0.7477
   35POPC   H5Y 4736   6.678   3.381  10.000  0.6861 -0.4314 -1.3542
   35POPC   C36 4737   6.560   3.386   9.808  0.0343 -0.4517 -0.3384
   35POPC   H6X 4738   6.660   3.372   9.761 -0.1438 -0.3941 -0.7325
   35POPC   H6Y 4739   6.555   3.495   9.786 -0.6496 -0.1204  1.2941
   35POPC   C37 4740   6.440   3.320   9.744 -0.1521 -0.3422  0.1032
   35POPC   H7X 4741   6.349   3.381   9.763  0.9605  1.7547 -1.0074
   35POPC   H7Y 4742   6.427   3.215   9.780  3.5326 -0.5893  1.1163
   35POPC   C38 4743   6.443   3.314   9.590  0.1658 -0.0821 -0.0751
   35POPC   H8X 4744   6.524   3.250   9.549  1.4799  2.6993 -2.2097
   35POPC   H8Y 4745   6.467   3.418   9.559 -2.2787 -0.3682 -3.5494
   35POPC   C39 4746   6.309   3.280   9.530  0.2135 -0.6186  0.0209
   35POPC   H9X 4747   6.232   3.357   9.551  0.2124 -0.2642 -1.2098
   35POPC   H9Y 4748   6.256   3.198   9.584  0.9966 -0.6039  0.8401
   35POPC  C310 4749   6.299   3.253   9.384 -0.1477  0.2474  0.2797
   35POPC  H10X 4750   6.344   3.152   9.370  0.6519  0.7507 -0.8389
   35POPC  H10Y 4751   6.341   3.333   9.321 -2.2435 -0.4620 -2.1894
   35POPC  C311 4752   6.157   3.237   9.332  0.2916  0.1187 -0.2767
   35POPC  H11X 4753   6.097   3.321   9.371  1.0013 -0.3417  1.9855
   35POPC  H11Y 4754   6.122   3.143   9.380  1.0962  0.1960  0.5124
   35POPC  C312 4755   6.138   3.204   9.178  0.1459  0.2286  0.0446
   35POPC  H12X 4756   6.176   3.105   9.147  1.9542  1.0571 -0.4832
   35POPC  H12Y 4757   6.190   3.270   9.106 -0.0694 -2.1077 -2.3988
   35POPC  C313 4758   5.986   3.200   9.152 -0.3715 -0.0823  0.1327
   35POPC  H13X 4759   5.956   3.307   9.159  0.1824  0.3518 -2.7320
   35POPC  H13Y 4760   5.938   3.139   9.231  0.5451 -2.2343 -0.8816
   35POPC  C314 4761   5.959   3.148   9.014 -0.2562  0.6673 -0.0184
   35POPC  H14X 4762   5.999   3.047   8.992  0.0934  0.6084  0.8550
   35POPC  H14Y 4763   5.980   3.226   8.937  0.5613  1.6194  1.1386
   35POPC  C315 4764   5.815   3.125   9.001  0.4631 -0.3633  0.0734
   35POPC  H15X 4765   5.756   3.217   9.022 -0.1215 -0.9174  0.9498
   35POPC  H15Y 4766   5.789   3.043   9.072  1.7316 -1.1782 -0.3632
   35POPC  C316 4767   5.773   3.084   8.857  0.0863  0.3094  0.1285
   35POPC  H16X 4768   5.785   3.169   8.786  1.1406 -0.2692 -0.4182
   35POPC  H16Y 4769   5.669   3.045   8.861  0.4143 -0.5965  4.1888
   35POPC  H16Z 4770   5.840   3.006   8.813 -2.2966 -0.6675 -2.0130
   36POPC     N 4771   1.360   2.958  10.898  0.1936  0.2758 -0.1237
   36POPC   C12 4772   1.303   2.970  10.755  0.5342  0.7396 -0.5158
   36POPC  H12A 4773   1.232   2.891  10.732  0.7486  0.7306 -1.1596
   36POPC  H12B 4774   1.383   2.954  10.685  0.7789  0.9090 -0.2750
   36POPC   C13 4775   1.454   3.077  10.929  0.8371  0.5608 -0.5487
   36POPC  H13A 4776   1.390   3.163  10.939 -1.7267 -1.3113  0.3089
   36POPC  H13B 4777   1.511   3.055  11.018  1.3728  0.3077 -0.9507
   36POPC  H13C 4778   1.524   3.100  10.850  3.4372  1.0754  1.7745
   36POPC   C14 4779   1.251   2.960  11.002 -0.1713 -0.4008 -0.0470
   36POPC  H14A 4780   1.168   3.026  10.981  1.2450  1.3444 -0.3869
   36POPC  H14B 4781   1.214   2.859  11.016 -0.7529 -0.2382 -0.3929
   36POPC  H14C 4782   1.296   2.982  11.098 -0.4484  4.0130 -0.7338
   36POPC   C15 4783   1.445   2.836  10.908  0.6684 -0.0472  0.5229
   36POPC  H15A 4784   1.461   2.823  11.014 -0.2485 -0.1909  0.6461
   36POPC  H15B 4785   1.538   2.852  10.855  0.8801 -1.0704  0.5631
   36POPC  H15C 4786   1.389   2.750  10.874  0.5034 -0.0349  0.7664
   36POPC   C11 4787   1.214   3.099  10.707  0.1173 -0.0614 -0.5849
   36POPC  H11A 4788   1.185   3.094  10.600 -2.1865  0.4843 -0.0448
   36POPC  H11B 4789   1.287   3.183  10.707  0.3209 -0.2015  0.8884
   36POPC     P 4790   0.976   3.042  10.778 -0.6358  0.1782 -0.6987
   36POPC   O13 4791   0.909   3.028  10.913  0.0824 -0.0571  1.3112
   36POPC   O14 4792   1.018   2.914  10.718  0.3908 -0.0761  0.3005
   36POPC   O12 4793   1.108   3.124  10.802 -0.1907  0.3046 -0.2254
   36POPC   O11 4794   0.887   3.126  10.679  0.2438  0.1612 -0.2571
   36POPC    C1 4795   0.905   3.269  10.673 -0.2606  0.2727 -0.2291
   36POPC    HA 4796   1.000   3.285  10.617  1.1229 -0.7608  1.7085
   36POPC    HB 4797   0.900   3.316  10.774 -1.0720  1.3175 -0.7377
   36POPC    C2 4798   0.802   3.354  10.585 -0.0613 -0.7711 -0.5287
   36POPC    HS 4799   0.852   3.452  10.567  0.6275 -1.3628 -2.0050
   36POPC   O21 4800   0.676   3.369  10.658  0.9303 -0.0430  0.1587
   36POPC   C21 4801   0.624   3.482  10.630  0.6209  0.3762 -0.5476
   36POPC   O22 4802   0.675   3.564  10.558  0.0193  0.0971 -0.3145
   36POPC   C22 4803   0.485   3.503  10.706 -0.5770  0.4645  0.3267
   36POPC   H2R 4804   0.484   3.609  10.741  1.0147  0.5462  0.1791
   36POPC   H2S 4805   0.492   3.447  10.801 -0.4159  1.3255  0.8368
   36POPC    C3 4806   0.782   3.270  10.455  0.5554 -0.7750 -0.0010
   36POPC    HX 4807   0.731   3.179  10.493 -1.1046  0.5881  1.1963
   36POPC    HY 4808   0.885   3.256  10.416  0.1611  1.8497 -2.2741
   36POPC   O31 4809   0.683   3.331  10.365 -0.3368 -0.2044  0.2075
   36POPC   C31 4810   0.736   3.406  10.275  0.0546  0.3480  0.2090
   36POPC   O32 4811   0.856   3.428  10.252  0.3269  0.0844 -0.3356
   36POPC   C32 4812   0.623   3.480  10.201  0.4821 -0.3598  0.0636
   36POPC   H2X 4813   0.629   3.585  10.236 -0.0305 -0.3990  0.2741
   36POPC   H2Y 4814   0.520   3.441  10.211  0.7610 -0.6905  2.3981
   36POPC   C23 4815   0.359   3.451  10.627 -0.6435  0.0787 -0.8714
   36POPC   H3R 4816   0.266   3.437  10.686 -0.1937 -2.0391 -0.5926
   36POPC   H3S 4817   0.383   3.351  10.585 -2.2852 -0.0793 -1.5279
   36POPC   C24 4818   0.330   3.537  10.503  0.2792 -0.5565  0.4729
   36POPC   H4R 4819   0.410   3.530  10.426  0.6147  0.2186  0.7412
   36POPC   H4S 4820   0.322   3.642  10.538 -0.7826 -0.9396  1.4293
   36POPC   C25 4821   0.191   3.513  10.423  0.3678  0.5226 -0.8013
   36POPC   H5R 4822   0.100   3.515  10.487 -0.4695 -0.8510 -1.8810
   36POPC   H5S 4823   0.193   3.411  10.377 -1.0833 -0.1127  0.4712
   36POPC   C26 4824   0.159   3.609  10.305 -0.0127  0.0039 -1.0444
   36POPC   H6R 4825   0.251   3.616  10.243 -0.6718  0.9045 -1.9389
   36POPC   H6S 4826   0.145   3.710  10.349 -0.9428 -1.3086  1.9015
   36POPC   C27 4827   0.043   3.576  10.219 -0.3376  0.0349  0.2621
   36POPC   H7R 4828  -0.048   3.615  10.271 -0.3605  0.5515 -0.1510
   36POPC   H7S 4829   0.035   3.466  10.203 -0.2704  0.4136 -3.1546
   36POPC   C28 4830   0.041   3.655  10.081 -0.2306 -0.1340 -0.0012
   36POPC   H8R 4831  -0.047   3.626  10.019 -2.0104  1.3191  1.7279
   36POPC   H8S 4832   0.131   3.625  10.023  0.3372  1.2158  0.1411
   36POPC   C29 4833   0.045   3.807  10.102 -0.1714  0.1065  0.5261
   36POPC   H91 4834   0.133   3.848  10.152  0.3680  0.0102 -0.3240
   36POPC  C210 4835  -0.035   3.898  10.044 -0.5452  0.3084 -0.4920
   36POPC  H101 4836  -0.044   3.999  10.087  0.8651  0.0351  0.4996
   36POPC  C211 4837  -0.151   3.867   9.957  0.1793 -1.1551  0.0385
   36POPC  H11R 4838  -0.244   3.853  10.016 -0.2863 -1.1896 -0.6934
   36POPC  H11S 4839  -0.145   3.779   9.889 -1.4450 -0.4189 -1.1421
   36POPC  C212 4840  -0.158   3.981   9.854  0.2632  0.4650 -1.0225
   36POPC  H12R 4841  -0.057   3.999   9.813 -0.2748  3.6103 -1.1753
   36POPC  H12S 4842  -0.177   4.074   9.912 -1.7866 -0.1111 -0.6586
   36POPC  C213 4843  -0.269   3.964   9.751  0.1551 -1.0750  0.3707
   36POPC  H13R 4844  -0.363   3.934   9.801 -0.7390  0.0576 -0.5522
   36POPC  H13S 4845  -0.230   3.891   9.678  0.6000 -1.0037  0.5362
   36POPC  C214 4846  -0.293   4.087   9.662 -0.6356  0.1033 -0.6795
   36POPC  H14R 4847  -0.205   4.114   9.599  2.5722  3.1553  4.3499
   36POPC  H14S 4848  -0.315   4.178   9.722 -2.2672  0.3556 -1.6159
   36POPC  C215 4849  -0.421   4.056   9.579  0.3836  0.2696  0.1445
   36POPC  H15R 4850  -0.508   4.057   9.648 -0.1239  0.8679 -0.4894
   36POPC  H15S 4851  -0.408   3.961   9.523 -1.2778 -0.8248  1.5117
   36POPC  C216 4852  -0.437   4.165   9.469 -0.2788  0.0217 -0.0208
   36POPC  H16R 4853  -0.347   4.174   9.405 -2.1917 -0.3652 -2.9612
   36POPC  H16S 4854  -0.434   4.265   9.517  0.2339  0.4743 -0.9672
   36POPC  C217 4855  -0.560   4.144   9.377 -0.4766 -0.2143  0.2831
   36POPC  H17R 4856  -0.653   4.174   9.430 -0.8893 -0.5244 -0.2607
   36POPC  H17S 4857  -0.570   4.041   9.336  0.6407 -0.5397  0.7873
   36POPC  C218 4858  -0.542   4.234   9.254 -0.3425 -0.1493  0.4731
   36POPC  H18R 4859  -0.539   4.341   9.286  0.6242 -0.2825  0.8478
   36POPC  H18S 4860  -0.622   4.230   9.177  0.3176  0.8161 -0.2952
   36POPC  H18T 4861  -0.442   4.224   9.208 -0.8002 -0.7614 -0.4255
   36POPC   C33 4862   0.672   3.492  10.055 -0.3050 -0.0404 -0.4769
   36POPC   H3X 4863   0.778   3.525  10.055 -0.1306 -0.5625  0.4461
   36POPC   H3Y 4864   0.622   3.579  10.006  1.7812  0.7268 -1.3679
   36POPC   C34 4865   0.688   3.355   9.981 -0.4795 -0.5449 -0.5951
   36POPC   H4X 4866   0.592   3.301   9.998 -0.7034  0.0503  0.0619
   36POPC   H4Y 4867   0.763   3.287  10.026  0.1959  0.7287  0.2510
   36POPC   C35 4868   0.716   3.357   9.835  0.3394  0.0220  0.3851
   36POPC   H5X 4869   0.734   3.250   9.810  1.6843 -0.1278  1.8225
   36POPC   H5Y 4870   0.815   3.408   9.824 -0.8996  2.8979  1.4964
   36POPC   C36 4871   0.615   3.425   9.748  0.8670 -0.4848 -0.6981
   36POPC   H6X 4872   0.595   3.524   9.795  0.3209 -0.9451  0.0730
   36POPC   H6Y 4873   0.515   3.376   9.745  0.2991  0.5018  0.8441
   36POPC   C37 4874   0.648   3.434   9.601 -0.1285 -0.0233  0.3207
   36POPC   H7X 4875   0.688   3.336   9.567 -0.4538 -0.8059  2.0913
   36POPC   H7Y 4876   0.721   3.516   9.581  0.6270 -1.1946 -2.1532
   36POPC   C38 4877   0.531   3.470   9.506 -0.6217 -0.0501 -0.4021
   36POPC   H8X 4878   0.528   3.580   9.499 -0.6920  0.1692  2.1767
   36POPC   H8Y 4879   0.438   3.420   9.541  0.2370 -0.8366  0.8566
   36POPC   C39 4880   0.570   3.427   9.363  0.0048 -0.7768  0.5712
   36POPC   H9X 4881   0.638   3.339   9.362 -1.7213 -2.1766  1.6172
   36POPC   H9Y 4882   0.635   3.508   9.324  0.9199 -2.0831 -0.7266
   36POPC  C310 4883   0.459   3.410   9.261 -0.7471  0.0921  0.5904
   36POPC  H10X 4884   0.384   3.489   9.283 -0.8318 -0.3486  2.0226
   36POPC  H10Y 4885   0.404   3.316   9.282  1.7928 -1.4757  0.5814
   36POPC  C311 4886   0.498   3.417   9.111 -0.4493  0.3261 -1.1323
   36POPC  H11X 4887   0.573   3.336   9.097 -0.5361  0.1956 -0.8440
   36POPC  H11Y 4888   0.540   3.517   9.088 -1.3516  0.7231 -1.1085
   36POPC  C312 4889   0.379   3.384   9.020 -0.2260  0.3757  0.1515
   36POPC  H12X 4890   0.324   3.291   9.045 -0.5557  0.9575  1.6525
   36POPC  H12Y 4891   0.411   3.360   8.916 -0.8387 -0.8669  0.2235
   36POPC  C313 4892   0.286   3.506   9.009 -0.0489 -0.1660  1.1649
   36POPC  H13X 4893   0.354   3.592   8.993 -0.0092 -0.2374  0.9426
   36POPC  H13Y 4894   0.230   3.507   9.105  1.7631  0.9085  2.2615
   36POPC  C314 4895   0.192   3.492   8.888  0.3117 -0.3794  1.0405
   36POPC  H14X 4896   0.245   3.488   8.791  0.3924 -2.0577  1.1310
   36POPC  H14Y 4897   0.133   3.585   8.875 -1.0021 -1.4756 -1.6719
   36POPC  C315 4898   0.100   3.365   8.899 -0.2113  0.0625 -0.0787
   36POPC  H15X 4899   0.036   3.361   8.990  0.6382  0.9438  0.5825
   36POPC  H15Y 4900   0.173   3.281   8.899  0.7112  0.8359  0.6152
   36POPC  C316 4901   0.001   3.350   8.783  0.1421  0.4118  0.6098
   36POPC  H16X 4902  -0.094   3.400   8.812 -0.4799 -1.1059  1.3171
   36POPC  H16Y 4903  -0.012   3.245   8.750 -1.9898  0.8755 -0.1937
   36POPC  H16Z 4904   0.051   3.406   8.701 -0.4668 -1.8201 -1.4015
   37POPC     N 4905   4.585   4.454   6.547  0.1769 -0.3010 -0.2903
   37POPC   C12 4906   4.493   4.470   6.658 -0.0992  0.3149 -0.3827
   37POPC  H12A 4907   4.453   4.571   6.661 -0.7731  0.0236  1.7061
   37POPC  H12B 4908   4.547   4.471   6.751 -0.8515  0.0726  0.0692
   37POPC   C13 4909   4.512   4.495   6.418 -0.4094 -0.5728 -0.2139
   37POPC  H13A 4910   4.421   4.438   6.407 -0.2810 -0.4978 -1.9321
   37POPC  H13B 4911   4.492   4.600   6.403 -0.3302 -0.4567  0.4878
   37POPC  H13C 4912   4.563   4.459   6.330 -0.1014 -2.2915  0.6332
   37POPC   C14 4913   4.711   4.549   6.556 -0.0289  0.1911  0.3150
   37POPC  H14A 4914   4.777   4.514   6.634  0.2045 -0.5471 -0.2018
   37POPC  H14B 4915   4.772   4.545   6.467 -1.4008 -0.0927 -0.6449
   37POPC  H14C 4916   4.685   4.650   6.584  3.4225  1.0490  0.8891
   37POPC   C15 4917   4.636   4.311   6.535  0.8798 -0.3737  0.4433
   37POPC  H15A 4918   4.557   4.246   6.501  1.9764 -0.2657 -2.5397
   37POPC  H15B 4919   4.669   4.272   6.631 -3.6866 -1.6290  1.7497
   37POPC  H15C 4920   4.718   4.299   6.466  1.4890 -1.3256  1.2952
   37POPC   C11 4921   4.376   4.368   6.670 -0.6972 -0.6875  0.1208
   37POPC  H11A 4922   4.331   4.383   6.771 -0.1753  2.0932  0.0274
   37POPC  H11B 4923   4.412   4.266   6.647  2.2706  0.2759  0.0741
   37POPC     P 4924   4.178   4.327   6.498 -0.7536  0.5405  0.1447
   37POPC   O13 4925   4.206   4.342   6.354 -0.1615  0.0730 -0.8898
   37POPC   O14 4926   4.039   4.343   6.542  0.5218 -0.4581 -0.1517
   37POPC   O12 4927   4.280   4.413   6.575  0.1779 -0.1382 -0.0384
   37POPC   O11 4928   4.215   4.179   6.539  0.1429 -0.3733  0.1044
   37POPC    C1 4929   4.117   4.076   6.583  0.0542 -0.2552 -0.1841
   37POPC    HA 4930   4.144   3.979   6.536  2.7523 -0.8674  2.3126
   37POPC    HB 4931   4.016   4.099   6.542  1.3681  1.8375 -2.4868
   37POPC    C2 4932   4.114   4.094   6.733  0.7744  1.1387 -0.5645
   37POPC    HS 4933   4.112   4.203   6.753 -0.4676  1.1924 -0.9135
   37POPC   O21 4934   4.236   4.024   6.777  0.7980 -0.1860  0.4753
   37POPC   C21 4935   4.294   4.062   6.895  0.0089  0.3263 -0.4302
   37POPC   O22 4936   4.262   4.151   6.969  0.2829 -0.2166 -0.7314
   37POPC   C22 4937   4.427   3.978   6.908  0.7943  0.3798  0.1884
   37POPC   H2R 4938   4.485   3.989   6.814 -0.5102  0.3830 -0.6377
   37POPC   H2S 4939   4.399   3.871   6.923 -1.5572  0.9047 -0.0104
   37POPC    C3 4940   3.993   4.029   6.805 -0.1726 -0.6132 -1.0060
   37POPC    HX 4941   3.982   3.924   6.771 -0.0956 -0.4029 -1.6861
   37POPC    HY 4942   3.894   4.076   6.787 -1.4164 -2.2038  1.1476
   37POPC   O31 4943   4.015   4.033   6.950  0.0889  0.3090 -0.4312
   37POPC   C31 4944   3.969   4.135   7.012 -0.4644 -0.1513 -0.3972
   37POPC   O32 4945   3.909   4.229   6.960  0.3679  0.1737 -0.5810
   37POPC   C32 4946   4.020   4.137   7.157 -0.4875  0.5462 -0.0956
   37POPC   H2X 4947   4.040   4.244   7.180 -1.2702  0.4130  1.3718
   37POPC   H2Y 4948   4.114   4.078   7.156 -0.1056  1.1573 -0.5254
   37POPC   C23 4949   4.501   4.008   7.031  0.6464 -1.3057 -0.1526
   37POPC   H3R 4950   4.433   3.998   7.119  0.5149  1.3725  0.1496
   37POPC   H3S 4951   4.529   4.116   7.031 -1.6040 -0.5144  3.5254
   37POPC   C24 4952   4.623   3.918   7.042 -0.7603  0.1403  0.4479
   37POPC   H4R 4953   4.593   3.812   7.031 -0.3659  0.0405  0.3130
   37POPC   H4S 4954   4.657   3.934   7.147 -1.4496  3.0542  0.3087
   37POPC   C25 4955   4.734   3.959   6.939 -0.6629 -0.2010  0.2453
   37POPC   H5R 4956   4.746   4.068   6.950 -2.8466  0.0759  0.3923
   37POPC   H5S 4957   4.693   3.940   6.837 -1.1487 -0.1270  0.4198
   37POPC   C26 4958   4.871   3.878   6.954  0.0798 -0.0889  0.2917
   37POPC   H6R 4959   4.932   3.918   6.871  2.3854 -1.6569  1.1141
   37POPC   H6S 4960   4.849   3.772   6.929 -1.5466 -0.1388  1.7022
   37POPC   C27 4961   4.937   3.891   7.089 -0.3145  0.0762  0.0030
   37POPC   H7R 4962   4.861   3.880   7.169  0.3307 -2.2876  0.3554
   37POPC   H7S 4963   4.988   3.989   7.101  2.9617 -1.5409  0.3025
   37POPC   C28 4964   5.056   3.792   7.092 -0.3013  0.1326  0.2498
   37POPC   H8R 4965   5.117   3.819   7.180  0.5171  0.3900 -0.3932
   37POPC   H8S 4966   5.116   3.811   7.000  0.2351 -3.4148 -0.2910
   37POPC   C29 4967   5.012   3.650   7.096 -0.3100 -0.6746  0.1523
   37POPC   H91 4968   5.017   3.596   7.000  3.3732 -0.9704  0.3639
   37POPC  C210 4969   4.952   3.592   7.198 -0.3892  0.7848  0.1644
   37POPC  H101 4970   4.918   3.488   7.186 -0.9868  1.1386 -1.5265
   37POPC  C211 4971   4.921   3.646   7.335 -0.0446 -0.2528  0.8847
   37POPC  H11R 4972   4.815   3.622   7.360 -0.1950  0.0789  0.5744
   37POPC  H11S 4973   4.943   3.754   7.342  2.5177 -0.7914  3.1733
   37POPC  C212 4974   4.999   3.578   7.445  0.5188  0.3515 -0.0813
   37POPC  H12R 4975   5.108   3.585   7.423  0.3060  0.7682 -1.0190
   37POPC  H12S 4976   4.971   3.471   7.443 -0.5991  0.6460 -0.5805
   37POPC  C213 4977   4.967   3.640   7.585 -1.2489  0.3303  0.0236
   37POPC  H13R 4978   4.860   3.628   7.614 -0.4717 -0.7230  2.7887
   37POPC  H13S 4979   4.979   3.750   7.573  1.8810 -0.0116 -0.9032
   37POPC  C214 4980   5.056   3.590   7.700  0.6822  0.0469 -0.4460
   37POPC  H14R 4981   5.162   3.594   7.668  0.4821  0.2185 -1.0880
   37POPC  H14S 4982   5.035   3.481   7.707  1.5150 -0.0320  1.2955
   37POPC  C215 4983   5.032   3.660   7.840  0.0848  0.4494  0.0912
   37POPC  H15R 4984   4.924   3.651   7.864  0.1493 -2.6635 -0.3495
   37POPC  H15S 4985   5.052   3.769   7.836 -2.1314  0.9261  0.4225
   37POPC  C216 4986   5.113   3.594   7.954  0.5423  0.3231  0.6160
   37POPC  H16R 4987   5.219   3.606   7.922  0.5213 -0.4089  0.2469
   37POPC  H16S 4988   5.095   3.485   7.951  0.1516  0.3958 -0.2716
   37POPC  C217 4989   5.113   3.652   8.096  0.6820 -0.1933  0.1936
   37POPC  H17R 4990   5.012   3.628   8.136  0.5570 -0.0235 -0.0173
   37POPC  H17S 4991   5.124   3.762   8.083  2.4816 -0.3929 -0.2142
   37POPC  C218 4992   5.203   3.600   8.198 -0.2673  0.3352 -0.0077
   37POPC  H18R 4993   5.194   3.657   8.293  0.9264 -0.2751  0.5024
   37POPC  H18S 4994   5.311   3.612   8.173  0.7075 -2.8802  2.0427
   37POPC  H18T 4995   5.189   3.492   8.221  1.2677 -0.2069 -1.4614
   37POPC   C33 4996   3.912   4.087   7.249 -0.8888 -0.0937  0.9491
   37POPC   H3X 4997   3.959   4.059   7.346  1.8129 -0.1885 -0.2822
   37POPC   H3Y 4998   3.848   4.000   7.223  1.6505 -2.1537  1.2068
   37POPC   C34 4999   3.812   4.206   7.287 -0.0027 -0.0067  0.9765
   37POPC   H4X 5000   3.745   4.230   7.202 -0.6744  1.5238  1.9002
   37POPC   H4Y 5001   3.865   4.303   7.295  1.3458 -0.7160  1.0135
   37POPC   C35 5002   3.732   4.175   7.409 -0.3875 -0.3852  0.1254
   37POPC   H5X 5003   3.780   4.220   7.498  0.5029  1.9419 -1.4302
   37POPC   H5Y 5004   3.721   4.065   7.413  1.4748 -0.6651 -1.1894
   37POPC   C36 5005   3.588   4.228   7.397  0.0203  0.2092 -0.3020
   37POPC   H6X 5006   3.529   4.194   7.309  0.0910  3.4706 -1.7463
   37POPC   H6Y 5007   3.572   4.338   7.391 -2.8456 -0.2178 -3.3033
   37POPC   C37 5008   3.504   4.182   7.517  0.5627  0.6658  0.6510
   37POPC   H7X 5009   3.541   4.086   7.559  1.1136  0.6727  0.1989
   37POPC   H7Y 5010   3.398   4.165   7.490  1.2678 -1.3818 -1.0938
   37POPC   C38 5011   3.517   4.279   7.637 -0.0645  0.4497  0.0602
   37POPC   H8X 5012   3.482   4.377   7.597  1.5490  1.4562  0.9929
   37POPC   H8Y 5013   3.626   4.276   7.658 -0.3027 -0.6169  1.2298
   37POPC   C39 5014   3.454   4.225   7.767  0.7013  0.2530 -0.4271
   37POPC   H9X 5015   3.377   4.151   7.737 -1.5295  2.6619 -1.0767
   37POPC   H9Y 5016   3.381   4.289   7.822 -1.7503 -3.5477  1.1458
   37POPC  C310 5017   3.556   4.160   7.864 -0.2630  0.2513 -0.1650
   37POPC  H10X 5018   3.624   4.241   7.897 -1.1477  1.5969 -1.5284
   37POPC  H10Y 5019   3.630   4.092   7.817  1.0750  2.4381 -1.3489
   37POPC  C311 5020   3.495   4.101   7.986 -0.3189  0.9592 -0.0988
   37POPC  H11X 5021   3.445   4.006   7.959 -0.4282  0.3423  2.0973
   37POPC  H11Y 5022   3.416   4.162   8.035 -0.2904 -0.4444  1.7878
   37POPC  C312 5023   3.592   4.068   8.102 -0.3901  0.0799 -0.9205
   37POPC  H12X 5024   3.623   4.165   8.146 -1.6617  0.2456 -0.3502
   37POPC  H12Y 5025   3.688   4.026   8.065  0.5253  1.5638 -0.3498
   37POPC  C313 5026   3.525   3.967   8.201  0.6383  0.6714 -0.0377
   37POPC  H13X 5027   3.501   3.873   8.147  0.0894  0.6453  0.2450
   37POPC  H13Y 5028   3.428   4.011   8.234 -0.0317  0.6469 -1.8045
   37POPC  C314 5029   3.610   3.925   8.323  0.6573 -0.6031  0.0443
   37POPC  H14X 5030   3.689   3.855   8.288  0.7875 -0.4312 -0.0104
   37POPC  H14Y 5031   3.553   3.881   8.407 -0.9346 -0.4845 -0.9268
   37POPC  C315 5032   3.687   4.046   8.391 -0.0451  0.3203  0.1475
   37POPC  H15X 5033   3.764   4.088   8.323 -0.0594 -0.5977 -0.4650
   37POPC  H15Y 5034   3.761   4.007   8.464  0.9736  1.4800 -0.2347
   37POPC  C316 5035   3.580   4.139   8.450 -0.0579 -0.5283 -0.1661
   37POPC  H16X 5036   3.520   4.195   8.374 -0.9328 -3.0124 -1.4382
   37POPC  H16Y 5037   3.628   4.211   8.519  2.6805  0.0216 -2.4718
   37POPC  H16Z 5038   3.512   4.081   8.516  0.2745 -1.0991 -0.3158
   38POPC     N 5039   1.086   3.117   6.109 -0.2034 -0.2787  0.2081
   38POPC   C12 5040   0.944   3.136   6.164  0.7098  0.1543  0.0584
   38POPC  H12A 5041   0.877   3.077   6.103  0.2889 -0.6794  1.3034
   38POPC  H12B 5042   0.923   3.242   6.161  0.9316  0.1898 -0.4213
   38POPC   C13 5043   1.097   3.179   5.978 -0.1911  0.2628  1.1071
   38POPC  H13A 5044   1.190   3.155   5.929 -0.8114  1.1618 -0.5906
   38POPC  H13B 5045   1.021   3.156   5.905 -0.7714  2.0330  1.0889
   38POPC  H13C 5046   1.101   3.285   5.998 -0.1589  0.5085 -0.0853
   38POPC   C14 5047   1.193   3.174   6.198  0.0091 -0.1078  0.3984
   38POPC  H14A 5048   1.291   3.181   6.152  0.5508  1.4383  1.6699
   38POPC  H14B 5049   1.164   3.273   6.230  0.6330 -0.2865  1.5670
   38POPC  H14C 5050   1.190   3.113   6.286 -3.4046 -1.0016 -0.2089
   38POPC   C15 5051   1.114   2.970   6.080  0.4114  0.1275 -0.0822
   38POPC  H15A 5052   1.053   2.943   5.995  1.5079  3.0138 -1.9550
   38POPC  H15B 5053   1.074   2.916   6.164  1.3385  0.4940  0.6205
   38POPC  H15C 5054   1.218   2.947   6.060  0.9173  1.4072  0.9151
   38POPC   C11 5055   0.909   3.083   6.311 -0.4013  0.1651  0.3393
   38POPC  H11A 5056   0.818   3.137   6.345 -1.5761 -0.8683 -1.0373
   38POPC  H11B 5057   0.998   3.104   6.375  0.5602 -2.1405 -0.1586
   38POPC     P 5058   0.928   2.828   6.396  0.1210  0.2257 -0.1237
   38POPC   O13 5059   1.064   2.781   6.360  0.6644 -0.3144  0.1787
   38POPC   O14 5060   0.824   2.722   6.402 -0.0629 -0.0921 -0.5489
   38POPC   O12 5061   0.889   2.945   6.295  0.5500  0.8083  0.0222
   38POPC   O11 5062   0.945   2.895   6.538 -0.0087 -0.2692  0.5616
   38POPC    C1 5063   0.835   2.963   6.603  0.0278 -0.0484  0.2775
   38POPC    HA 5064   0.738   2.939   6.555 -0.0073  1.1306 -0.2597
   38POPC    HB 5065   0.844   3.072   6.584 -0.7495 -0.2433 -1.3359
   38POPC    C2 5066   0.832   2.938   6.751  0.4194 -0.5607 -0.0962
   38POPC    HS 5067   0.935   2.959   6.788  0.8077 -0.0256 -1.4020
   38POPC   O21 5068   0.786   2.804   6.785 -0.1257 -0.3099 -0.0392
   38POPC   C21 5069   0.885   2.716   6.784 -0.2737  0.5882  0.1317
   38POPC   O22 5070   1.006   2.734   6.767 -0.7872  0.5742  0.3432
   38POPC   C22 5071   0.825   2.577   6.826  0.7480  0.0089  0.3659
   38POPC   H2R 5072   0.907   2.502   6.816  0.8097 -0.0681  1.3296
   38POPC   H2S 5073   0.751   2.568   6.743 -1.0246  3.1672  1.4262
   38POPC    C3 5074   0.744   3.042   6.833 -0.7676  0.0154  0.2191
   38POPC    HX 5075   0.638   3.037   6.798 -1.4562  1.1616  1.9961
   38POPC    HY 5076   0.784   3.145   6.826  1.3709 -0.8821 -2.6380
   38POPC   O31 5077   0.740   2.999   6.967  0.3261 -0.0221 -0.4086
   38POPC   C31 5078   0.662   3.069   7.048 -0.3497 -0.9761  0.3002
   38POPC   O32 5079   0.599   3.164   7.014 -0.6005 -0.0601  0.5967
   38POPC   C32 5080   0.678   3.020   7.190  0.3529 -0.1147 -0.6733
   38POPC   H2X 5081   0.777   3.047   7.232 -0.3869 -1.9680  2.6015
   38POPC   H2Y 5082   0.687   2.910   7.192 -0.9000 -0.2186 -0.2765
   38POPC   C23 5083   0.757   2.581   6.963  0.1014  0.7270 -0.4153
   38POPC   H3R 5084   0.717   2.477   6.959  2.2362 -0.2362  1.0715
   38POPC   H3S 5085   0.686   2.666   6.962  1.2433  1.8284  2.2385
   38POPC   C24 5086   0.854   2.590   7.086 -0.0190 -0.5399  0.1011
   38POPC   H4R 5087   0.904   2.688   7.070 -0.3043 -0.3648  0.2611
   38POPC   H4S 5088   0.932   2.511   7.081 -1.8018 -2.3505 -0.4294
   38POPC   C25 5089   0.766   2.591   7.216 -0.0054 -0.0807  0.3218
   38POPC   H5R 5090   0.724   2.489   7.222  1.4537 -0.6454  1.9008
   38POPC   H5S 5091   0.682   2.664   7.210 -0.8247 -0.9603  0.8333
   38POPC   C26 5092   0.844   2.610   7.344 -0.4353 -0.0891 -0.0773
   38POPC   H6R 5093   0.903   2.704   7.347 -0.7200  0.0973 -0.2968
   38POPC   H6S 5094   0.923   2.532   7.352 -0.0964  0.3223  0.7355
   38POPC   C27 5095   0.762   2.612   7.467 -0.5040 -0.3848 -0.0901
   38POPC   H7R 5096   0.699   2.520   7.466 -0.8143 -0.2157  1.2821
   38POPC   H7S 5097   0.710   2.710   7.459 -1.8537 -1.0841 -0.2590
   38POPC   C28 5098   0.840   2.604   7.604 -0.5537  0.8510 -0.0483
   38POPC   H8R 5099   0.897   2.510   7.586 -1.4172  0.3744 -0.3397
   38POPC   H8S 5100   0.777   2.581   7.692  0.9093 -4.2060 -0.0001
   38POPC   C29 5101   0.934   2.719   7.635  0.0884  0.0490  0.3506
   38POPC   H91 5102   1.018   2.715   7.565  0.9677 -0.3582  1.3958
   38POPC  C210 5103   0.920   2.800   7.738  0.1897  0.6925 -0.7180
   38POPC  H101 5104   0.997   2.877   7.755  1.2960 -0.8561  1.7035
   38POPC  C211 5105   0.817   2.805   7.849 -1.0502  0.6423  0.1028
   38POPC  H11R 5106   0.720   2.789   7.798 -0.2886 -0.2069 -1.1239
   38POPC  H11S 5107   0.817   2.910   7.885  1.7165  1.5923 -2.2456
   38POPC  C212 5108   0.838   2.697   7.958 -0.5398  0.2945 -0.2336
   38POPC  H12R 5109   0.860   2.595   7.919  1.1601 -0.5453  2.5930
   38POPC  H12S 5110   0.746   2.685   8.020 -1.7293 -1.8025 -2.2238
   38POPC  C213 5111   0.967   2.720   8.036  0.0195  0.3970 -0.0779
   38POPC  H13R 5112   0.942   2.816   8.086  0.4463 -0.7743  2.5912
   38POPC  H13S 5113   1.057   2.731   7.972 -0.9348  0.7444 -1.4154
   38POPC  C214 5114   0.985   2.606   8.145 -0.1696 -0.1358 -0.2037
   38POPC  H14R 5115   0.888   2.563   8.175 -0.8447  1.0084 -0.6652
   38POPC  H14S 5116   1.027   2.664   8.231 -0.1269 -0.3724 -0.0660
   38POPC  C215 5117   1.079   2.489   8.121  0.0601 -0.1318  0.6607
   38POPC  H15R 5118   1.048   2.450   8.022  0.1276  0.4477  0.4056
   38POPC  H15S 5119   1.072   2.419   8.207  0.5826  0.5276  1.2600
   38POPC  C216 5120   1.231   2.536   8.123  0.1936  0.5579 -0.2077
   38POPC  H16R 5121   1.247   2.586   8.221  0.2318 -2.7784  1.6679
   38POPC  H16S 5122   1.240   2.595   8.030  1.7636  1.4087  0.4567
   38POPC  C217 5123   1.312   2.409   8.133  0.1410  0.6386  0.8735
   38POPC  H17R 5124   1.302   2.349   8.040  1.0372  2.2204 -0.2901
   38POPC  H17S 5125   1.282   2.340   8.215  2.3294 -2.2752 -0.6017
   38POPC  C218 5126   1.460   2.442   8.139  0.3010  0.2914  0.0485
   38POPC  H18R 5127   1.517   2.347   8.141 -0.4647 -0.1825 -0.0907
   38POPC  H18S 5128   1.495   2.499   8.228 -1.3836  1.2993  0.1119
   38POPC  H18T 5129   1.491   2.492   8.045 -0.7605  0.0135 -0.4647
   38POPC   C33 5130   0.567   3.067   7.292  0.3582  1.1968  0.4861
   38POPC   H3X 5131   0.463   3.046   7.257  0.5984  2.1467 -0.8675
   38POPC   H3Y 5132   0.571   3.177   7.299 -0.3227  1.1741  1.5136
   38POPC   C34 5133   0.588   3.014   7.432 -0.4620  0.5762  0.4905
   38POPC   H4X 5134   0.695   3.018   7.463  0.0554 -0.6612 -1.0137
   38POPC   H4Y 5135   0.556   2.909   7.423 -1.7609  0.7834  2.3450
   38POPC   C35 5136   0.509   3.095   7.533  0.3914  0.0040 -0.1146
   38POPC   H5X 5137   0.402   3.073   7.514  0.2498  2.6952 -3.0842
   38POPC   H5Y 5138   0.539   3.201   7.527 -0.4369  0.2007 -0.8138
   38POPC   C36 5139   0.570   3.058   7.678  0.3470  0.6114  0.0177
   38POPC   H6X 5140   0.680   3.076   7.673  0.7057 -1.6629 -1.9878
   38POPC   H6Y 5141   0.557   2.953   7.712  0.3753  0.6207  0.0571
   38POPC   C37 5142   0.499   3.141   7.788 -0.1018 -0.4007 -0.7360
   38POPC   H7X 5143   0.389   3.148   7.773 -0.5270 -0.6132  1.7761
   38POPC   H7Y 5144   0.538   3.245   7.788  0.4020 -0.5540 -2.7891
   38POPC   C38 5145   0.515   3.088   7.929 -0.5117  0.4141 -0.3076
   38POPC   H8X 5146   0.625   3.093   7.940 -0.4831 -0.4369 -0.2022
   38POPC   H8Y 5147   0.479   2.984   7.941  0.6558 -0.1129 -1.2186
   38POPC   C39 5148   0.468   3.178   8.043  0.5408 -0.6202 -0.1887
   38POPC   H9X 5149   0.357   3.179   8.051  0.6314 -1.7196  2.4272
   38POPC   H9Y 5150   0.500   3.282   8.022 -0.3575  0.3567  2.7491
   38POPC  C310 5151   0.514   3.122   8.181  0.5497  0.7798 -0.2254
   38POPC  H10X 5152   0.622   3.144   8.193  1.0803 -2.0884  1.0937
   38POPC  H10Y 5153   0.495   3.013   8.181 -1.2038  1.0558  0.2019
   38POPC  C311 5154   0.447   3.195   8.299 -0.4271 -0.2004  0.8710
   38POPC  H11X 5155   0.337   3.198   8.289 -0.3452  1.8746  0.0943
   38POPC  H11Y 5156   0.469   3.304   8.295  0.0491 -0.2308  2.1953
   38POPC  C312 5157   0.485   3.129   8.438 -0.7446  0.1153 -0.1622
   38POPC  H12X 5158   0.595   3.110   8.432 -0.7798 -0.1207 -0.0769
   38POPC  H12Y 5159   0.431   3.032   8.444  0.7490 -0.6397  2.5987
   38POPC  C313 5160   0.443   3.218   8.555  0.1003 -0.1056 -0.0964
   38POPC  H13X 5161   0.343   3.263   8.537  0.4154  1.4403  1.6222
   38POPC  H13Y 5162   0.507   3.308   8.570 -0.5383 -0.0463  2.9929
   38POPC  C314 5163   0.444   3.140   8.684  0.2362  0.3868 -0.0872
   38POPC  H14X 5164   0.442   3.212   8.769  2.7863 -1.7393  1.9592
   38POPC  H14Y 5165   0.544   3.093   8.698  1.1137  2.8157  2.8992
   38POPC  C315 5166   0.324   3.055   8.714  0.2564  0.0211  0.4006
   38POPC  H15X 5167   0.318   2.969   8.644 -0.4327 -0.6697  1.2794
   38POPC  H15Y 5168   0.231   3.109   8.684  0.9144  0.7619 -0.3556
   38POPC  C316 5169   0.312   3.006   8.860  0.0897  0.5971 -0.3663
   38POPC  H16X 5170   0.259   3.081   8.923 -0.6521 -0.5841  0.4579
   38POPC  H16Y 5171   0.412   2.986   8.903 -0.0706 -2.2953 -1.1846
   38POPC  H16Z 5172   0.249   2.915   8.871  0.1953  0.4426 -1.0098
   39POPC     N 5173   3.905   4.686   6.354 -0.4709  0.3553 -0.2693
   39POPC   C12 5174   3.898   4.818   6.287 -0.4406 -0.2937  0.4204
   39POPC  H12A 5175   3.995   4.866   6.296 -0.7092  1.1974 -3.0525
   39POPC  H12B 5176   3.828   4.887   6.330  0.2757  0.8687 -0.2129
   39POPC   C13 5177   3.767   4.626   6.351 -0.1443 -0.5343  0.2125
   39POPC  H13A 5178   3.738   4.621   6.247  3.3830  0.6836 -0.9602
   39POPC  H13B 5179   3.782   4.525   6.386  4.2577  0.2105  0.9715
   39POPC  H13C 5180   3.694   4.681   6.410 -0.3620  1.5569 -1.8835
   39POPC   C14 5181   3.998   4.577   6.294 -0.9716 -0.6010  0.6884
   39POPC  H14A 5182   4.002   4.491   6.359  0.2714 -0.6025  0.6265
   39POPC  H14B 5183   3.957   4.554   6.197 -3.5722 -2.4691  2.1274
   39POPC  H14C 5184   4.093   4.623   6.269 -2.2789  1.1292 -1.5185
   39POPC   C15 5185   3.949   4.706   6.492 -0.2755 -0.2162 -0.4313
   39POPC  H15A 5186   3.972   4.618   6.550 -0.0077  1.1103  1.5976
   39POPC  H15B 5187   3.873   4.750   6.555 -0.2817  0.2332 -0.7420
   39POPC  H15C 5188   4.037   4.769   6.497 -0.0063 -0.6202 -0.0353
   39POPC   C11 5189   3.873   4.804   6.131 -0.6394 -0.6938 -0.5973
   39POPC  H11A 5190   3.931   4.723   6.081  0.2340 -1.0351  0.8862
   39POPC  H11B 5191   3.917   4.899   6.094  1.4972 -1.1023  0.6806
   39POPC     P 5192   3.636   4.911   6.128  0.1863 -0.4917 -0.0707
   39POPC   O13 5193   3.498   4.862   6.132  0.4759 -0.2653  0.0054
   39POPC   O14 5194   3.678   5.005   6.018  0.6740  0.4747  0.9045
   39POPC   O12 5195   3.733   4.789   6.115 -0.5785 -0.2019  0.7756
   39POPC   O11 5196   3.674   4.974   6.273 -0.0748  0.1838  0.1408
   39POPC    C1 5197   3.692   5.118   6.279 -0.6312 -0.2362 -0.5507
   39POPC    HA 5198   3.595   5.168   6.258 -0.6322  0.3278  0.6971
   39POPC    HB 5199   3.777   5.150   6.215  0.4677 -1.6060  0.1428
   39POPC    C2 5200   3.734   5.155   6.430  0.0539  0.8875  0.2090
   39POPC    HS 5201   3.837   5.115   6.440 -0.8522 -1.7186 -0.1079
   39POPC   O21 5202   3.641   5.091   6.526 -0.4986 -0.6403 -0.2227
   39POPC   C21 5203   3.694   4.990   6.589  0.6458  0.4872  0.4329
   39POPC   O22 5204   3.812   4.959   6.593  0.1019 -0.5150 -0.5355
   39POPC   C22 5205   3.584   4.896   6.649  0.1173 -0.0370  0.8327
   39POPC   H2R 5206   3.571   4.819   6.570 -0.2729  1.4634 -0.6102
   39POPC   H2S 5207   3.491   4.954   6.667 -1.7360 -1.6865 -2.5229
   39POPC    C3 5208   3.731   5.306   6.439 -0.4384 -0.0870 -0.7443
   39POPC    HX 5209   3.629   5.345   6.423 -0.3878 -0.0337 -0.9433
   39POPC    HY 5210   3.799   5.345   6.361  2.3409  0.3773  1.7371
   39POPC   O31 5211   3.765   5.360   6.576 -0.7039  0.2420  0.6922
   39POPC   C31 5212   3.892   5.393   6.589  0.4100 -0.1056  0.4388
   39POPC   O32 5213   3.971   5.409   6.499  0.0914 -0.0100  0.1895
   39POPC   C32 5214   3.905   5.434   6.731  0.1403 -0.1442  0.2326
   39POPC   H2X 5215   3.962   5.529   6.732  1.2890 -0.8086  1.4030
   39POPC   H2Y 5216   3.805   5.454   6.777  0.2074  1.6553 -0.3260
   39POPC   C23 5217   3.634   4.819   6.771 -0.6684  0.6239  0.2145
   39POPC   H3R 5218   3.710   4.881   6.824 -0.4457 -1.7968  2.9681
   39POPC   H3S 5219   3.689   4.730   6.733 -2.3261 -0.6973  0.8380
   39POPC   C24 5220   3.521   4.759   6.852 -0.1213 -0.5536 -0.7042
   39POPC   H4R 5221   3.451   4.703   6.787 -0.7787 -2.9026  1.8199
   39POPC   H4S 5222   3.451   4.827   6.904 -2.1318 -2.8081 -0.2501
   39POPC   C25 5223   3.578   4.661   6.966  0.5103 -0.1626 -0.0274
   39POPC   H5R 5224   3.679   4.632   6.928  0.2111 -0.5272 -0.5643
   39POPC   H5S 5225   3.515   4.570   6.970  0.0110  0.1966  0.3321
   39POPC   C26 5226   3.588   4.728   7.097 -0.2168  0.5278 -0.0203
   39POPC   H6R 5227   3.489   4.765   7.132 -0.7299 -0.4731 -0.3483
   39POPC   H6S 5228   3.663   4.810   7.095  1.3461 -0.8335  0.7064
   39POPC   C27 5229   3.634   4.634   7.208 -0.6309 -0.2391 -0.1603
   39POPC   H7R 5230   3.724   4.577   7.176  0.2337  1.0398 -0.0914
   39POPC   H7S 5231   3.551   4.563   7.226 -0.1585 -1.1170 -1.2622
   39POPC   C28 5232   3.658   4.723   7.335  0.4132 -0.2682  0.2175
   39POPC   H8R 5233   3.567   4.784   7.353 -0.0056 -0.8121 -0.0273
   39POPC   H8S 5234   3.734   4.801   7.315 -0.9001  1.6024  2.0417
   39POPC   C29 5235   3.695   4.641   7.449 -0.1707  0.2984 -1.2806
   39POPC   H91 5236   3.738   4.546   7.414 -0.4426 -0.1804 -0.3621
   39POPC  C210 5237   3.675   4.660   7.582  0.8139 -0.4690  0.1877
   39POPC  H101 5238   3.703   4.578   7.651  0.8850 -0.1014  0.6018
   39POPC  C211 5239   3.599   4.775   7.644 -0.1753 -0.2332 -0.3277
   39POPC  H11R 5240   3.537   4.819   7.563 -0.6450 -0.2023  0.0450
   39POPC  H11S 5241   3.671   4.854   7.674 -1.3540  1.3729 -1.5728
   39POPC  C212 5242   3.509   4.717   7.754  0.1162  0.6795  0.0818
   39POPC  H12R 5243   3.435   4.645   7.714  1.0550 -0.6939  0.7454
   39POPC  H12S 5244   3.452   4.806   7.788  1.4964  0.9559  1.8104
   39POPC  C213 5245   3.596   4.652   7.879 -0.5322 -0.3025 -0.2993
   39POPC  H13R 5246   3.674   4.727   7.905  1.2343 -1.8365 -0.9993
   39POPC  H13S 5247   3.645   4.561   7.840 -1.4866 -0.2733 -1.6457
   39POPC  C214 5248   3.505   4.618   7.995  0.7150 -0.8153  0.4910
   39POPC  H14R 5249   3.420   4.550   7.976  1.1107 -0.9251 -0.9664
   39POPC  H14S 5250   3.463   4.714   8.031 -0.4796 -1.9087  2.1795
   39POPC  C215 5251   3.592   4.553   8.104 -0.1434 -0.2274 -0.1498
   39POPC  H15R 5252   3.646   4.641   8.144  0.1741 -0.2855 -0.4442
   39POPC  H15S 5253   3.664   4.490   8.047  1.0125  0.4714  0.4972
   39POPC  C216 5254   3.522   4.476   8.212 -0.6638 -0.3628 -0.9320
   39POPC  H16R 5255   3.599   4.438   8.283 -1.3952 -1.2664 -0.6175
   39POPC  H16S 5256   3.461   4.394   8.171 -0.9881 -0.5864 -0.0154
   39POPC  C217 5257   3.426   4.559   8.287  0.6301  0.1071 -0.4765
   39POPC  H17R 5258   3.346   4.606   8.225  1.8153  2.1513 -0.5246
   39POPC  H17S 5259   3.473   4.644   8.340  0.2994 -1.1055  1.8774
   39POPC  C218 5260   3.355   4.482   8.392 -0.3346  0.4269 -0.7242
   39POPC  H18R 5261   3.251   4.523   8.399  0.3143  1.9710  0.7531
   39POPC  H18S 5262   3.406   4.493   8.490  1.0783 -0.7971 -1.2943
   39POPC  H18T 5263   3.344   4.373   8.379 -1.6198  0.7285 -2.5196
   39POPC   C33 5264   3.966   5.325   6.818 -0.9017  0.8717 -0.3563
   39POPC   H3X 5265   3.961   5.366   6.921  1.7237 -0.3355  0.3301
   39POPC   H3Y 5266   4.073   5.324   6.790 -0.6715 -0.3198  0.5008
   39POPC   C34 5267   3.890   5.192   6.812  0.0680 -0.3663  0.3303
   39POPC   H4X 5268   3.903   5.142   6.713  0.4227 -1.0582  0.7153
   39POPC   H4Y 5269   3.782   5.210   6.828  0.1546 -0.5253  1.0990
   39POPC   C35 5270   3.940   5.080   6.916 -0.4611  0.3821 -0.5575
   39POPC   H5X 5271   4.035   5.055   6.865 -1.4419  0.9561 -2.8072
   39POPC   H5Y 5272   3.884   4.985   6.909  1.3777 -0.8183  0.3439
   39POPC   C36 5273   3.945   5.134   7.066  0.1373 -0.3037  0.3262
   39POPC   H6X 5274   3.846   5.173   7.098  0.4964  1.8059 -0.9717
   39POPC   H6Y 5275   4.023   5.213   7.067  0.6231 -0.7837  1.0060
   39POPC   C37 5276   3.996   5.023   7.159 -0.0324 -0.2247  0.3445
   39POPC   H7X 5277   4.105   5.013   7.145 -0.1036 -0.5622  0.0273
   39POPC   H7Y 5278   3.945   4.927   7.135  0.7255  0.1277 -3.0627
   39POPC   C38 5279   3.965   5.064   7.302  0.5491 -0.7972 -0.1686
   39POPC   H8X 5280   3.854   5.067   7.312  0.6073  0.3272  0.2709
   39POPC   H8Y 5281   4.005   5.165   7.321  1.3147 -1.7018  4.0161
   39POPC   C39 5282   4.014   4.973   7.413 -0.2856 -0.6271 -1.2084
   39POPC   H9X 5283   4.125   4.973   7.414 -0.2491 -1.4895 -2.7057
   39POPC   H9Y 5284   3.994   4.865   7.397  1.1326 -0.8606 -1.4934
   39POPC  C310 5285   3.956   5.014   7.547 -0.6240 -0.7385  0.3086
   39POPC  H10X 5286   3.850   5.046   7.536  0.0677  0.7072 -5.5063
   39POPC  H10Y 5287   4.020   5.098   7.582  2.3336 -1.2989 -3.2360
   39POPC  C311 5288   3.970   4.897   7.639 -0.1191 -0.6234  0.1692
   39POPC  H11X 5289   4.074   4.863   7.620 -0.0391 -0.0414 -0.5086
   39POPC  H11Y 5290   3.892   4.827   7.602 -0.4793 -0.7416  1.1225
   39POPC  C312 5291   3.950   4.950   7.783  0.6050 -0.4561 -0.0043
   39POPC  H12X 5292   3.853   5.004   7.794  0.6284 -0.9262  4.1579
   39POPC  H12Y 5293   4.023   5.025   7.820  0.8688  0.0496 -1.4853
   39POPC  C313 5294   3.949   4.827   7.878  0.5178 -0.2982  0.0813
   39POPC  H13X 5295   4.049   4.783   7.897  1.5116  0.4364 -2.8841
   39POPC  H13Y 5296   3.891   4.749   7.824 -0.3280  0.0140  0.5217
   39POPC  C314 5297   3.887   4.861   8.016 -0.0086 -0.0275  1.2213
   39POPC  H14X 5298   3.858   4.770   8.073 -2.1164 -0.3162 -0.1952
   39POPC  H14Y 5299   3.790   4.911   7.999  0.2662 -0.0113 -0.5096
   39POPC  C315 5300   3.980   4.952   8.089  0.5355  0.2708 -0.8301
   39POPC  H15X 5301   3.980   5.052   8.040  1.3150  0.7623  0.1314
   39POPC  H15Y 5302   4.082   4.911   8.078  0.9544  1.1776 -0.4110
   39POPC  C316 5303   3.951   4.955   8.240  0.5267  0.7131 -0.1477
   39POPC  H16X 5304   3.853   4.994   8.276  0.6106  1.8683 -1.1019
   39POPC  H16Y 5305   4.021   5.026   8.289 -1.2267  1.2498  1.7290
   39POPC  H16Z 5306   3.975   4.858   8.287 -0.1475  0.3079 -0.6172
   40POPC     N 5307   2.732   2.498   6.171  0.1326  0.0558  0.0884
   40POPC   C12 5308   2.689   2.405   6.285  0.3545 -0.6625  0.1727
   40POPC  H12A 5309   2.706   2.466   6.372 -1.6524  0.4177 -0.1303
   40POPC  H12B 5310   2.749   2.316   6.301  0.8801 -0.2090  0.7729
   40POPC   C13 5311   2.688   2.466   6.031 -0.0485 -0.0373 -0.3368
   40POPC  H13A 5312   2.586   2.431   6.035  0.8443 -2.7748  0.8479
   40POPC  H13B 5313   2.699   2.554   5.970 -0.8275 -0.3426 -0.9315
   40POPC  H13C 5314   2.737   2.376   5.996  0.8209 -0.4298  1.7224
   40POPC   C14 5315   2.674   2.637   6.208  0.3562  0.5453  1.0134
   40POPC  H14A 5316   2.705   2.663   6.308 -1.5544 -1.4620  2.1972
   40POPC  H14B 5317   2.724   2.708   6.142  1.3824 -1.5530 -0.5822
   40POPC  H14C 5318   2.568   2.629   6.191 -0.1176  2.7363  2.4999
   40POPC   C15 5319   2.876   2.508   6.183  0.5343  0.0093 -1.0829
   40POPC  H15A 5320   2.928   2.566   6.108 -0.0901  0.9745 -0.7986
   40POPC  H15B 5321   2.915   2.411   6.161 -0.4043 -0.9984  1.3562
   40POPC  H15C 5322   2.904   2.537   6.283 -0.4960 -0.1214 -0.7394
   40POPC   C11 5323   2.541   2.367   6.281 -0.0328 -0.1201 -0.6024
   40POPC  H11A 5324   2.501   2.343   6.382 -0.6140  0.3142 -0.7243
   40POPC  H11B 5325   2.535   2.273   6.224  1.4383 -0.5671 -0.0617
   40POPC     P 5326   2.339   2.420   6.118  0.1566 -0.0997  0.1513
   40POPC   O13 5327   2.406   2.374   5.994  0.1740  0.0714 -0.8148
   40POPC   O14 5328   2.241   2.531   6.098 -0.1555 -0.0124 -0.1301
   40POPC   O12 5329   2.449   2.461   6.225  0.4895 -0.4961 -0.3247
   40POPC   O11 5330   2.265   2.300   6.184  0.0310  0.7188  0.0806
   40POPC    C1 5331   2.136   2.324   6.237  0.8507 -0.0547 -0.4061
   40POPC    HA 5332   2.098   2.225   6.270  0.4242  0.5607  1.0404
   40POPC    HB 5333   2.066   2.378   6.169  0.2912  1.0038  0.9503
   40POPC    C2 5334   2.137   2.402   6.370  1.1441  0.2406 -0.7032
   40POPC    HS 5335   2.160   2.504   6.335 -2.4526  0.7871 -1.9103
   40POPC   O21 5336   2.235   2.344   6.459 -0.5153  0.5759 -0.2506
   40POPC   C21 5337   2.289   2.423   6.552  0.2400  0.4324  0.8632
   40POPC   O22 5338   2.301   2.546   6.532  0.2209  0.0779  0.6002
   40POPC   C22 5339   2.321   2.351   6.683 -0.8467 -0.0938 -0.3323
   40POPC   H2R 5340   2.382   2.266   6.646 -1.3289  0.6301 -2.9858
   40POPC   H2S 5341   2.227   2.314   6.730 -0.5940  1.2943  1.3751
   40POPC    C3 5342   1.993   2.407   6.439  0.2859 -1.0388  0.1315
   40POPC    HX 5343   1.970   2.305   6.478 -0.9366 -0.4825  0.9249
   40POPC    HY 5344   1.916   2.431   6.362  1.5559  2.5834 -0.1668
   40POPC   O31 5345   1.989   2.494   6.555  0.2498 -0.1028 -0.3195
   40POPC   C31 5346   1.995   2.623   6.510 -0.4296  0.1091  0.7391
   40POPC   O32 5347   1.977   2.653   6.393  0.1524  0.5924 -1.2738
   40POPC   C32 5348   2.020   2.720   6.627  0.4223  0.4351  1.4023
   40POPC   H2X 5349   2.063   2.815   6.590  1.4280 -0.5043  0.0060
   40POPC   H2Y 5350   2.090   2.661   6.690 -1.9649 -2.5157  1.5000
   40POPC   C23 5351   2.401   2.439   6.791 -0.0592 -0.0564  0.6908
   40POPC   H3R 5352   2.334   2.523   6.819 -0.9542  0.3636 -2.3167
   40POPC   H3S 5353   2.495   2.489   6.762  1.2829 -1.4187  2.4797
   40POPC   C24 5354   2.417   2.366   6.925 -0.1160  0.0017 -0.4955
   40POPC   H4R 5355   2.481   2.276   6.919 -2.4027 -1.8547  1.1466
   40POPC   H4S 5356   2.320   2.326   6.962  1.2860 -2.6305  0.5522
   40POPC   C25 5357   2.470   2.456   7.040 -0.7974 -0.3727  0.0959
   40POPC   H5R 5358   2.555   2.519   7.005  0.3679 -2.0242 -0.1939
   40POPC   H5S 5359   2.515   2.382   7.110 -2.9137 -0.3864  1.5093
   40POPC   C26 5360   2.364   2.544   7.105  0.4421  0.0011 -0.1268
   40POPC   H6R 5361   2.280   2.485   7.148  2.1285 -2.6016 -0.2278
   40POPC   H6S 5362   2.334   2.620   7.029  1.7694  0.5204 -0.1416
   40POPC   C27 5363   2.418   2.621   7.230 -0.8787 -0.2360  0.0815
   40POPC   H7R 5364   2.364   2.717   7.237 -0.1584  0.2605 -0.9028
   40POPC   H7S 5365   2.524   2.653   7.221 -0.9289  0.2888  1.1401
   40POPC   C28 5366   2.411   2.542   7.365  0.0406  0.8046 -0.7447
   40POPC   H8R 5367   2.463   2.444   7.357 -0.7071  0.3841 -0.4997
   40POPC   H8S 5368   2.304   2.525   7.388 -0.4217  3.0980 -0.9387
   40POPC   C29 5369   2.471   2.630   7.472  0.1768 -0.0108  0.0401
   40POPC   H91 5370   2.418   2.727   7.477  1.2272  0.5264  1.7233
   40POPC  C210 5371   2.582   2.608   7.537  0.0573 -0.4815  0.3514
   40POPC  H101 5372   2.612   2.685   7.610  2.4341 -0.7427 -0.2544
   40POPC  C211 5373   2.662   2.480   7.525 -0.5176  0.7121 -0.0156
   40POPC  H11R 5374   2.685   2.463   7.418  1.5879  0.5958  0.4183
   40POPC  H11S 5375   2.604   2.392   7.559 -0.3890  0.7016  0.1768
   40POPC  C212 5376   2.804   2.473   7.594  1.0762  0.4754 -0.5230
   40POPC  H12R 5377   2.788   2.502   7.700 -0.5743 -0.2439 -0.5471
   40POPC  H12S 5378   2.880   2.542   7.552  2.8594 -1.1412 -0.1460
   40POPC  C213 5379   2.862   2.336   7.599  0.1343 -0.0552  0.0997
   40POPC  H13R 5380   2.875   2.303   7.494 -0.2288  0.0473  0.0224
   40POPC  H13S 5381   2.799   2.257   7.645 -1.3454  1.0333  0.0023
   40POPC  C214 5382   2.996   2.329   7.664 -0.7506 -0.1661  0.5784
   40POPC  H14R 5383   3.056   2.414   7.624  0.5677 -1.3330 -0.0407
   40POPC  H14S 5384   3.059   2.243   7.632  0.2551  1.3749 -1.8807
   40POPC  C215 5385   2.974   2.314   7.816 -0.2258 -0.9218 -0.8932
   40POPC  H15R 5386   2.911   2.226   7.839  0.4992 -0.9820  1.0150
   40POPC  H15S 5387   2.916   2.404   7.844  0.7880 -0.6570  0.4928
   40POPC  C216 5388   3.094   2.304   7.911  0.3038 -0.1311  0.0585
   40POPC  H16R 5389   3.159   2.393   7.894  0.2437 -0.2494 -0.8879
   40POPC  H16S 5390   3.151   2.209   7.895 -0.2388 -0.2752 -1.1728
   40POPC  C217 5391   3.029   2.298   8.050  0.1700  0.2157 -0.1502
   40POPC  H17R 5392   2.937   2.360   8.054 -0.7027 -0.7448 -2.9574
   40POPC  H17S 5393   3.098   2.341   8.126  1.3481 -2.1066  0.1796
   40POPC  C218 5394   3.007   2.151   8.098  0.4369 -0.4553  0.2500
   40POPC  H18R 5395   2.979   2.146   8.206 -1.9717  1.1197 -0.2064
   40POPC  H18S 5396   3.098   2.089   8.092 -0.2538 -1.5942  1.1836
   40POPC  H18T 5397   2.940   2.089   8.035  1.0938 -2.6826  1.6395
   40POPC   C33 5398   1.900   2.757   6.707  0.3505 -0.3068  0.1245
   40POPC   H3X 5399   1.806   2.710   6.672 -0.6492  1.3315  0.4470
   40POPC   H3Y 5400   1.884   2.866   6.691  2.2987 -0.0297 -0.1509
   40POPC   C34 5401   1.908   2.724   6.846 -0.4706  0.9549 -0.7318
   40POPC   H4X 5402   1.820   2.771   6.895 -0.7118  0.9396 -1.1484
   40POPC   H4Y 5403   1.990   2.781   6.895 -0.0253  1.2097 -1.7583
   40POPC   C35 5404   1.921   2.574   6.881 -0.1854 -0.5318 -0.4834
   40POPC   H5X 5405   1.991   2.528   6.808  0.8938  1.4998 -0.8194
   40POPC   H5Y 5406   1.829   2.517   6.856 -0.1123 -0.7983 -0.1484
   40POPC   C36 5407   1.953   2.540   7.028  0.5925  0.6527 -0.0923
   40POPC   H6X 5408   2.031   2.611   7.061  0.2444  1.7675 -1.5686
   40POPC   H6Y 5409   2.006   2.442   7.030  0.3199  0.5132  0.8615
   40POPC   C37 5410   1.826   2.553   7.109  0.2031  0.0373  0.5829
   40POPC   H7X 5411   1.772   2.459   7.084  2.8348 -1.7466  1.1777
   40POPC   H7Y 5412   1.779   2.650   7.082  3.0245  0.8066 -2.1610
   40POPC   C38 5413   1.861   2.533   7.262 -0.3611  0.0730 -0.8026
   40POPC   H8X 5414   1.927   2.448   7.289 -1.3033 -0.7887 -1.1642
   40POPC   H8Y 5415   1.767   2.522   7.320  0.6129 -5.5287  0.3351
   40POPC   C39 5416   1.933   2.653   7.322  0.8460  0.5954  0.2717
   40POPC   H9X 5417   1.871   2.745   7.310  2.0223  1.4502  0.6012
   40POPC   H9Y 5418   2.018   2.682   7.257 -0.1853 -1.5002 -2.1717
   40POPC  C310 5419   1.966   2.651   7.477  0.7186 -0.1706  0.3116
   40POPC  H10X 5420   2.007   2.550   7.496  0.4319 -0.2660  0.4273
   40POPC  H10Y 5421   1.874   2.665   7.537  0.1772 -0.0900 -0.5201
   40POPC  C311 5422   2.063   2.765   7.502  0.1812  0.2672  0.1869
   40POPC  H11X 5423   2.005   2.858   7.486 -1.1479 -0.2667  1.6178
   40POPC  H11Y 5424   2.139   2.772   7.421 -0.9885  0.2091 -0.9418
   40POPC  C312 5425   2.117   2.768   7.640 -0.0617 -0.4121  0.6845
   40POPC  H12X 5426   2.161   2.667   7.655  0.4528 -0.0541  1.6962
   40POPC  H12Y 5427   2.045   2.783   7.723 -1.2779 -0.7161 -0.2865
   40POPC  C313 5428   2.238   2.856   7.667  0.2513 -0.2433 -0.2471
   40POPC  H13X 5429   2.217   2.961   7.640  2.1316  0.2102 -0.0952
   40POPC  H13Y 5430   2.324   2.826   7.604 -0.4285 -0.2859 -1.1805
   40POPC  C314 5431   2.298   2.836   7.816  0.0659 -0.5849 -0.2893
   40POPC  H14X 5432   2.389   2.771   7.821  0.3838 -0.0800  0.6105
   40POPC  H14Y 5433   2.228   2.792   7.890  1.3472 -1.8067  0.2396
   40POPC  C315 5434   2.348   2.969   7.872 -0.0209 -0.7158 -0.0525
   40POPC  H15X 5435   2.421   3.012   7.801  0.6062 -0.5015  0.7118
   40POPC  H15Y 5436   2.409   2.939   7.960  0.5160  1.3451  0.3375
   40POPC  C316 5437   2.251   3.081   7.921  0.1619 -0.7292 -0.4659
   40POPC  H16X 5438   2.182   3.050   8.003  1.5136 -0.2046  0.9000
   40POPC  H16Y 5439   2.183   3.122   7.842 -0.6944  1.3190  1.2471
   40POPC  H16Z 5440   2.314   3.168   7.950  1.4255 -0.4983 -3.4732
   41CHL1    C3 5441   3.356   2.806  10.012  0.5340 -0.1983  0.1398
   41CHL1    H3 5442   3.256   2.850   9.991 -0.1461 -1.2716  1.0609
   41CHL1    O3 5443   3.368   2.788  10.155  0.2690  0.1240  0.5506
   41CHL1   H3' 5444   3.292   2.734  10.179 -1.4733  1.1195 -2.1977
   41CHL1    C4 5445   3.342   2.681   9.926 -0.0405 -0.4933  0.1839
   41CHL1   H4A 5446   3.427   2.611   9.939  0.8080  0.3442 -0.7190
   41CHL1   H4B 5447   3.252   2.629   9.965 -1.0514 -0.3649 -1.8102
   41CHL1    C5 5448   3.311   2.725   9.780  0.2718  0.8537 -0.5892
   41CHL1    C6 5449   3.189   2.707   9.729  0.0989 -0.2978 -0.0760
   41CHL1    H6 5450   3.117   2.646   9.786 -1.9822  1.6066 -0.5421
   41CHL1    C7 5451   3.156   2.737   9.585 -0.7035  0.0226 -1.1056
   41CHL1   H7A 5452   3.101   2.644   9.559  0.4075 -1.9308  2.8443
   41CHL1   H7B 5453   3.084   2.821   9.575 -1.8883 -0.3790  2.6039
   41CHL1    C8 5454   3.282   2.773   9.502 -0.3790  0.8845 -0.6852
   41CHL1    H8 5455   3.327   2.673   9.487 -0.2283  0.4353  2.2846
   41CHL1   C14 5456   3.233   2.835   9.374  0.7664 -0.2958 -0.5133
   41CHL1   H14 5457   3.194   2.932   9.411  2.7926 -0.5897  2.8040
   41CHL1   C15 5458   3.131   2.759   9.287 -0.2963 -0.4870 -0.1054
   41CHL1  H15A 5459   3.142   2.651   9.312  0.3287 -0.4184 -0.0726
   41CHL1  H15B 5460   3.037   2.802   9.327 -0.5817 -1.5638  0.4289
   41CHL1   C16 5461   3.171   2.796   9.140  0.6984  0.8392 -0.1664
   41CHL1  H16A 5462   3.203   2.702   9.089 -0.8774  0.1369  0.1019
   41CHL1  H16B 5463   3.085   2.838   9.084  1.0456 -1.6731 -2.8150
   41CHL1   C17 5464   3.284   2.904   9.154 -0.0715 -0.0546  0.1767
   41CHL1   H17 5465   3.232   3.001   9.171 -0.3982  0.1274 -1.6178
   41CHL1   C13 5466   3.359   2.862   9.282 -0.6075 -0.1387  0.7002
   41CHL1   C18 5467   3.443   2.731   9.258 -0.2747 -0.9125  0.1114
   41CHL1  H18A 5468   3.491   2.692   9.350  1.5527 -1.9878 -1.2330
   41CHL1  H18B 5469   3.382   2.652   9.209 -2.5549  0.8943 -0.1507
   41CHL1  H18C 5470   3.525   2.773   9.195 -1.2585  1.2376  0.1736
   41CHL1   C12 5471   3.439   2.974   9.348 -0.3724 -0.2483 -0.8117
   41CHL1  H12A 5472   3.532   2.984   9.287  0.8057 -0.8215  0.8229
   41CHL1  H12B 5473   3.375   3.064   9.352 -1.5580 -1.0954 -0.0590
   41CHL1   C11 5474   3.481   2.940   9.498  0.4507  0.2451  0.4450
   41CHL1  H11A 5475   3.562   2.866   9.486  0.5644  0.3543  0.5385
   41CHL1  H11B 5476   3.503   3.039   9.545 -2.2435  1.1510  0.0001
   41CHL1    C9 5477   3.372   2.867   9.584 -0.6269 -0.3896 -0.1779
   41CHL1    H9 5478   3.304   2.949   9.613  1.3196  0.5570  2.0156
   41CHL1   C10 5479   3.424   2.805   9.719 -0.0472  0.3062 -0.2531
   41CHL1   C19 5480   3.561   2.727   9.697 -0.4604 -0.3096 -0.0275
   41CHL1  H19A 5481   3.647   2.797   9.699  0.6607 -1.5959 -1.1646
   41CHL1  H19B 5482   3.574   2.650   9.776  0.2762 -1.8226 -1.5486
   41CHL1  H19C 5483   3.550   2.676   9.599 -1.2878  2.5223 -1.5064
   41CHL1    C1 5484   3.446   2.928   9.811 -0.4180  0.1945 -0.5123
   41CHL1   H1A 5485   3.523   2.990   9.760  1.6777 -1.1272  0.8871
   41CHL1   H1B 5486   3.354   2.991   9.817 -0.6911 -0.3107  3.0967
   41CHL1    C2 5487   3.469   2.893   9.957  0.1842  1.0178 -0.3793
   41CHL1   H2A 5488   3.500   2.971  10.030  0.5241  1.4935 -1.0231
   41CHL1   H2B 5489   3.551   2.818   9.958  0.6825  1.4948  2.6292
   41CHL1   C20 5490   3.365   2.921   9.017  0.0271 -0.2196 -0.9764
   41CHL1   H20 5491   3.456   2.858   9.007  0.0694 -0.3461  0.1264
   41CHL1   C21 5492   3.421   3.065   9.019  0.1364 -1.6705  0.3264
   41CHL1  H21A 5493   3.489   3.070   8.932  0.2638 -1.5373  0.4331
   41CHL1  H21B 5494   3.494   3.085   9.100  0.8258 -4.1536  0.3983
   41CHL1  H21C 5495   3.339   3.140   9.017  1.6805  0.2482  2.8598
   41CHL1   C22 5496   3.281   2.894   8.896 -0.1028  0.0753 -0.3698
   41CHL1  H22A 5497   3.275   2.784   8.880 -0.7269  0.2053 -1.0894
   41CHL1  H22B 5498   3.178   2.929   8.917 -1.9874 -4.3458 -1.0312
   41CHL1   C23 5499   3.332   2.954   8.768 -0.3629 -0.2552  0.0206
   41CHL1  H23A 5500   3.329   3.060   8.800 -2.2717 -0.4675  0.6716
   41CHL1  H23B 5501   3.432   2.912   8.745  0.2570  0.1434  1.8300
   41CHL1   C24 5502   3.237   2.931   8.656  0.3291  0.6126 -0.8336
   41CHL1  H24A 5503   3.221   2.824   8.631  1.4252 -0.1900  1.5242
   41CHL1  H24B 5504   3.139   2.979   8.678 -0.2713 -0.8504 -0.1378
   41CHL1   C25 5505   3.295   3.011   8.532  0.2168  0.6846 -0.1845
   41CHL1   H25 5506   3.281   3.116   8.566 -1.0512  0.3338  0.4143
   41CHL1   C26 5507   3.444   2.982   8.496 -0.4674  0.8333  0.1002
   41CHL1  H26A 5508   3.461   2.878   8.463  2.9437  0.8305  1.5343
   41CHL1  H26B 5509   3.472   3.040   8.405  1.7463 -0.4338 -0.0728
   41CHL1  H26C 5510   3.520   3.009   8.572  2.1409 -2.4005 -1.1458
   41CHL1   C27 5511   3.211   2.986   8.408  0.0133  0.1333  0.0317
   41CHL1  H27A 5512   3.216   2.878   8.384  2.0124 -0.3519  2.2631
   41CHL1  H27B 5513   3.105   3.015   8.424  0.2272  1.1257 -0.2666
   41CHL1  H27C 5514   3.254   3.045   8.324 -0.9906  1.9178  0.7088
   42CHL1    C3 5515   1.243   1.095   9.743  0.8288 -0.1927 -0.1889
   42CHL1    H3 5516   1.323   1.021   9.767  3.4515  2.6767  0.4876
   42CHL1    O3 5517   1.196   1.150   9.870 -0.0378 -0.5873  0.5605
   42CHL1   H3' 5518   1.129   1.216   9.849 -0.8859 -0.9893  1.8705
   42CHL1    C4 5519   1.280   1.220   9.655 -0.0183 -0.5517 -0.4114
   42CHL1   H4A 5520   1.182   1.271   9.650 -1.3984 -2.4823  3.0689
   42CHL1   H4B 5521   1.347   1.284   9.716  1.0635 -1.6920 -0.3454
   42CHL1    C5 5522   1.326   1.183   9.516 -0.0678 -0.9103  0.2394
   42CHL1    C6 5523   1.452   1.221   9.486  0.6383 -0.2506 -0.0218
   42CHL1    H6 5524   1.510   1.288   9.551 -1.2809  0.2062  1.2921
   42CHL1    C7 5525   1.520   1.160   9.365  0.0289 -0.7148 -0.1075
   42CHL1   H7A 5526   1.585   1.237   9.319 -0.6390 -0.9580 -1.5247
   42CHL1   H7B 5527   1.582   1.083   9.416 -1.7947 -1.5933  0.8715
   42CHL1    C8 5528   1.415   1.111   9.267 -0.5011 -0.0433 -0.3027
   42CHL1    H8 5529   1.368   1.197   9.215  1.7188  0.1174 -2.1553
   42CHL1   C14 5530   1.495   1.035   9.163  0.4468 -0.3248  0.0509
   42CHL1   H14 5531   1.536   0.948   9.218 -1.7281 -0.5657  1.3950
   42CHL1   C15 5532   1.601   1.121   9.089  0.9342 -0.3920  0.4295
   42CHL1  H15A 5533   1.580   1.229   9.079  0.1245 -0.3415  2.1984
   42CHL1  H15B 5534   1.699   1.108   9.140 -0.3379 -1.0586  2.8663
   42CHL1   C16 5535   1.605   1.054   8.950  0.3819 -0.4691 -0.4045
   42CHL1  H16A 5536   1.586   1.129   8.871 -0.5272  0.4692  0.6735
   42CHL1  H16B 5537   1.705   1.008   8.931 -0.5649 -2.0730 -1.7990
   42CHL1   C17 5538   1.499   0.944   8.936  0.1673  0.1962 -0.5928
   42CHL1   H17 5539   1.540   0.849   8.975 -4.7434 -1.7687  0.4622
   42CHL1   C13 5540   1.401   0.985   9.051  0.1306 -0.1108  0.7792
   42CHL1   C18 5541   1.321   1.096   8.975  0.5740 -0.3445  0.7535
   42CHL1  H18A 5542   1.385   1.179   8.937 -2.0853  0.6584 -1.8627
   42CHL1  H18B 5543   1.244   1.067   8.901  1.2987 -0.8170  0.1788
   42CHL1  H18C 5544   1.261   1.143   9.056  1.8777 -1.2616  2.3356
   42CHL1   C12 5545   1.310   0.875   9.119 -0.1901  0.0778 -0.2522
   42CHL1  H12A 5546   1.240   0.849   9.037 -0.7223 -0.9405  0.4993
   42CHL1  H12B 5547   1.365   0.786   9.157 -0.7353 -0.2042 -0.1162
   42CHL1   C11 5548   1.231   0.932   9.234  0.3985  0.4283 -0.4148
   42CHL1  H11A 5549   1.154   0.999   9.190  1.3264  2.0848  0.4095
   42CHL1  H11B 5550   1.184   0.846   9.287  0.4500  0.3259 -0.5357
   42CHL1    C9 5551   1.317   1.011   9.333 -0.4872  0.1329  0.2783
   42CHL1    H9 5552   1.390   0.941   9.380 -0.9518  1.3077  2.9590
   42CHL1   C10 5553   1.236   1.075   9.443  0.2389  0.6208  0.4580
   42CHL1   C19 5554   1.118   1.150   9.374 -0.6114 -0.3989 -0.1645
   42CHL1  H19A 5555   1.155   1.214   9.291 -0.0479 -1.2086 -0.5569
   42CHL1  H19B 5556   1.043   1.085   9.325 -0.8454 -0.7374  0.6272
   42CHL1  H19C 5557   1.056   1.210   9.444 -0.3341 -0.5772  0.2413
   42CHL1    C1 5558   1.172   0.973   9.544 -0.1230 -0.1561 -0.5709
   42CHL1   H1A 5559   1.076   0.942   9.498 -0.5215 -1.3800  0.9772
   42CHL1   H1B 5560   1.229   0.881   9.567  2.1303  1.2059 -0.3434
   42CHL1    C2 5561   1.124   1.031   9.680 -0.3204  0.0474 -0.3191
   42CHL1   H2A 5562   1.078   0.951   9.741 -1.7977  1.0152 -0.1405
   42CHL1   H2B 5563   1.044   1.103   9.655 -1.8756 -1.6083 -0.2864
   42CHL1   C20 5564   1.454   0.904   8.795 -0.5896  0.4867 -0.3460
   42CHL1   H20 5565   1.419   1.002   8.756 -0.6256  0.8356  0.5206
   42CHL1   C21 5566   1.346   0.794   8.794  0.1536 -0.6899 -0.2507
   42CHL1  H21A 5567   1.249   0.843   8.817  1.3267  1.7826 -0.1747
   42CHL1  H21B 5568   1.373   0.721   8.873  1.9838  0.8008  0.6011
   42CHL1  H21C 5569   1.344   0.749   8.693  2.0504 -0.1638 -0.5687
   42CHL1   C22 5570   1.582   0.866   8.718 -0.2933 -0.1852 -0.5791
   42CHL1  H22A 5571   1.654   0.951   8.725 -1.4583  0.7094  1.4580
   42CHL1  H22B 5572   1.620   0.772   8.762 -2.3590 -0.9496 -0.3132
   42CHL1   C23 5573   1.555   0.829   8.571 -0.2562  0.4023  0.1714
   42CHL1  H23A 5574   1.495   0.735   8.561  0.7627 -0.2303 -0.1435
   42CHL1  H23B 5575   1.495   0.912   8.528  0.8973  1.6940  1.0067
   42CHL1   C24 5576   1.676   0.794   8.483  0.1003  0.1773 -0.4235
   42CHL1  H24A 5577   1.754   0.871   8.469  0.1396 -0.1782 -2.5474
   42CHL1  H24B 5578   1.712   0.692   8.508  1.1700  1.0976  2.1270
   42CHL1   C25 5579   1.638   0.763   8.334 -0.2535  0.2306 -0.4591
   42CHL1   H25 5580   1.548   0.699   8.340 -1.0273  1.2166 -1.2904
   42CHL1   C26 5581   1.616   0.896   8.251  0.2173  0.0431  0.3737
   42CHL1  H26A 5582   1.621   0.862   8.145  1.2202  0.6067  0.2320
   42CHL1  H26B 5583   1.516   0.943   8.267 -0.3590 -1.3328  0.9785
   42CHL1  H26C 5584   1.699   0.969   8.257  0.0238  0.1461  2.5271
   42CHL1   C27 5585   1.741   0.672   8.275  0.6697 -0.3951  0.8324
   42CHL1  H27A 5586   1.765   0.580   8.332  0.4344 -1.8262 -1.2555
   42CHL1  H27B 5587   1.708   0.641   8.173  4.2740  0.4682 -0.7421
   42CHL1  H27C 5588   1.840   0.720   8.259  0.6602 -0.6727 -0.0969
   43CHL1    C3 5589   2.495   1.670   9.922 -0.3989 -0.8481 -0.1041
   43CHL1    H3 5590   2.413   1.740   9.947 -0.1997 -0.4048 -0.6761
   43CHL1    O3 5591   2.549   1.600  10.031  0.6331 -0.1481 -0.5544
   43CHL1   H3' 5592   2.641   1.590  10.007  0.3473  0.8633 -2.2045
   43CHL1    C4 5593   2.431   1.557   9.830 -0.1456 -0.3635  0.4359
   43CHL1   H4A 5594   2.505   1.475   9.819 -0.0437 -0.1884 -0.2813
   43CHL1   H4B 5595   2.342   1.520   9.885 -0.9081 -2.1227 -1.8068
   43CHL1    C5 5596   2.391   1.606   9.689  0.0694  0.3803 -0.0577
   43CHL1    C6 5597   2.266   1.582   9.644  0.9863 -0.4761 -0.7559
   43CHL1    H6 5598   2.188   1.527   9.699 -0.1901  0.7998 -1.0711
   43CHL1    C7 5599   2.218   1.619   9.512 -0.9535 -0.2701 -0.0465
   43CHL1   H7A 5600   2.161   1.542   9.456  1.0168 -0.5218 -1.8384
   43CHL1   H7B 5601   2.159   1.713   9.514 -0.8279 -0.1737 -0.6872
   43CHL1    C8 5602   2.333   1.669   9.419 -1.2801  0.4290 -0.1725
   43CHL1    H8 5603   2.380   1.575   9.384 -1.7972  0.7382 -1.7775
   43CHL1   C14 5604   2.283   1.749   9.297  0.2455  0.7125  0.4293
   43CHL1   H14 5605   2.227   1.830   9.348 -1.6608 -1.0384  1.2899
   43CHL1   C15 5606   2.175   1.674   9.211  0.0009 -0.4652  0.3699
   43CHL1  H15A 5607   2.202   1.567   9.199  0.6771 -0.2644  0.0619
   43CHL1  H15B 5608   2.075   1.677   9.258 -0.2133 -1.1014 -0.0449
   43CHL1   C16 5609   2.177   1.749   9.078 -0.3486  0.4940 -0.2679
   43CHL1  H16A 5610   2.204   1.672   9.003  0.4949  0.2357  0.2972
   43CHL1  H16B 5611   2.081   1.800   9.058 -0.8136 -0.0844  0.4395
   43CHL1   C17 5612   2.295   1.856   9.081  0.3333  0.5506  0.6040
   43CHL1   H17 5613   2.262   1.953   9.123 -0.3112  1.2574 -1.4455
   43CHL1   C13 5614   2.390   1.802   9.193  0.8119 -0.1286  0.1528
   43CHL1   C18 5615   2.476   1.689   9.148 -0.1648 -0.2116  0.1257
   43CHL1  H18A 5616   2.444   1.616   9.070  0.4065  0.3461 -0.6406
   43CHL1  H18B 5617   2.564   1.731   9.096 -0.9531  0.2092 -0.9157
   43CHL1  H18C 5618   2.525   1.624   9.224  0.3915 -2.0442 -1.7046
   43CHL1   C12 5619   2.471   1.906   9.278  0.7792  0.0779 -0.5994
   43CHL1  H12A 5620   2.555   1.936   9.212  1.0927 -1.1698 -0.8026
   43CHL1  H12B 5621   2.406   1.987   9.317  0.6726 -0.8468  1.2638
   43CHL1   C11 5622   2.536   1.836   9.400  0.1583 -0.2203 -0.0314
   43CHL1  H11A 5623   2.616   1.764   9.371  0.1689  0.2066 -1.0921
   43CHL1  H11B 5624   2.579   1.913   9.469 -1.0379  0.0415  0.4373
   43CHL1    C9 5625   2.434   1.754   9.496 -0.1368 -0.0992 -0.6004
   43CHL1    H9 5626   2.379   1.841   9.538  2.1445  1.5037 -0.7316
   43CHL1   C10 5627   2.502   1.682   9.612  0.4243  0.2955 -0.1024
   43CHL1   C19 5628   2.611   1.588   9.563 -0.3598  0.0698  0.2615
   43CHL1  H19A 5629   2.581   1.520   9.481 -1.0996 -0.2848  0.8114
   43CHL1  H19B 5630   2.699   1.641   9.521  1.4934 -2.9783 -0.0109
   43CHL1  H19C 5631   2.655   1.530   9.647 -0.1020  0.5433  0.4607
   43CHL1    C1 5632   2.573   1.786   9.705  0.1661 -0.0761  0.0658
   43CHL1   H1A 5633   2.664   1.828   9.658  1.3275 -0.7294  1.6528
   43CHL1   H1B 5634   2.510   1.878   9.709  0.5447  0.1654  0.6251
   43CHL1    C2 5635   2.612   1.732   9.845 -0.5813 -0.5320  0.2404
   43CHL1   H2A 5636   2.665   1.817   9.893 -0.4098 -0.7307  0.4054
   43CHL1   H2B 5637   2.690   1.656   9.824  0.2148 -0.2161  1.9223
   43CHL1   C20 5638   2.346   1.883   8.937 -0.5842  0.8104 -0.4599
   43CHL1   H20 5639   2.386   1.785   8.901  0.5511  1.6006 -1.4396
   43CHL1   C21 5640   2.464   1.980   8.944 -0.4509 -0.0797 -0.0609
   43CHL1  H21A 5641   2.496   1.997   8.838 -1.2590 -2.0788 -0.6775
   43CHL1  H21B 5642   2.551   1.940   9.000 -1.4446  1.1518  2.5051
   43CHL1  H21C 5643   2.437   2.079   8.986  0.2715 -0.0653  0.3907
   43CHL1   C22 5644   2.241   1.935   8.842 -0.4537 -0.2839 -0.2668
   43CHL1  H22A 5645   2.304   1.978   8.762  2.2955  0.2515  2.0126
   43CHL1  H22B 5646   2.175   1.856   8.800 -0.7290 -0.4225  0.4094
   43CHL1   C23 5647   2.147   2.056   8.883 -0.3310  0.1156 -0.3751
   43CHL1  H23A 5648   2.114   2.038   8.988 -2.9182  0.3670 -1.0803
   43CHL1  H23B 5649   2.207   2.149   8.874 -0.3508  0.2973  1.1744
   43CHL1   C24 5650   2.023   2.081   8.797  0.1065  0.3021  0.7833
   43CHL1  H24A 5651   2.051   2.062   8.692  2.4213  0.6369  1.2822
   43CHL1  H24B 5652   1.940   2.012   8.824 -1.1835  0.1763 -2.8994
   43CHL1   C25 5653   1.965   2.222   8.818  0.3032 -0.4647  0.2863
   43CHL1   H25 5654   2.044   2.289   8.778 -0.6483 -0.2283 -1.2677
   43CHL1   C26 5655   1.839   2.217   8.728  0.7742  0.0194  0.4846
   43CHL1  H26A 5656   1.859   2.187   8.623  0.3444  0.5933  0.2351
   43CHL1  H26B 5657   1.768   2.145   8.773 -0.6125  2.0079  1.6415
   43CHL1  H26C 5658   1.787   2.314   8.741 -1.2230 -0.9786  0.2683
   43CHL1   C27 5659   1.939   2.255   8.967  1.0311  0.6458  0.4154
   43CHL1  H27A 5660   1.911   2.361   8.985 -1.5817  0.2442 -0.8575
   43CHL1  H27B 5661   1.865   2.186   9.011  2.3813  0.4007  2.4108
   43CHL1  H27C 5662   2.031   2.236   9.027  0.2647 -0.1539  1.3562
   44CHL1    C3 5663   3.171   2.098  10.117 -0.7178 -0.2806  0.5693
   44CHL1    H3 5664   3.113   2.003  10.110  1.5618 -1.8124  1.4450
   44CHL1    O3 5665   3.198   2.124  10.250 -0.2502  0.6582 -0.6991
   44CHL1   H3' 5666   3.209   2.040  10.295 -0.9629  1.3431  0.7945
   44CHL1    C4 5667   3.299   2.065  10.037 -0.9413 -0.1552  0.2135
   44CHL1   H4A 5668   3.383   2.127  10.072  2.3605 -2.5665 -2.7213
   44CHL1   H4B 5669   3.325   1.959  10.060 -0.0128  0.1282  0.5020
   44CHL1    C5 5670   3.292   2.077   9.888  0.3451 -0.5938  0.1415
   44CHL1    C6 5671   3.361   1.994   9.809  0.6204 -0.0195 -0.4919
   44CHL1    H6 5672   3.418   1.914   9.859  0.7217  1.5333  2.0577
   44CHL1    C7 5673   3.359   1.993   9.664  0.6825 -0.0379  0.1250
   44CHL1   H7A 5674   3.459   1.957   9.632  0.4765 -1.9063  1.3992
   44CHL1   H7B 5675   3.279   1.925   9.628  1.8938 -0.3679 -2.0613
   44CHL1    C8 5676   3.312   2.130   9.608 -0.7815  0.4101  0.8985
   44CHL1    H8 5677   3.397   2.199   9.628  0.3352 -0.7240  0.2114
   44CHL1   C14 5678   3.287   2.126   9.459  0.9296  1.0875 -0.8162
   44CHL1   H14 5679   3.201   2.056   9.447  0.2919  1.7397 -0.2089
   44CHL1   C15 5680   3.387   2.052   9.365  0.1058  0.2513  0.6723
   44CHL1  H15A 5681   3.491   2.071   9.398  0.0611  0.8497  0.4807
   44CHL1  H15B 5682   3.382   1.941   9.364  0.6241  0.2271 -0.1669
   44CHL1   C16 5683   3.357   2.110   9.225  0.5836  0.5642 -0.6720
   44CHL1  H16A 5684   3.439   2.178   9.194  0.5172  1.4620  1.0215
   44CHL1  H16B 5685   3.322   2.033   9.152 -0.5382  1.0951 -0.7164
   44CHL1   C17 5686   3.237   2.211   9.243  0.3138 -0.6599  0.4092
   44CHL1   H17 5687   3.144   2.150   9.231  1.0882 -1.5429 -1.6175
   44CHL1   C13 5688   3.240   2.251   9.389 -0.2042 -0.2472 -0.9640
   44CHL1   C18 5689   3.367   2.341   9.404 -0.5036  0.0346  0.2574
   44CHL1  H18A 5690   3.387   2.378   9.507  0.5637  2.0578 -0.6205
   44CHL1  H18B 5691   3.467   2.299   9.380 -0.3135  0.1805  0.7774
   44CHL1  H18C 5692   3.345   2.435   9.348 -0.6383 -0.5379 -0.6830
   44CHL1   C12 5693   3.119   2.300   9.462 -0.1054 -0.2024 -0.4182
   44CHL1  H12A 5694   3.081   2.399   9.429  0.6343  0.5471  0.9186
   44CHL1  H12B 5695   3.041   2.222   9.448 -2.0864  0.9992  2.7673
   44CHL1   C11 5696   3.130   2.308   9.617 -0.1032  0.6108 -1.0736
   44CHL1  H11A 5697   3.193   2.397   9.639  0.2840  0.0873  0.0121
   44CHL1  H11B 5698   3.026   2.324   9.655 -1.7166 -2.8590 -3.5236
   44CHL1    C9 5699   3.187   2.178   9.680  0.0791 -0.0211 -0.4336
   44CHL1    H9 5700   3.118   2.091   9.669  1.3882 -1.0729 -0.6183
   44CHL1   C10 5701   3.210   2.197   9.832 -0.1333  0.0681 -0.9712
   44CHL1   C19 5702   3.308   2.316   9.865 -0.1094  0.2939 -0.4330
   44CHL1  H19A 5703   3.267   2.416   9.840 -1.9448  0.1239  1.6515
   44CHL1  H19B 5704   3.342   2.319   9.971  0.4108 -0.0314 -0.5894
   44CHL1  H19C 5705   3.401   2.312   9.804  0.5275 -0.3540  0.5553
   44CHL1    C1 5706   3.077   2.218   9.911  0.6265  0.1796 -0.7282
   44CHL1   H1A 5707   3.041   2.320   9.885 -0.6396  0.9689  3.4541
   44CHL1   H1B 5708   2.992   2.149   9.894 -0.9516  2.3811 -2.3496
   44CHL1    C2 5709   3.087   2.217  10.061 -0.1711  0.5090  0.3969
   44CHL1   H2A 5710   2.986   2.228  10.106 -0.1812 -0.7595  0.7125
   44CHL1   H2B 5711   3.127   2.315  10.094 -2.7649  1.0683  2.2539
   44CHL1   C20 5712   3.233   2.306   9.121 -0.5531 -0.4763 -0.4820
   44CHL1   H20 5713   3.330   2.360   9.129 -1.7841  1.7782  0.0645
   44CHL1   C21 5714   3.125   2.405   9.151 -0.4048 -0.0538 -0.5147
   44CHL1  H21A 5715   3.104   2.486   9.078  1.8607  1.3386  0.2851
   44CHL1  H21B 5716   3.154   2.451   9.248  2.1014 -0.0395 -1.2064
   44CHL1  H21C 5717   3.028   2.351   9.159 -1.5542  1.9171 -0.4976
   44CHL1   C22 5718   3.219   2.239   8.983 -0.1257 -0.0687 -0.6986
   44CHL1  H22A 5719   3.304   2.170   8.965 -0.3492 -0.7573  0.7333
   44CHL1  H22B 5720   3.123   2.183   8.987  0.4428 -0.9570  1.3302
   44CHL1   C23 5721   3.218   2.348   8.876 -0.7246 -0.8028  0.3811
   44CHL1  H23A 5722   3.119   2.397   8.867 -0.0180  0.4213 -1.0269
   44CHL1  H23B 5723   3.292   2.425   8.905 -1.0739  0.3748 -1.7121
   44CHL1   C24 5724   3.242   2.289   8.739  0.0260 -0.1733  0.2091
   44CHL1  H24A 5725   3.351   2.274   8.725  0.4263  0.0936  2.5289
   44CHL1  H24B 5726   3.184   2.195   8.734 -1.2057  0.6384 -1.6995
   44CHL1   C25 5727   3.179   2.382   8.626  0.4304  0.2310  0.5201
   44CHL1   H25 5728   3.072   2.396   8.655  0.1352 -0.5907 -0.1191
   44CHL1   C26 5729   3.260   2.512   8.621  0.0402  0.6851 -0.4028
   44CHL1  H26A 5730   3.367   2.485   8.618  0.0651  0.6208  0.9183
   44CHL1  H26B 5731   3.245   2.562   8.523  0.1760  0.7617 -0.3839
   44CHL1  H26C 5732   3.232   2.582   8.702 -2.7034 -2.0925  1.2994
   44CHL1   C27 5733   3.185   2.305   8.494  0.1231  0.0272 -1.3596
   44CHL1  H27A 5734   3.136   2.365   8.414 -0.1423  1.1640 -0.3779
   44CHL1  H27B 5735   3.290   2.292   8.462 -0.3780 -0.5427 -2.8653
   44CHL1  H27C 5736   3.137   2.206   8.508 -2.2890  1.2938 -0.0748
   45CHL1    C3 5737   5.640   6.705  10.091  0.3773 -1.3625 -0.3549
   45CHL1    H3 5738   5.554   6.646  10.129 -0.3885  0.3489  0.7017
   45CHL1    O3 5739   5.693   6.732  10.215 -0.3785 -0.1308 -0.4417
   45CHL1   H3' 5740   5.628   6.734  10.285 -0.7931  0.8149 -0.8326
   45CHL1    C4 5741   5.729   6.622  10.002 -0.2896  0.3530  0.1282
   45CHL1   H4A 5742   5.819   6.686   9.985 -0.9792  1.3970  0.3488
   45CHL1   H4B 5743   5.761   6.527  10.050  1.5270 -0.8446 -3.1330
   45CHL1    C5 5744   5.663   6.595   9.869 -0.1580 -0.4559 -0.0767
   45CHL1    C6 5745   5.643   6.471   9.825 -0.1277  0.5566 -0.7667
   45CHL1    H6 5746   5.696   6.391   9.879 -3.0307  0.0298  1.5830
   45CHL1    C7 5747   5.558   6.426   9.712 -0.6395  0.0212  0.3895
   45CHL1   H7A 5748   5.604   6.339   9.660  0.0956  0.5375  0.1748
   45CHL1   H7B 5749   5.466   6.385   9.759  0.3632  0.4417  2.8442
   45CHL1    C8 5750   5.511   6.541   9.621  0.2361 -0.2771 -0.2887
   45CHL1    H8 5751   5.414   6.518   9.572  0.7731  0.3035 -1.6577
   45CHL1   C14 5752   5.603   6.575   9.508 -0.0306  0.1152 -0.0456
   45CHL1   H14 5753   5.705   6.579   9.551 -1.0164 -2.6736  2.9925
   45CHL1   C15 5754   5.596   6.455   9.398  0.1468 -0.1061 -0.4467
   45CHL1  H15A 5755   5.700   6.436   9.365 -0.0657 -0.7525 -0.7514
   45CHL1  H15B 5756   5.565   6.362   9.451  0.0479  0.0602 -0.2089
   45CHL1   C16 5757   5.520   6.499   9.279  0.1195 -0.3917  0.4350
   45CHL1  H16A 5758   5.591   6.506   9.193 -0.2617  2.1433  0.2424
   45CHL1  H16B 5759   5.433   6.435   9.254  0.2934 -0.0501 -1.1520
   45CHL1   C17 5760   5.464   6.642   9.315 -1.4338  0.7025 -0.1515
   45CHL1   H17 5761   5.371   6.619   9.373 -1.4544  4.4362  1.6312
   45CHL1   C13 5762   5.571   6.694   9.416  0.3115  0.3011 -0.0756
   45CHL1   C18 5763   5.702   6.733   9.338 -0.4187  0.8062  0.3731
   45CHL1  H18A 5764   5.681   6.829   9.285  1.8795  1.2617  0.1572
   45CHL1  H18B 5765   5.788   6.747   9.407 -0.2343 -0.4637  0.4262
   45CHL1  H18C 5766   5.730   6.647   9.273  0.1086 -0.1738  1.8514
   45CHL1   C12 5767   5.520   6.813   9.506 -0.6465 -0.2121 -0.1300
   45CHL1  H12A 5768   5.602   6.886   9.525 -0.1292 -1.1013  1.1728
   45CHL1  H12B 5769   5.456   6.873   9.438  0.6258 -0.2708 -1.4437
   45CHL1   C11 5770   5.436   6.779   9.623 -0.7375 -0.1116  0.1082
   45CHL1  H11A 5771   5.402   6.870   9.676 -2.4371  1.3233 -3.1949
   45CHL1  H11B 5772   5.340   6.739   9.583 -0.8424  0.3897 -0.1468
   45CHL1    C9 5773   5.486   6.666   9.710 -0.0488  0.1547  0.1956
   45CHL1    H9 5774   5.398   6.631   9.769 -2.2910  1.8965 -1.8986
   45CHL1   C10 5775   5.595   6.711   9.809 -0.2707 -0.0899  1.1085
   45CHL1   C19 5776   5.703   6.807   9.755  0.0865 -0.5677  0.2440
   45CHL1  H19A 5777   5.785   6.829   9.827 -1.5590 -1.5375  2.5462
   45CHL1  H19B 5778   5.763   6.761   9.673  1.6720  0.1135  0.9775
   45CHL1  H19C 5779   5.660   6.906   9.731 -0.4263 -1.0312 -0.8127
   45CHL1    C1 5780   5.511   6.795   9.911  0.6900  0.6096  0.9550
   45CHL1   H1A 5781   5.456   6.882   9.869  2.0897  0.3929 -1.4837
   45CHL1   H1B 5782   5.427   6.730   9.944  0.8809 -0.2106 -0.1379
   45CHL1    C2 5783   5.600   6.835  10.026  0.6953 -0.3455  0.8160
   45CHL1   H2A 5784   5.542   6.894  10.100  1.2789  2.5170 -0.8606
   45CHL1   H2B 5785   5.679   6.908  10.002 -1.3043  1.6176 -0.1691
   45CHL1   C20 5786   5.428   6.743   9.203 -0.2324  0.1823  0.1266
   45CHL1   H20 5787   5.455   6.846   9.234 -2.1199 -0.1229  3.2079
   45CHL1   C21 5788   5.279   6.762   9.195  0.1289  0.7213  0.1301
   45CHL1  H21A 5789   5.250   6.844   9.126  0.8487  0.8659 -0.0064
   45CHL1  H21B 5790   5.239   6.797   9.293  0.4783  0.3320  0.4145
   45CHL1  H21C 5791   5.234   6.667   9.158 -1.9746  1.7675 -0.1374
   45CHL1   C22 5792   5.495   6.720   9.068  0.4032  0.2812 -0.2281
   45CHL1  H22A 5793   5.604   6.740   9.080  0.3298  0.3366  0.3527
   45CHL1  H22B 5794   5.497   6.613   9.038  0.5090  0.5581 -1.2485
   45CHL1   C23 5795   5.445   6.816   8.951  0.3526 -0.1204 -0.4080
   45CHL1  H23A 5796   5.342   6.778   8.934 -0.2249  1.2314 -0.0144
   45CHL1  H23B 5797   5.437   6.920   8.988 -0.6207 -0.7858  1.3603
   45CHL1   C24 5798   5.537   6.805   8.823  0.1363 -0.3814  0.4406
   45CHL1  H24A 5799   5.644   6.800   8.853  0.2273 -1.7887 -0.0153
   45CHL1  H24B 5800   5.523   6.707   8.772 -0.5829 -0.7767  1.3593
   45CHL1   C25 5801   5.489   6.911   8.728 -0.6575 -0.4382 -0.6455
   45CHL1   H25 5802   5.472   7.001   8.792  1.8236  1.6065 -2.6527
   45CHL1   C26 5803   5.596   6.935   8.622  0.2343  0.2320 -0.3606
   45CHL1  H26A 5804   5.631   6.838   8.581  0.8043  0.4341 -0.3515
   45CHL1  H26B 5805   5.554   6.991   8.535 -1.1104 -2.8303 -1.8455
   45CHL1  H26C 5806   5.684   6.995   8.654  1.1668  0.9630 -3.8407
   45CHL1   C27 5807   5.362   6.864   8.656  0.7189  0.1968 -0.1661
   45CHL1  H27A 5808   5.359   6.932   8.569  3.0564  1.3503  0.5863
   45CHL1  H27B 5809   5.365   6.760   8.618  1.1349  0.1755 -0.0761
   45CHL1  H27C 5810   5.264   6.867   8.709  0.1849 -1.4803 -0.9706
   46CHL1    C3 5811   2.071   4.869   9.963 -0.3448 -0.2112 -0.4208
   46CHL1    H3 5812   1.962   4.854   9.965 -0.4137 -0.2593  3.7593
   46CHL1    O3 5813   2.112   4.901  10.097 -0.1078 -0.2321  0.0696
   46CHL1   H3' 5814   2.197   4.945  10.099 -0.1193 -0.1738 -0.5938
   46CHL1    C4 5815   2.146   4.746   9.914  0.5956  0.1398  1.0801
   46CHL1   H4A 5816   2.254   4.765   9.925  0.1957  3.3412  0.5402
   46CHL1   H4B 5817   2.127   4.659   9.979 -2.0179 -0.6312 -0.5492
   46CHL1    C5 5818   2.121   4.721   9.768  0.0632  0.4974  0.2444
   46CHL1    C6 5819   2.070   4.604   9.725 -0.1175 -0.4959 -0.3062
   46CHL1    H6 5820   2.042   4.544   9.812  0.9033  1.2268  1.2753
   46CHL1    C7 5821   2.040   4.578   9.578 -0.1622 -0.3253 -0.1417
   46CHL1   H7A 5822   2.071   4.473   9.559  0.5027 -1.0118  3.7614
   46CHL1   H7B 5823   1.932   4.597   9.558  0.4245  0.4174 -2.8887
   46CHL1    C8 5824   2.121   4.662   9.481 -0.6238 -0.3651 -0.0605
   46CHL1    H8 5825   2.223   4.620   9.475 -0.6863 -0.5771  0.3057
   46CHL1   C14 5826   2.050   4.651   9.344 -0.0885  0.0746  0.8400
   46CHL1   H14 5827   1.951   4.695   9.371 -0.6341 -1.2333  1.0243
   46CHL1   C15 5828   2.014   4.514   9.281 -0.1453  0.2106  0.1923
   46CHL1  H15A 5829   2.096   4.439   9.292  1.5448  1.5078 -2.5931
   46CHL1  H15B 5830   1.921   4.474   9.327 -0.4970  1.0939  0.2629
   46CHL1   C16 5831   1.985   4.540   9.127 -0.4189 -0.3941 -0.2763
   46CHL1  H16A 5832   2.067   4.485   9.075 -0.3148  0.9163 -1.5542
   46CHL1  H16B 5833   1.886   4.501   9.095  0.4017 -1.9209 -1.0858
   46CHL1   C17 5834   2.017   4.696   9.114  0.4336  0.2958 -0.9259
   46CHL1   H17 5835   1.927   4.756   9.138  1.6023  1.7090  0.0750
   46CHL1   C13 5836   2.111   4.737   9.229  0.0707 -0.2280 -0.1891
   46CHL1   C18 5837   2.255   4.687   9.198  0.6261  0.4746 -0.5508
   46CHL1  H18A 5838   2.315   4.707   9.290  0.0502  1.2647 -0.3417
   46CHL1  H18B 5839   2.258   4.577   9.188 -1.7177  0.4879 -1.9492
   46CHL1  H18C 5840   2.291   4.740   9.108  0.5074  2.5294  0.5513
   46CHL1   C12 5841   2.114   4.887   9.277  0.4851 -0.4268  0.4767
   46CHL1  H12A 5842   2.169   4.963   9.218  0.1489  0.1267  0.8686
   46CHL1  H12B 5843   2.010   4.927   9.279  0.7820  0.6792 -2.3131
   46CHL1   C11 5844   2.168   4.913   9.421  0.0513  0.1851  0.0944
   46CHL1  H11A 5845   2.278   4.900   9.406 -0.3043 -1.1789 -1.5423
   46CHL1  H11B 5846   2.139   5.016   9.453 -0.8600  0.3491 -1.2000
   46CHL1    C9 5847   2.106   4.810   9.526 -0.6363  0.3260  0.2471
   46CHL1    H9 5848   1.997   4.832   9.517 -0.1869  2.8008  0.1785
   46CHL1   C10 5849   2.147   4.839   9.673 -0.4165 -0.0994 -0.3668
   46CHL1   C19 5850   2.303   4.852   9.674  0.1616  0.4205  0.1047
   46CHL1  H19A 5851   2.346   4.937   9.616 -0.3288  1.4410  1.2033
   46CHL1  H19B 5852   2.340   4.863   9.778 -1.5043  0.7715  0.6978
   46CHL1  H19C 5853   2.349   4.761   9.630  0.7757  1.2348 -1.0185
   46CHL1    C1 5854   2.077   4.965   9.723  0.3137  0.2629 -0.2276
   46CHL1   H1A 5855   2.114   5.044   9.654  0.4003  1.5262  1.2127
   46CHL1   H1B 5856   1.967   4.971   9.720  0.3484  2.8732  0.9478
   46CHL1    C2 5857   2.111   4.992   9.872  0.1802  0.3770  0.6650
   46CHL1   H2A 5858   2.065   5.083   9.916  1.7250  0.6041  1.9177
   46CHL1   H2B 5859   2.219   5.012   9.889  0.0955  0.7527  0.7492
   46CHL1   C20 5860   2.051   4.722   8.961 -0.4178 -1.0131  0.0621
   46CHL1   H20 5861   2.152   4.678   8.950 -0.2278 -1.3937  2.7173
   46CHL1   C21 5862   2.047   4.871   8.936  0.2032  0.6552  0.1553
   46CHL1  H21A 5863   2.081   4.880   8.831  1.3043 -2.5618  0.1077
   46CHL1  H21B 5864   2.125   4.912   9.004  2.1713 -0.5319 -1.2562
   46CHL1  H21C 5865   1.950   4.921   8.957  0.1422  1.3458 -1.5976
   46CHL1   C22 5866   1.965   4.642   8.861  0.6837  0.3249  0.8037
   46CHL1  H22A 5867   1.970   4.533   8.882 -2.7525  0.0390  0.8120
   46CHL1  H22B 5868   1.860   4.669   8.887  0.1544 -2.2232  1.6109
   46CHL1   C23 5869   1.983   4.664   8.711 -0.0085  0.5298  0.2544
   46CHL1  H23A 5870   1.898   4.627   8.651  1.4755 -0.7195 -1.1710
   46CHL1  H23B 5871   1.992   4.773   8.692 -1.0878  0.5175 -0.3936
   46CHL1   C24 5872   2.102   4.580   8.664 -0.1474  0.3622 -0.4102
   46CHL1  H24A 5873   2.192   4.612   8.720  0.1438 -1.7351  0.4323
   46CHL1  H24B 5874   2.091   4.471   8.685  0.5642 -0.0108 -1.8571
   46CHL1   C25 5875   2.127   4.603   8.514  0.3165  0.8439  0.2906
   46CHL1   H25 5876   2.034   4.587   8.456  1.5511  1.2383 -1.9117
   46CHL1   C26 5877   2.181   4.743   8.477  0.1973 -0.8940  0.6351
   46CHL1  H26A 5878   2.275   4.761   8.535 -0.2102 -1.1074  1.3823
   46CHL1  H26B 5879   2.195   4.749   8.367  0.6762 -0.9705  0.6910
   46CHL1  H26C 5880   2.101   4.812   8.512  2.0397  2.3943 -1.0653
   46CHL1   C27 5881   2.235   4.505   8.470 -0.1953 -0.1983 -0.0918
   46CHL1  H27A 5882   2.260   4.526   8.364  2.4211 -0.2749  0.4335
   46CHL1  H27B 5883   2.331   4.515   8.525 -0.1235 -0.4641 -0.1659
   46CHL1  H27C 5884   2.191   4.404   8.484  1.2350 -1.1909 -2.1840
   47CHL1    C3 5885   2.125   1.121   9.883 -0.2140  0.5197  0.0557
   47CHL1    H3 5886   2.050   1.201   9.866  0.5323  1.5031  1.2051
   47CHL1    O3 5887   2.127   1.082  10.018  0.4581 -0.2177 -0.2352
   47CHL1   H3' 5888   2.210   1.038  10.033  0.9578  1.6880  3.7918
   47CHL1    C4 5889   2.100   0.992   9.808  0.7398 -1.1348 -0.0983
   47CHL1   H4A 5890   2.169   0.910   9.837  2.5973  0.9005  1.5029
   47CHL1   H4B 5891   2.000   0.960   9.844  0.3115 -1.0479 -1.1570
   47CHL1    C5 5892   2.092   1.012   9.660 -0.0511  0.0037 -0.0020
   47CHL1    C6 5893   1.982   0.982   9.592 -0.6375 -0.2876 -0.2000
   47CHL1    H6 5894   1.905   0.920   9.641  0.2894 -0.2424  1.3994
   47CHL1    C7 5895   1.967   1.011   9.445  0.8322 -0.1759  0.2553
   47CHL1   H7A 5896   1.917   0.922   9.402  0.7842 -0.7211  1.4033
   47CHL1   H7B 5897   1.897   1.092   9.413  2.0736  1.1727  0.8225
   47CHL1    C8 5898   2.103   1.051   9.372 -0.6534  0.4087 -0.4485
   47CHL1    H8 5899   2.149   0.951   9.359 -2.3939 -0.2737 -1.8349
   47CHL1   C14 5900   2.081   1.117   9.241 -0.3411 -0.1558  0.2255
   47CHL1   H14 5901   2.028   1.213   9.256 -1.7695 -0.7210 -0.9857
   47CHL1   C15 5902   2.009   1.032   9.142  0.0494  0.9663  0.0299
   47CHL1  H15A 5903   2.056   0.931   9.146  1.3503  1.5208 -0.7677
   47CHL1  H15B 5904   1.898   1.034   9.149 -0.1570 -1.6273 -1.1182
   47CHL1   C16 5905   2.050   1.103   9.007  0.1588  0.4269  0.3730
   47CHL1  H16A 5906   2.079   1.023   8.934  0.4327 -0.1442  1.0998
   47CHL1  H16B 5907   1.964   1.154   8.958 -2.6353 -1.4921  2.8938
   47CHL1   C17 5908   2.166   1.197   9.038  0.4782 -0.1934 -1.2884
   47CHL1   H17 5909   2.122   1.296   9.063 -1.6825 -1.1517 -1.0203
   47CHL1   C13 5910   2.213   1.152   9.178  0.0928 -0.6572 -0.1136
   47CHL1   C18 5911   2.311   1.034   9.154  0.2756  0.3027 -0.0184
   47CHL1  H18A 5912   2.262   0.961   9.087 -2.9110  1.7415  0.5215
   47CHL1  H18B 5913   2.397   1.075   9.097  0.9007 -0.1205  0.5954
   47CHL1  H18C 5914   2.344   0.978   9.244 -2.4348 -0.5999  0.4945
   47CHL1   C12 5915   2.281   1.264   9.259  0.5565  0.1375 -0.4914
   47CHL1  H12A 5916   2.381   1.294   9.222  0.7112  1.7811  1.0917
   47CHL1  H12B 5917   2.210   1.349   9.257 -0.5255 -0.7526 -0.9334
   47CHL1   C11 5918   2.301   1.219   9.403 -0.3074  0.2800 -0.0879
   47CHL1  H11A 5919   2.399   1.170   9.422  0.4623  1.9762  0.4212
   47CHL1  H11B 5920   2.310   1.317   9.453  1.7761 -0.1226  0.4075
   47CHL1    C9 5921   2.175   1.150   9.462  0.0723  1.0107 -0.5950
   47CHL1    H9 5922   2.102   1.230   9.484  0.9995  1.0472  2.8236
   47CHL1   C10 5923   2.206   1.086   9.602 -0.2335 -0.4676 -0.1098
   47CHL1   C19 5924   2.314   0.972   9.587  0.0705  0.3114  0.6993
   47CHL1  H19A 5925   2.282   0.887   9.522  2.2981  0.2185 -0.3375
   47CHL1  H19B 5926   2.407   1.019   9.549  0.2512  1.4230  2.4029
   47CHL1  H19C 5927   2.336   0.935   9.689  2.0941 -0.6321 -0.0396
   47CHL1    C1 5928   2.266   1.204   9.687 -0.5257 -0.4537  0.7235
   47CHL1   H1A 5929   2.376   1.207   9.669 -0.6502 -1.5687 -0.3745
   47CHL1   H1B 5930   2.217   1.302   9.672 -0.1264 -0.3770 -0.1484
   47CHL1    C2 5931   2.261   1.182   9.841 -0.2442  0.6932  0.3146
   47CHL1   H2A 5932   2.276   1.273   9.903 -1.8839  0.4849  1.0644
   47CHL1   H2B 5933   2.343   1.112   9.866 -1.9826 -2.3611 -1.9200
   47CHL1   C20 5934   2.262   1.234   8.931 -0.5042  0.6989  0.8047
   47CHL1   H20 5935   2.359   1.260   8.978 -0.4176  3.5749 -0.7613
   47CHL1   C21 5936   2.223   1.373   8.876 -0.5420 -0.2060 -0.0667
   47CHL1  H21A 5937   2.122   1.381   8.829 -0.6150 -1.2518 -0.1149
   47CHL1  H21B 5938   2.301   1.401   8.802 -1.1517  1.3810 -0.1538
   47CHL1  H21C 5939   2.213   1.443   8.962  0.0950  0.7514 -0.7471
   47CHL1   C22 5940   2.292   1.133   8.814  0.1943 -0.6034 -0.2050
   47CHL1  H22A 5941   2.284   1.030   8.856 -3.0191  0.0729  1.1311
   47CHL1  H22B 5942   2.204   1.147   8.748 -0.0618 -0.3138  0.1971
   47CHL1   C23 5943   2.419   1.158   8.743  0.0468 -0.4825  0.5156
   47CHL1  H23A 5944   2.424   1.267   8.722  0.0846 -0.4624  0.6305
   47CHL1  H23B 5945   2.502   1.130   8.811  1.2216  1.0106 -0.2463
   47CHL1   C24 5946   2.433   1.085   8.615 -0.2529 -0.0599  0.2298
   47CHL1  H24A 5947   2.430   0.974   8.627 -3.1993 -0.2197 -1.1229
   47CHL1  H24B 5948   2.345   1.104   8.550  0.3693  3.4478  0.2195
   47CHL1   C25 5949   2.562   1.130   8.539 -0.4353 -0.2755  0.2080
   47CHL1   H25 5950   2.644   1.123   8.614 -0.8303 -1.4531  0.5550
   47CHL1   C26 5951   2.588   1.030   8.436 -0.9437 -0.1569  0.3376
   47CHL1  H26A 5952   2.502   1.003   8.371  0.7211  0.0783 -2.0904
   47CHL1  H26B 5953   2.633   0.943   8.488  0.2656  0.7323  0.8202
   47CHL1  H26C 5954   2.673   1.059   8.371 -0.1306 -0.2839  1.3202
   47CHL1   C27 5955   2.560   1.269   8.468 -0.5057 -0.7046 -0.1936
   47CHL1  H27A 5956   2.655   1.285   8.413 -0.3148  0.1060  0.3455
   47CHL1  H27B 5957   2.472   1.286   8.402 -0.5622 -1.1355 -0.2315
   47CHL1  H27C 5958   2.553   1.357   8.536  1.8089 -0.4565 -0.2016
   48CHL1    C3 5959   3.413   1.378   9.934 -0.2063 -1.0098  0.5260
   48CHL1    H3 5960   3.522   1.380   9.910 -0.2578 -0.3295  0.3110
   48CHL1    O3 5961   3.402   1.379  10.077 -0.3902  0.4459 -0.1866
   48CHL1   H3' 5962   3.391   1.471  10.101 -2.1012  0.1377  0.3408
   48CHL1    C4 5963   3.346   1.497   9.865  0.7262 -0.3366 -0.0526
   48CHL1   H4A 5964   3.241   1.512   9.898  0.4509  2.2846 -1.8867
   48CHL1   H4B 5965   3.398   1.587   9.904  0.9263 -0.2830 -0.4443
   48CHL1    C5 5966   3.359   1.498   9.715  0.3612  0.5287 -0.2884
   48CHL1    C6 5967   3.410   1.609   9.653 -0.2552 -0.4286 -0.4951
   48CHL1    H6 5968   3.447   1.700   9.703  0.9910 -0.7531 -0.7925
   48CHL1    C7 5969   3.413   1.623   9.500 -0.7794  0.5425 -0.0269
   48CHL1   H7A 5970   3.381   1.715   9.447  1.9912  0.2859 -2.3980
   48CHL1   H7B 5971   3.517   1.605   9.465 -1.2223 -2.9880  0.0542
   48CHL1    C8 5972   3.313   1.517   9.435  0.1196  0.1707  0.1474
   48CHL1    H8 5973   3.208   1.551   9.452 -0.1636 -0.0651 -1.0187
   48CHL1   C14 5974   3.348   1.497   9.285  0.3776 -0.0401 -0.5308
   48CHL1   H14 5975   3.455   1.468   9.290  0.5912  0.8849  0.7202
   48CHL1   C15 5976   3.346   1.626   9.198  0.4379  0.0618  0.4596
   48CHL1  H15A 5977   3.253   1.683   9.216  0.4549  0.8919 -1.7589
   48CHL1  H15B 5978   3.437   1.689   9.203 -1.0882  2.5462 -0.8007
   48CHL1   C16 5979   3.347   1.572   9.054  0.1606 -0.5791 -0.9750
   48CHL1  H16A 5980   3.253   1.611   9.009  0.2927  0.0312 -0.7400
   48CHL1  H16B 5981   3.429   1.623   8.998 -1.4112  0.7086 -2.2352
   48CHL1   C17 5982   3.338   1.419   9.063 -0.4050  0.5471 -0.3428
   48CHL1   H17 5983   3.443   1.386   9.077 -0.1759  0.7467 -1.4946
   48CHL1   C13 5984   3.272   1.385   9.202  0.3232 -0.0462 -0.1351
   48CHL1   C18 5985   3.113   1.426   9.203  0.0112 -0.5024  0.3334
   48CHL1  H18A 5986   3.077   1.456   9.303 -2.2603  3.1243 -1.3326
   48CHL1  H18B 5987   3.098   1.517   9.140  0.7377 -1.1185 -0.7724
   48CHL1  H18C 5988   3.052   1.345   9.157  0.2981 -1.1792  1.1324
   48CHL1   C12 5989   3.295   1.251   9.275 -0.3009 -0.1027 -0.2751
   48CHL1  H12A 5990   3.255   1.161   9.224  1.5120 -0.9498 -0.2698
   48CHL1  H12B 5991   3.399   1.211   9.281 -0.0468  0.7410  1.6494
   48CHL1   C11 5992   3.246   1.263   9.423  0.0253  0.0047 -0.1613
   48CHL1  H11A 5993   3.135   1.266   9.424 -0.0135 -0.8848 -0.4205
   48CHL1  H11B 5994   3.266   1.168   9.478 -0.0674  0.3290  0.4359
   48CHL1    C9 5995   3.325   1.376   9.500  0.6749  0.1603 -0.0439
   48CHL1    H9 5996   3.430   1.341   9.492  0.5901 -0.3016  0.7586
   48CHL1   C10 5997   3.301   1.375   9.659 -0.5886  0.2906  0.0727
   48CHL1   C19 5998   3.142   1.372   9.676 -0.2540  0.0418 -0.5216
   48CHL1  H19A 5999   3.108   1.268   9.655 -0.3854  0.0580 -0.3895
   48CHL1  H19B 6000   3.125   1.377   9.786  1.7085 -3.0539  0.0520
   48CHL1  H19C 6001   3.082   1.448   9.623 -0.2533  0.6745  0.3635
   48CHL1    C1 6002   3.358   1.245   9.727  0.2054  0.3209  0.2901
   48CHL1   H1A 6003   3.303   1.153   9.698  1.1445 -1.2859  3.1970
   48CHL1   H1B 6004   3.458   1.228   9.682 -1.2290 -1.2501 -2.5638
   48CHL1    C2 6005   3.353   1.249   9.881  0.5138  0.0307 -0.0825
   48CHL1   H2A 6006   3.414   1.161   9.912  2.0441  0.7210 -1.0093
   48CHL1   H2B 6007   3.249   1.240   9.918  0.4179  0.0535 -0.3453
   48CHL1   C20 6008   3.278   1.355   8.933  0.0321 -0.0975  0.5889
   48CHL1   H20 6009   3.179   1.402   8.917  0.0493 -0.9117 -2.3383
   48CHL1   C21 6010   3.245   1.204   8.948 -0.2949 -0.3371 -0.0816
   48CHL1  H21A 6011   3.333   1.142   8.975 -0.9621 -0.7975  1.0920
   48CHL1  H21B 6012   3.189   1.180   8.855  1.5380 -1.7565 -0.8815
   48CHL1  H21C 6013   3.169   1.196   9.028  0.3069  0.6711  0.6221
   48CHL1   C22 6014   3.366   1.388   8.808 -0.0332  0.1228 -0.7908
   48CHL1  H22A 6015   3.369   1.498   8.791 -0.6583  0.0841 -1.1857
   48CHL1  H22B 6016   3.468   1.344   8.806  0.3915  1.0895 -2.2856
   48CHL1   C23 6017   3.309   1.319   8.675 -0.6738 -0.5277  0.0712
   48CHL1  H23A 6018   3.322   1.209   8.681  0.3063 -0.3999  0.5267
   48CHL1  H23B 6019   3.200   1.340   8.673 -0.8997 -1.6464  0.1550
   48CHL1   C24 6020   3.360   1.382   8.541  0.6464  0.3888 -0.4615
   48CHL1  H24A 6021   3.471   1.372   8.536  0.9321  2.3941  0.7904
   48CHL1  H24B 6022   3.318   1.338   8.448  0.2323  0.7320 -0.4395
   48CHL1   C25 6023   3.335   1.530   8.525  0.0429 -0.6520  0.4844
   48CHL1   H25 6024   3.382   1.591   8.606 -1.1296 -1.9010  2.1712
   48CHL1   C26 6025   3.402   1.574   8.397  0.2409 -0.4798  0.5102
   48CHL1  H26A 6026   3.388   1.685   8.403  1.0481 -0.3208 -0.4012
   48CHL1  H26B 6027   3.512   1.564   8.386  0.2811  0.7256 -0.3891
   48CHL1  H26C 6028   3.358   1.535   8.303 -1.8909  0.6581  0.9545
   48CHL1   C27 6029   3.189   1.568   8.517  0.8764  0.4565 -0.1382
   48CHL1  H27A 6030   3.141   1.501   8.443  1.8750 -0.4307  0.0050
   48CHL1  H27B 6031   3.141   1.562   8.617 -0.6328  1.7707 -0.7233
   48CHL1  H27C 6032   3.173   1.675   8.489 -1.6432  0.9750  2.7683
   49CHL1    C3 6033   1.852   4.165  10.066  0.0856  0.3282  0.2898
   49CHL1    H3 6034   1.918   4.076  10.065  0.7249  0.7700 -2.0885
   49CHL1    O3 6035   1.847   4.220  10.197 -0.0879  0.2968  0.8540
   49CHL1   H3' 6036   1.800   4.154  10.248 -0.5766  0.8553  1.1403
   49CHL1    C4 6037   1.905   4.263   9.959  0.0982  0.1843  0.0960
   49CHL1   H4A 6038   1.840   4.349   9.985 -2.7080 -0.8016 -2.9779
   49CHL1   H4B 6039   2.012   4.292   9.970 -0.0245  1.3949 -1.5289
   49CHL1    C5 6040   1.895   4.216   9.818  0.0828  0.6264  0.6688
   49CHL1    C6 6041   2.003   4.211   9.738  1.0144 -0.1412  0.0541
   49CHL1    H6 6042   2.100   4.246   9.776  1.2479  0.2876 -0.9006
   49CHL1    C7 6043   1.993   4.165   9.598 -0.6924 -0.4459  0.5328
   49CHL1   H7A 6044   2.070   4.225   9.545 -1.0108 -0.5400 -0.0337
   49CHL1   H7B 6045   2.028   4.060   9.597  2.3158  0.4830 -0.3532
   49CHL1    C8 6046   1.856   4.167   9.537  0.4812  0.0787  0.1201
   49CHL1    H8 6047   1.824   4.273   9.524  0.1077 -0.1765 -1.2678
   49CHL1   C14 6048   1.843   4.086   9.407 -0.5047 -0.3915  0.1454
   49CHL1   H14 6049   1.848   3.980   9.438  0.1076  0.4163  3.1178
   49CHL1   C15 6050   1.948   4.115   9.294  0.0122 -0.5954  0.4688
   49CHL1  H15A 6051   1.963   4.225   9.293  1.7215 -0.7914  1.7229
   49CHL1  H15B 6052   2.042   4.058   9.307  0.9571  0.8639  0.2755
   49CHL1   C16 6053   1.880   4.077   9.163  0.3124 -1.1906 -0.6153
   49CHL1  H16A 6054   1.882   4.162   9.091 -2.2712 -0.5299 -0.0177
   49CHL1  H16B 6055   1.934   3.991   9.117  1.2790 -0.1347 -1.5126
   49CHL1   C17 6056   1.734   4.038   9.206  0.2427 -0.9419 -0.3937
   49CHL1   H17 6057   1.735   3.930   9.234 -1.9224 -0.4303  2.0405
   49CHL1   C13 6058   1.703   4.105   9.342 -0.4023  0.1676  0.8642
   49CHL1   C18 6059   1.669   4.255   9.317 -0.4814  0.9060 -0.0176
   49CHL1  H18A 6060   1.747   4.314   9.265 -1.3116  0.2151 -2.1393
   49CHL1  H18B 6061   1.578   4.269   9.255 -0.3225  1.0877 -0.2128
   49CHL1  H18C 6062   1.651   4.310   9.412  3.0526  2.4710 -0.1119
   49CHL1   C12 6063   1.607   4.035   9.430  0.7435 -0.6990 -0.3186
   49CHL1  H12A 6064   1.504   4.040   9.388  0.3596 -3.2935  0.1436
   49CHL1  H12B 6065   1.631   3.926   9.429  2.9730 -0.2340 -1.2411
   49CHL1   C11 6066   1.614   4.089   9.574 -0.1066 -0.2295 -0.2100
   49CHL1  H11A 6067   1.571   4.191   9.560 -0.3623 -0.5720 -2.2759
   49CHL1  H11B 6068   1.556   4.029   9.646 -1.2372  2.1553  0.9598
   49CHL1    C9 6069   1.758   4.105   9.630 -0.6938  0.6546 -0.0750
   49CHL1    H9 6070   1.787   4.001   9.652  1.3243  0.9092 -1.3407
   49CHL1   C10 6071   1.754   4.174   9.773 -0.0079 -0.0226  0.1207
   49CHL1   C19 6072   1.670   4.299   9.776 -0.6876 -0.6244  0.5049
   49CHL1  H19A 6073   1.562   4.280   9.758 -0.7665 -1.3222  1.6644
   49CHL1  H19B 6074   1.675   4.337   9.880 -3.2020  0.9108  0.1600
   49CHL1  H19C 6075   1.696   4.366   9.691  1.1363 -1.3108  0.4928
   49CHL1    C1 6076   1.698   4.074   9.880 -0.3783  0.4761 -0.1515
   49CHL1   H1A 6077   1.593   4.051   9.855 -0.5918  2.5384 -1.4287
   49CHL1   H1B 6078   1.759   3.982   9.868  0.3995  0.6305  2.0665
   49CHL1    C2 6079   1.708   4.108  10.030 -0.5772 -1.1141  0.0359
   49CHL1   H2A 6080   1.685   4.014  10.083  2.7503 -2.5091 -0.7667
   49CHL1   H2B 6081   1.627   4.178  10.061  0.0548  0.2016 -1.1607
   49CHL1   C20 6082   1.637   4.061   9.089 -1.0425 -0.2446 -0.3370
   49CHL1   H20 6083   1.662   4.163   9.052  1.1523 -0.5010  0.3068
   49CHL1   C21 6084   1.489   4.047   9.125 -0.0938 -0.1744  0.2585
   49CHL1  H21A 6085   1.460   4.123   9.200  1.7836 -0.8275  1.7588
   49CHL1  H21B 6086   1.471   3.949   9.174 -1.3993 -0.0851 -0.0272
   49CHL1  H21C 6087   1.420   4.060   9.039  1.3857 -1.4268 -1.2035
   49CHL1   C22 6088   1.670   3.958   8.975  0.4977  0.1485  0.6390
   49CHL1  H22A 6089   1.775   3.923   8.980  0.2392 -0.8279 -0.4734
   49CHL1  H22B 6090   1.605   3.869   8.983  0.6028 -0.0247 -0.3991
   49CHL1   C23 6091   1.664   4.020   8.827  0.3472  0.3123 -0.3700
   49CHL1  H23A 6092   1.564   4.065   8.814  1.4995  3.3427  0.2934
   49CHL1  H23B 6093   1.729   4.110   8.827 -0.3077  0.7991  0.4800
   49CHL1   C24 6094   1.708   3.915   8.725  0.0120 -0.4455 -0.3907
   49CHL1  H24A 6095   1.811   3.888   8.758  0.7466  2.5380 -0.0010
   49CHL1  H24B 6096   1.652   3.819   8.733  1.3453 -1.7736 -4.3907
   49CHL1   C25 6097   1.695   3.957   8.580  0.4255  0.3037  0.3032
   49CHL1   H25 6098   1.720   4.063   8.557  3.9927 -1.0047 -2.7706
   49CHL1   C26 6099   1.788   3.874   8.492 -0.0480  0.5462  0.3559
   49CHL1  H26A 6100   1.760   3.766   8.499 -2.7402  0.9925 -1.9262
   49CHL1  H26B 6101   1.767   3.902   8.387  1.3006  1.9642  0.4424
   49CHL1  H26C 6102   1.893   3.893   8.521  0.0675 -2.3590  2.2892
   49CHL1   C27 6103   1.553   3.946   8.528 -0.0521 -0.0954  0.2485
   49CHL1  H27A 6104   1.526   3.838   8.539 -0.2157 -0.3706 -2.2669
   49CHL1  H27B 6105   1.490   4.010   8.593  0.4007 -0.8098  1.4144
   49CHL1  H27C 6106   1.549   3.980   8.422  0.9067  0.6015  0.4293
   50CHL1    C3 6107   5.625   5.549  10.154 -0.0303  0.7440 -0.1470
   50CHL1    H3 6108   5.588   5.445  10.141  2.1764 -0.4199  2.0294
   50CHL1    O3 6109   5.618   5.574  10.295 -0.2496  0.0752  0.3517
   50CHL1   H3' 6110   5.584   5.663  10.307 -1.2250 -0.1456 -0.6553
   50CHL1    C4 6111   5.765   5.564  10.095  0.6783 -0.4564  0.1004
   50CHL1   H4A 6112   5.790   5.671  10.106  0.2070 -0.2295 -0.9762
   50CHL1   H4B 6113   5.838   5.493  10.142  0.7082 -0.5515 -0.0871
   50CHL1    C5 6114   5.765   5.536   9.945 -0.3072  0.2746  0.5665
   50CHL1    C6 6115   5.845   5.442   9.896 -0.4909  0.0058 -0.2204
   50CHL1    H6 6116   5.913   5.389   9.965  0.9315  1.5871 -0.3500
   50CHL1    C7 6117   5.876   5.424   9.751 -0.2444 -0.5092 -0.0034
   50CHL1   H7A 6118   5.980   5.446   9.719  0.2894  3.0148  3.4039
   50CHL1   H7B 6119   5.841   5.322   9.725 -1.4458 -0.0196 -0.4205
   50CHL1    C8 6120   5.798   5.528   9.667 -0.2271 -0.3855  0.8726
   50CHL1    H8 6121   5.859   5.621   9.660 -1.8160  0.6399  0.2888
   50CHL1   C14 6122   5.786   5.473   9.527 -0.8883  0.0574 -0.3252
   50CHL1   H14 6123   5.729   5.378   9.538  0.7813 -0.7373  2.5098
   50CHL1   C15 6124   5.912   5.443   9.454 -0.3649 -1.0667  0.4018
   50CHL1  H15A 6125   5.975   5.535   9.450 -0.6583 -0.8888 -1.8390
   50CHL1  H15B 6126   5.959   5.351   9.495 -0.5468 -0.8134  1.1939
   50CHL1   C16 6127   5.866   5.419   9.309  0.7732 -0.3677  0.3824
   50CHL1  H16A 6128   5.947   5.459   9.245  1.8283  0.3345  2.0702
   50CHL1  H16B 6129   5.854   5.313   9.279  0.1386 -1.1505  3.0972
   50CHL1   C17 6130   5.720   5.466   9.293  0.2263 -0.0869 -0.1324
   50CHL1   H17 6131   5.652   5.379   9.304  2.3267 -1.9730 -1.0521
   50CHL1   C13 6132   5.705   5.555   9.425 -0.0755  0.1754  0.4406
   50CHL1   C18 6133   5.776   5.697   9.401  0.3060  1.2688 -0.2728
   50CHL1  H18A 6134   5.872   5.689   9.347 -0.2360  0.5843 -1.1587
   50CHL1  H18B 6135   5.706   5.769   9.354 -2.2303 -0.0698  1.2299
   50CHL1  H18C 6136   5.809   5.731   9.502  1.5589 -0.4458 -0.0627
   50CHL1   C12 6137   5.560   5.570   9.482 -0.1754 -0.1188  0.8236
   50CHL1  H12A 6138   5.496   5.621   9.407  0.0330 -0.8674  0.1207
   50CHL1  H12B 6139   5.515   5.470   9.497  0.0089 -0.3085  0.1509
   50CHL1   C11 6140   5.570   5.642   9.622  0.9061  0.4890  0.4535
   50CHL1  H11A 6141   5.604   5.746   9.606  0.7232  0.4163 -0.4559
   50CHL1  H11B 6142   5.466   5.653   9.661  0.6576  0.5371 -0.2046
   50CHL1    C9 6143   5.661   5.561   9.720 -0.0007 -0.5331  0.2498
   50CHL1    H9 6144   5.607   5.464   9.727  1.2253 -1.3327 -0.8971
   50CHL1   C10 6145   5.671   5.620   9.858  0.5117 -0.7673  0.3178
   50CHL1   C19 6146   5.722   5.764   9.855 -0.2676 -0.3976  0.4112
   50CHL1  H19A 6147   5.655   5.829   9.794  1.4190  2.7808  1.7226
   50CHL1  H19B 6148   5.726   5.798   9.961 -1.4906 -1.6723  0.9037
   50CHL1  H19C 6149   5.827   5.772   9.820 -0.8424 -0.2156 -1.3539
   50CHL1    C1 6150   5.531   5.611   9.926  0.6292 -0.2470  0.5356
   50CHL1   H1A 6151   5.450   5.675   9.884  0.1376 -1.1115  0.1327
   50CHL1   H1B 6152   5.484   5.511   9.915 -1.0911  0.5063  0.6956
   50CHL1    C2 6153   5.524   5.638  10.080 -0.2238 -0.2302  0.4647
   50CHL1   H2A 6154   5.421   5.626  10.120 -0.7998 -0.0024 -0.8921
   50CHL1   H2B 6155   5.561   5.742  10.098 -0.9120  0.1085 -0.0167
   50CHL1   C20 6156   5.692   5.540   9.161  0.2007  0.4354 -0.0982
   50CHL1   H20 6157   5.767   5.622   9.151 -0.4203  0.9343 -0.7389
   50CHL1   C21 6158   5.551   5.606   9.149  0.0674  0.3109  0.1323
   50CHL1  H21A 6159   5.538   5.661   9.053  1.0154 -0.4644 -0.4602
   50CHL1  H21B 6160   5.526   5.687   9.221 -1.0291  0.9091 -0.8802
   50CHL1  H21C 6161   5.473   5.528   9.163  0.4633  0.0755  1.1323
   50CHL1   C22 6162   5.724   5.449   9.041 -0.2638 -0.5591  0.0678
   50CHL1  H22A 6163   5.823   5.399   9.053  1.1885  1.3318 -2.8283
   50CHL1  H22B 6164   5.660   5.359   9.044 -0.4358 -0.4219  0.8264
   50CHL1   C23 6165   5.728   5.521   8.906  0.0460  0.1804  0.1726
   50CHL1  H23A 6166   5.630   5.563   8.874 -0.3752 -2.2984 -2.1188
   50CHL1  H23B 6167   5.794   5.609   8.917 -0.4032  0.5020  0.3430
   50CHL1   C24 6168   5.799   5.440   8.803 -0.0988  0.2188 -0.0121
   50CHL1  H24A 6169   5.822   5.502   8.713 -0.1110 -1.0290 -0.9046
   50CHL1  H24B 6170   5.893   5.407   8.850  0.9922  0.9933 -1.5594
   50CHL1   C25 6171   5.717   5.317   8.758  0.0265 -0.2035 -0.1029
   50CHL1   H25 6172   5.704   5.243   8.840 -1.2660 -0.6711 -0.6995
   50CHL1   C26 6173   5.578   5.358   8.714  0.7112  0.2405 -0.5916
   50CHL1  H26A 6174   5.592   5.432   8.631  0.6617  0.0828 -0.7419
   50CHL1  H26B 6175   5.530   5.269   8.667 -0.0746  0.2785  0.1177
   50CHL1  H26C 6176   5.514   5.396   8.796 -0.2099 -1.4440 -0.4874
   50CHL1   C27 6177   5.790   5.251   8.641  0.0839  0.1450  0.0300
   50CHL1  H27A 6178   5.727   5.188   8.574  0.9780 -0.0229 -0.6660
   50CHL1  H27B 6179   5.809   5.328   8.563 -1.1115 -0.7203 -1.1751
   50CHL1  H27C 6180   5.885   5.207   8.678 -0.0367  1.5322  2.2198
   51CHL1    C3 6181   1.822   2.900  10.349  0.3686 -0.8669  0.8664
   51CHL1    H3 6182   1.809   2.795  10.314 -0.1207 -0.3942 -0.4126
   51CHL1    O3 6183   1.851   2.916  10.484  0.5731  0.6454 -0.7346
   51CHL1   H3' 6184   1.846   3.012  10.485  3.0934  0.8491 -0.3959
   51CHL1    C4 6185   1.923   2.971  10.264  0.1850 -0.5450  0.2831
   51CHL1   H4A 6186   1.933   3.076  10.296 -0.1750 -0.7665  1.1581
   51CHL1   H4B 6187   2.025   2.927  10.276  0.9919  0.5866 -1.9018
   51CHL1    C5 6188   1.893   2.965  10.117  0.7599  0.5184  0.8680
   51CHL1    C6 6189   1.981   2.907  10.025 -0.2867 -0.6657 -0.1254
   51CHL1    H6 6190   2.071   2.856  10.061 -1.0545 -1.0909  1.2630
   51CHL1    C7 6191   1.968   2.923   9.877 -0.0329  0.1031  0.1627
   51CHL1   H7A 6192   2.070   2.938   9.836 -0.5633 -0.1088 -1.3054
   51CHL1   H7B 6193   1.926   2.826   9.843 -0.9411 -0.3661  2.4740
   51CHL1    C8 6194   1.859   3.030   9.838 -0.6122  0.1491  0.0835
   51CHL1    H8 6195   1.907   3.130   9.850  0.1939 -0.3835  1.5358
   51CHL1   C14 6196   1.826   3.010   9.695  0.7365 -0.3675  0.3805
   51CHL1   H14 6197   1.783   2.909   9.709 -3.3569  1.3714  1.9832
   51CHL1   C15 6198   1.945   2.989   9.599 -0.1878 -0.3103 -0.1496
   51CHL1  H15A 6199   2.025   3.063   9.624  1.1300 -1.9112  0.5508
   51CHL1  H15B 6200   1.989   2.888   9.608  0.6739  0.1393  1.1035
   51CHL1   C16 6201   1.886   3.018   9.459  0.8282  0.4907  0.5802
   51CHL1  H16A 6202   1.929   3.112   9.418 -0.0606 -0.6251 -3.2643
   51CHL1  H16B 6203   1.904   2.946   9.376  1.5073 -0.0793  1.2078
   51CHL1   C17 6204   1.728   3.058   9.491  0.3171 -0.3458  0.3966
   51CHL1   H17 6205   1.674   2.961   9.490 -0.2145 -0.0637  0.8592
   51CHL1   C13 6206   1.724   3.105   9.638  0.3103 -0.2423  0.2134
   51CHL1   C18 6207   1.759   3.258   9.652 -0.1945  1.1812 -0.1299
   51CHL1  H18A 6208   1.772   3.285   9.759  0.4390 -1.3679  0.5039
   51CHL1  H18B 6209   1.846   3.283   9.588  0.6119 -1.7392 -0.3248
   51CHL1  H18C 6210   1.674   3.324   9.622 -0.9196  0.5256  0.4394
   51CHL1   C12 6211   1.589   3.075   9.715 -0.0430  0.5611 -0.2042
   51CHL1  H12A 6212   1.493   3.125   9.689  0.4223  1.7866  0.3779
   51CHL1  H12B 6213   1.571   2.966   9.706  0.4191  0.3961  0.7627
   51CHL1   C11 6214   1.609   3.093   9.867  0.3683 -0.0681  0.5350
   51CHL1  H11A 6215   1.627   3.202   9.876  1.3320 -0.3132  1.8148
   51CHL1  H11B 6216   1.516   3.070   9.924 -0.6876  1.3517 -0.5054
   51CHL1    C9 6217   1.734   3.019   9.925  0.2241 -0.0074 -0.3796
   51CHL1    H9 6218   1.690   2.917   9.929  1.3651 -0.4744  2.6908
   51CHL1   C10 6219   1.763   3.034  10.083 -0.1426  0.2520  0.3515
   51CHL1   C19 6220   1.757   3.187  10.108 -0.8170 -0.0079 -0.0469
   51CHL1  H19A 6221   1.794   3.210  10.210 -0.2774  1.5207 -0.5633
   51CHL1  H19B 6222   1.837   3.223  10.039 -1.1750  3.4806  1.1455
   51CHL1  H19C 6223   1.655   3.229  10.095 -1.4013 -1.5082 -0.5490
   51CHL1    C1 6224   1.649   2.962  10.163 -0.2959 -0.2498 -0.4033
   51CHL1   H1A 6225   1.547   3.004  10.148  0.5381  2.4597  0.9073
   51CHL1   H1B 6226   1.651   2.857  10.126 -4.1643 -0.5898 -0.0782
   51CHL1    C2 6227   1.687   2.973  10.319 -0.0924 -0.1709  0.2234
   51CHL1   H2A 6228   1.601   2.932  10.377  0.2142 -0.8506  0.2075
   51CHL1   H2B 6229   1.700   3.077  10.354  1.1178 -0.2179 -0.0312
   51CHL1   C20 6230   1.669   3.143   9.375  0.3102 -0.6003  0.5754
   51CHL1   H20 6231   1.725   3.239   9.372  0.2704 -0.5958 -0.3250
   51CHL1   C21 6232   1.531   3.185   9.408  0.4328  0.1583 -0.7140
   51CHL1  H21A 6233   1.528   3.241   9.504  0.6551 -1.4936  0.3036
   51CHL1  H21B 6234   1.468   3.094   9.421 -0.1048  0.7700  1.4116
   51CHL1  H21C 6235   1.502   3.247   9.321  1.9639  1.2272 -0.4990
   51CHL1   C22 6236   1.670   3.072   9.237 -0.2515 -0.2152  0.0462
   51CHL1  H22A 6237   1.776   3.061   9.205 -0.3256 -1.3891  0.1623
   51CHL1  H22B 6238   1.632   2.970   9.256  3.2037 -1.5227  0.6056
   51CHL1   C23 6239   1.604   3.133   9.112  0.2988 -0.0079  0.0269
   51CHL1  H23A 6240   1.495   3.137   9.129  0.2503 -1.9874  0.3920
   51CHL1  H23B 6241   1.649   3.233   9.093 -1.7551  0.5373 -2.3246
   51CHL1   C24 6242   1.634   3.046   8.990  0.7281  0.5661  0.0302
   51CHL1  H24A 6243   1.740   3.042   8.955  0.1889  3.1435 -2.2561
   51CHL1  H24B 6244   1.599   2.943   9.011  0.0983 -0.9546 -6.3551
   51CHL1   C25 6245   1.542   3.083   8.867  0.3883  0.4225 -0.1779
   51CHL1   H25 6246   1.443   3.061   8.913  0.3672 -0.7953 -0.7800
   51CHL1   C26 6247   1.542   3.230   8.821 -0.1427  0.2543  0.9213
   51CHL1  H26A 6248   1.640   3.262   8.781  0.2831  0.8505  2.3636
   51CHL1  H26B 6249   1.460   3.246   8.749  0.7242  0.9403  0.0599
   51CHL1  H26C 6250   1.517   3.297   8.905  0.7970  2.1849 -0.2776
   51CHL1   C27 6251   1.562   2.989   8.746  0.1316 -0.6461 -0.5438
   51CHL1  H27A 6252   1.658   3.014   8.695 -0.3696  0.7932 -0.8454
   51CHL1  H27B 6253   1.573   2.885   8.783  1.3759  0.3442  2.1376
   51CHL1  H27C 6254   1.489   3.004   8.663 -2.1769  1.2164  1.6672
   52CHL1    C3 6255   2.842   0.677  10.002  0.5793  0.8338 -0.4925
   52CHL1    H3 6256   2.829   0.787  10.007 -2.9043  0.5113  0.6340
   52CHL1    O3 6257   2.811   0.614  10.127 -0.0651 -0.6008  0.1725
   52CHL1   H3' 6258   2.827   0.522  10.103  0.6462 -0.1587 -1.1436
   52CHL1    C4 6259   2.737   0.610   9.910  0.2881 -0.1757 -0.5152
   52CHL1   H4A 6260   2.741   0.500   9.918 -1.8208 -0.1847  1.7318
   52CHL1   H4B 6261   2.639   0.650   9.946 -0.7781 -0.1978 -3.1947
   52CHL1    C5 6262   2.760   0.649   9.768  0.0309  0.1031 -1.0493
   52CHL1    C6 6263   2.663   0.701   9.695 -0.1241 -0.2083 -0.0960
   52CHL1    H6 6264   2.571   0.724   9.751  0.5114 -0.4428  1.0568
   52CHL1    C7 6265   2.664   0.740   9.549  0.7562  0.1379  0.4142
   52CHL1   H7A 6266   2.575   0.694   9.501  3.3374 -1.8324 -2.9866
   52CHL1   H7B 6267   2.665   0.850   9.533  2.7152  0.5564  2.8905
   52CHL1    C8 6268   2.787   0.683   9.476 -0.7800 -0.0986 -0.6162
   52CHL1    H8 6269   2.780   0.573   9.458 -1.8433 -0.2629  0.6360
   52CHL1   C14 6270   2.812   0.758   9.345 -0.5246 -0.6932  0.6189
   52CHL1   H14 6271   2.830   0.864   9.373 -0.7085 -0.4396 -0.1874
   52CHL1   C15 6272   2.691   0.773   9.247  0.0135 -0.3471 -0.0733
   52CHL1  H15A 6273   2.631   0.680   9.242 -1.2893  0.2709  2.3896
   52CHL1  H15B 6274   2.627   0.856   9.286 -1.4608 -0.7814 -1.4431
   52CHL1   C16 6275   2.756   0.816   9.120  0.5560 -0.4673 -0.2213
   52CHL1  H16A 6276   2.733   0.750   9.034  0.1588 -2.0238  1.0356
   52CHL1  H16B 6277   2.730   0.918   9.084 -0.6716 -0.2684  1.1363
   52CHL1   C17 6278   2.914   0.814   9.145  0.5287  0.1088 -0.0305
   52CHL1   H17 6279   2.948   0.914   9.179  1.4407 -0.9597  2.4555
   52CHL1   C13 6280   2.931   0.714   9.264  0.2824 -1.1307  0.2079
   52CHL1   C18 6281   2.914   0.573   9.201 -0.8295 -0.4556  0.1667
   52CHL1  H18A 6282   2.900   0.505   9.287  0.1440 -1.0420 -0.1205
   52CHL1  H18B 6283   2.823   0.566   9.138 -1.8348  1.9297  1.2012
   52CHL1  H18C 6284   3.001   0.543   9.139 -2.4089  0.1224 -2.4784
   52CHL1   C12 6285   3.055   0.725   9.356  0.5827 -0.0208 -0.4332
   52CHL1  H12A 6286   3.146   0.682   9.310  1.6408  1.2974  0.3423
   52CHL1  H12B 6287   3.079   0.829   9.385 -1.4386  0.6530 -0.9761
   52CHL1   C11 6288   3.042   0.641   9.491  0.8997  0.6887  0.0370
   52CHL1  H11A 6289   3.029   0.536   9.460 -0.7583  1.0136 -0.4535
   52CHL1  H11B 6290   3.135   0.646   9.552  1.0120 -3.7601  0.5218
   52CHL1    C9 6291   2.918   0.689   9.565 -0.0824  0.0181 -0.4428
   52CHL1    H9 6292   2.937   0.796   9.588  0.0730 -0.7254  3.7068
   52CHL1   C10 6293   2.899   0.621   9.708  0.1381  0.2566 -0.3787
   52CHL1   C19 6294   2.914   0.472   9.700 -0.1758  0.0204  0.2696
   52CHL1  H19A 6295   2.904   0.418   9.796  1.4373 -0.4043  0.2135
   52CHL1  H19B 6296   2.837   0.435   9.628  3.2818 -2.3630 -2.5584
   52CHL1  H19C 6297   3.017   0.451   9.663  0.8734  1.5823  2.1344
   52CHL1    C1 6298   3.012   0.671   9.808  0.8333  0.2362 -0.5025
   52CHL1   H1A 6299   3.109   0.621   9.786  0.8091 -1.4205  2.6660
   52CHL1   H1B 6300   3.024   0.779   9.786 -0.8646  0.2250 -1.6188
   52CHL1    C2 6301   2.982   0.640   9.956  0.2693  0.2103 -0.7827
   52CHL1   H2A 6302   3.062   0.682  10.021 -1.6093  2.6582  0.0966
   52CHL1   H2B 6303   2.998   0.532   9.975  1.9308  0.5678  0.0490
   52CHL1   C20 6304   2.991   0.780   9.014 -0.0535  0.0096 -0.1694
   52CHL1   H20 6305   2.977   0.676   8.978  2.2701 -0.7343  0.9183
   52CHL1   C21 6306   3.147   0.799   9.042  0.0435 -0.6876  0.0494
   52CHL1  H21A 6307   3.167   0.902   9.079 -0.7015  0.1555 -1.7503
   52CHL1  H21B 6308   3.203   0.782   8.947  0.1707 -0.1932  0.0329
   52CHL1  H21C 6309   3.169   0.724   9.120  1.2671 -0.0086  0.3883
   52CHL1   C22 6310   2.956   0.878   8.898 -0.2463 -0.8957  0.2470
   52CHL1  H22A 6311   2.846   0.886   8.884 -0.1496 -0.0505 -0.1160
   52CHL1  H22B 6312   2.981   0.980   8.933 -0.6894 -0.4368 -0.7293
   52CHL1   C23 6313   3.026   0.858   8.763  0.4430  0.7356 -1.2356
   52CHL1  H23A 6314   3.134   0.882   8.770  0.2773  1.0798  2.1064
   52CHL1  H23B 6315   3.032   0.751   8.733  0.6481  0.4167 -0.1249
   52CHL1   C24 6316   2.966   0.948   8.660  0.2169  0.6455 -0.8228
   52CHL1  H24A 6317   2.856   0.935   8.654  0.3284 -1.2564  0.4756
   52CHL1  H24B 6318   2.985   1.052   8.694  0.4205 -0.3280  2.4223
   52CHL1   C25 6319   3.031   0.924   8.519  0.3267 -0.8624  0.4349
   52CHL1   H25 6320   2.968   0.984   8.451 -0.6468 -1.9820  0.3081
   52CHL1   C26 6321   3.170   0.986   8.502 -0.2453 -0.2143 -0.6985
   52CHL1  H26A 6322   3.239   0.913   8.551  1.6458  1.4014 -0.8476
   52CHL1  H26B 6323   3.199   1.002   8.396  0.5898 -1.4362 -0.6738
   52CHL1  H26C 6324   3.181   1.083   8.554 -2.6270 -0.0473 -0.3793
   52CHL1   C27 6325   3.038   0.781   8.468 -0.2360  0.1961  0.5829
   52CHL1  H27A 6326   2.952   0.723   8.506 -0.0291 -0.3492  0.2330
   52CHL1  H27B 6327   3.045   0.779   8.357  2.2709 -0.0237  0.6849
   52CHL1  H27C 6328   3.128   0.733   8.512  1.3927  0.2838 -2.3860
   53CHL1    C3 6329   2.856   6.768  10.017  0.0046  0.2027  1.4340
   53CHL1    H3 6330   2.852   6.658  10.031  1.7297 -0.0968 -0.0114
   53CHL1    O3 6331   2.823   6.841  10.131  0.5165 -0.2647 -0.0002
   53CHL1   H3' 6332   2.841   6.929  10.099 -2.9009  0.2544 -0.9453
   53CHL1    C4 6333   3.004   6.808   9.983 -0.0990 -0.1968  0.2396
   53CHL1   H4A 6334   3.008   6.918   9.998  0.3954 -0.3717  1.6078
   53CHL1   H4B 6335   3.068   6.774  10.068  0.7974  2.7366  0.8574
   53CHL1    C5 6336   3.059   6.768   9.842  0.5778  0.1663 -0.1415
   53CHL1    C6 6337   3.180   6.718   9.824  0.1039  0.8800 -0.1397
   53CHL1    H6 6338   3.257   6.703   9.901 -0.0029 -1.4408 -0.4021
   53CHL1    C7 6339   3.230   6.703   9.682  0.2834 -0.0126  0.5261
   53CHL1   H7A 6340   3.331   6.744   9.662  1.7007 -3.5311 -0.2443
   53CHL1   H7B 6341   3.242   6.595   9.661 -0.5335 -0.5234  2.4453
   53CHL1    C8 6342   3.151   6.760   9.573  0.4691  0.1132  0.2519
   53CHL1    H8 6343   3.168   6.870   9.572 -1.5476  0.4660 -1.3647
   53CHL1   C14 6344   3.195   6.693   9.440 -0.5066 -1.0912  0.0724
   53CHL1   H14 6345   3.160   6.588   9.453 -1.3537 -0.9504 -0.9325
   53CHL1   C15 6346   3.346   6.686   9.416 -0.0349  0.4643 -1.3064
   53CHL1  H15A 6347   3.399   6.778   9.451  0.0096  0.3106 -0.9732
   53CHL1  H15B 6348   3.388   6.594   9.461  1.0170  2.4500  2.1432
   53CHL1   C16 6349   3.356   6.675   9.263 -0.0018 -0.2188 -0.2200
   53CHL1  H16A 6350   3.414   6.761   9.225  1.4384 -1.7011 -1.4863
   53CHL1  H16B 6351   3.403   6.586   9.217 -0.6406 -0.3837 -0.5670
   53CHL1   C17 6352   3.209   6.674   9.209 -0.8370  0.0317 -0.8165
   53CHL1   H17 6353   3.173   6.570   9.224 -0.0646  0.1377  2.2471
   53CHL1   C13 6354   3.134   6.753   9.313  0.3448 -0.9127 -0.2338
   53CHL1   C18 6355   3.169   6.909   9.293  0.0321  0.1333  0.1471
   53CHL1  H18A 6356   3.270   6.926   9.251  0.1722 -1.4834 -0.2555
   53CHL1  H18B 6357   3.094   6.944   9.219 -0.7070  0.4688  1.0307
   53CHL1  H18C 6358   3.160   6.965   9.388  0.9363  1.9418 -0.7957
   53CHL1   C12 6359   2.981   6.738   9.326 -0.1203 -0.1917  0.4242
   53CHL1  H12A 6360   2.934   6.780   9.234  1.4821 -1.9935 -1.3335
   53CHL1  H12B 6361   2.964   6.628   9.326 -0.2850 -0.1652  0.9797
   53CHL1   C11 6362   2.926   6.801   9.457  0.0851  0.3929  0.5235
   53CHL1  H11A 6363   2.942   6.911   9.455 -1.0925  0.5854 -2.0843
   53CHL1  H11B 6364   2.817   6.780   9.466  0.3703 -0.3884  3.4059
   53CHL1    C9 6365   3.001   6.748   9.585 -0.3642 -0.5562  0.0169
   53CHL1    H9 6366   2.974   6.640   9.581  0.2912 -0.7912  1.4875
   53CHL1   C10 6367   2.955   6.802   9.725 -1.1947 -0.5982 -0.0239
   53CHL1   C19 6368   2.955   6.957   9.713  0.0834  0.4409 -0.0798
   53CHL1  H19A 6369   3.056   6.996   9.691  0.2162 -0.0612 -0.3759
   53CHL1  H19B 6370   2.876   7.003   9.649  1.9352  1.4654 -1.7571
   53CHL1  H19C 6371   2.924   7.003   9.809  3.5458 -1.1006  1.9393
   53CHL1    C1 6372   2.815   6.751   9.758 -0.1830 -0.4244 -0.5545
   53CHL1   H1A 6373   2.743   6.782   9.679 -2.3162 -1.3250  0.9593
   53CHL1   H1B 6374   2.803   6.641   9.749  1.3130 -0.6498 -0.1368
   53CHL1    C2 6375   2.754   6.792   9.899 -0.1253  0.6777  0.3686
   53CHL1   H2A 6376   2.665   6.729   9.921  0.2459 -0.4400 -1.1106
   53CHL1   H2B 6377   2.730   6.899   9.889 -0.1236  0.5491 -1.3267
   53CHL1   C20 6378   3.210   6.706   9.060 -0.6487 -1.0096 -0.3626
   53CHL1   H20 6379   3.248   6.809   9.038  1.0726 -2.0720 -2.9200
   53CHL1   C21 6380   3.065   6.690   9.015 -0.9275  0.0436  0.0286
   53CHL1  H21A 6381   3.004   6.774   9.055 -0.5915  0.7198 -0.8240
   53CHL1  H21B 6382   3.024   6.600   9.064 -1.6149  0.7835  0.8390
   53CHL1  H21C 6383   3.052   6.675   8.906 -3.3563  0.8311  0.1536
   53CHL1   C22 6384   3.298   6.612   8.978 -0.2031  0.3094 -0.0517
   53CHL1  H22A 6385   3.397   6.597   9.027 -1.1569 -0.3412  1.7960
   53CHL1  H22B 6386   3.244   6.515   8.968 -3.0270  2.0278 -3.6381
   53CHL1   C23 6387   3.327   6.668   8.833  0.6953 -0.4594 -0.9356
   53CHL1  H23A 6388   3.237   6.719   8.791  1.0802  0.6573 -0.4299
   53CHL1  H23B 6389   3.405   6.746   8.843 -0.3601  0.8069 -2.0708
   53CHL1   C24 6390   3.365   6.552   8.743  0.2681  0.0897  0.3593
   53CHL1  H24A 6391   3.431   6.479   8.793 -0.3644 -1.4153 -0.9139
   53CHL1  H24B 6392   3.275   6.490   8.726 -0.1914  1.1698 -1.5647
   53CHL1   C25 6393   3.431   6.599   8.611 -0.7849  0.0824 -0.1930
   53CHL1   H25 6394   3.442   6.499   8.564 -2.1139  0.2747 -0.9452
   53CHL1   C26 6395   3.346   6.694   8.525 -0.0957  0.2949 -0.2782
   53CHL1  H26A 6396   3.406   6.769   8.468  0.6645  1.5091  1.9899
   53CHL1  H26B 6397   3.269   6.640   8.467 -2.0149  1.5804  0.9534
   53CHL1  H26C 6398   3.293   6.754   8.602  0.3150  0.4515 -0.1140
   53CHL1   C27 6399   3.568   6.654   8.650  0.1475 -0.1159 -0.3127
   53CHL1  H27A 6400   3.636   6.659   8.562  0.3257 -0.3858 -0.1897
   53CHL1  H27B 6401   3.563   6.758   8.689 -0.6204  0.3300 -1.5242
   53CHL1  H27C 6402   3.622   6.596   8.727  0.4340  0.3353 -0.1673
   54CHL1    C3 6403   3.548   0.902  10.253 -0.1685 -0.2168  0.1157
   54CHL1    H3 6404   3.519   1.008  10.235  0.5800  0.1612  1.0728
   54CHL1    O3 6405   3.550   0.880  10.392 -0.1111  0.2585 -0.1461
   54CHL1   H3' 6406   3.617   0.939  10.428  2.2909 -1.3904 -1.6095
   54CHL1    C4 6407   3.452   0.815  10.169  0.5340  0.4549 -0.5423
   54CHL1   H4A 6408   3.473   0.709  10.194 -0.4927 -0.1012 -1.9091
   54CHL1   H4B 6409   3.353   0.834  10.216  0.4761 -0.3207 -0.3290
   54CHL1    C5 6410   3.459   0.831  10.017 -0.4557  0.0868  0.0329
   54CHL1    C6 6411   3.349   0.855   9.944 -0.5090  0.4634 -0.8854
   54CHL1    H6 6412   3.251   0.860   9.994 -0.1843  1.2730 -0.2981
   54CHL1    C7 6413   3.349   0.859   9.790  0.4347  0.4472  0.1721
   54CHL1   H7A 6414   3.255   0.817   9.750  0.1679 -0.2737  1.4776
   54CHL1   H7B 6415   3.342   0.966   9.761  0.2093 -0.1327 -2.0454
   54CHL1    C8 6416   3.481   0.810   9.731 -0.5744 -0.3008 -0.6494
   54CHL1    H8 6417   3.488   0.699   9.728 -0.8984 -0.3208 -0.7250
   54CHL1   C14 6418   3.493   0.867   9.589  0.4575 -0.7847 -0.1594
   54CHL1   H14 6419   3.508   0.977   9.596  1.6120 -1.0075  1.0072
   54CHL1   C15 6420   3.376   0.844   9.491  0.1810 -0.1800  0.5593
   54CHL1  H15A 6421   3.327   0.747   9.513 -0.2555 -0.2995 -0.8246
   54CHL1  H15B 6422   3.297   0.922   9.498 -0.5694 -0.8824  0.0946
   54CHL1   C16 6423   3.442   0.843   9.351 -0.5185 -0.0515 -0.2458
   54CHL1  H16A 6424   3.436   0.740   9.307  3.0046 -0.1432 -0.7673
   54CHL1  H16B 6425   3.398   0.920   9.284 -0.8454 -0.3931 -0.4296
   54CHL1   C17 6426   3.590   0.885   9.377  0.3568 -0.9243  0.6002
   54CHL1   H17 6427   3.598   0.996   9.383  1.3960 -1.0173  1.0519
   54CHL1   C13 6428   3.616   0.823   9.514  0.6107 -0.2280 -0.2026
   54CHL1   C18 6429   3.624   0.668   9.500  0.1330 -0.0499  0.7655
   54CHL1  H18A 6430   3.621   0.614   9.597 -1.5236 -2.1825 -0.3750
   54CHL1  H18B 6431   3.536   0.621   9.450 -0.3306 -0.8500  2.2673
   54CHL1  H18C 6432   3.712   0.636   9.440  0.5030  3.1871 -0.6180
   54CHL1   C12 6433   3.729   0.890   9.584  0.0899  0.1802 -0.0445
   54CHL1  H12A 6434   3.828   0.878   9.535 -1.6895 -1.5199 -3.6154
   54CHL1  H12B 6435   3.708   0.999   9.579  0.9544  0.3396 -0.4566
   54CHL1   C11 6436   3.736   0.858   9.734  0.3449  0.3580  0.4759
   54CHL1  H11A 6437   3.765   0.751   9.736 -0.4122  0.1345 -0.0924
   54CHL1  H11B 6438   3.812   0.924   9.782 -0.2653  0.4202  1.3878
   54CHL1    C9 6439   3.600   0.872   9.807 -0.6448 -0.0810 -0.1677
   54CHL1    H9 6440   3.582   0.982   9.800  1.1858  0.1782 -1.7887
   54CHL1   C10 6441   3.603   0.828   9.959 -0.4619  0.2788  0.4426
   54CHL1   C19 6442   3.656   0.683   9.975  0.1442  0.0996 -0.2570
   54CHL1  H19A 6443   3.743   0.649   9.915 -1.3357 -2.1894 -1.2191
   54CHL1  H19B 6444   3.684   0.661  10.080  2.2850 -1.6353 -1.1178
   54CHL1  H19C 6445   3.587   0.598   9.957  0.1201  0.3086 -1.1939
   54CHL1    C1 6446   3.691   0.921  10.045  0.3119  0.6573 -0.3830
   54CHL1   H1A 6447   3.796   0.928  10.008 -0.0729  3.7980 -1.1754
   54CHL1   H1B 6448   3.658   1.024  10.018  2.2677  1.4018 -0.1172
   54CHL1    C2 6449   3.687   0.898  10.194 -0.1235 -0.0960  0.5829
   54CHL1   H2A 6450   3.746   0.981  10.238  0.1806  0.6592 -1.1934
   54CHL1   H2B 6451   3.731   0.805  10.235  0.5803 -0.0765 -0.1238
   54CHL1   C20 6452   3.676   0.844   9.258  0.1340  0.9774  0.4079
   54CHL1   H20 6453   3.694   0.735   9.266  0.8748  1.1208  0.7778
   54CHL1   C21 6454   3.813   0.915   9.264  0.0218  0.0353  0.2316
   54CHL1  H21A 6455   3.887   0.865   9.331  2.4937  0.0390 -2.3138
   54CHL1  H21B 6456   3.791   1.022   9.282 -2.7221 -0.1293 -1.4974
   54CHL1  H21C 6457   3.855   0.911   9.161  1.4130 -0.6720  0.8020
   54CHL1   C22 6458   3.611   0.866   9.115 -0.6114 -0.2458 -0.1093
   54CHL1  H22A 6459   3.512   0.817   9.105  0.2351 -1.7003 -1.9321
   54CHL1  H22B 6460   3.593   0.975   9.110 -0.9893 -0.2202  1.3812
   54CHL1   C23 6461   3.699   0.810   9.001  0.3989 -0.3118 -0.3065
   54CHL1  H23A 6462   3.797   0.860   8.986  1.0012 -0.7382  1.9141
   54CHL1  H23B 6463   3.707   0.700   9.011 -1.2217 -0.2544  2.3545
   54CHL1   C24 6464   3.638   0.852   8.864 -0.5437  0.5682  0.7080
   54CHL1  H24A 6465   3.629   0.962   8.851 -2.5873  0.3787  0.0970
   54CHL1  H24B 6466   3.700   0.809   8.783 -2.0520 -0.8374  0.2326
   54CHL1   C25 6467   3.500   0.783   8.835 -0.8797 -0.6151  0.3333
   54CHL1   H25 6468   3.438   0.815   8.921 -0.6895  0.9437 -0.0756
   54CHL1   C26 6469   3.425   0.848   8.713  0.6055  0.8448 -0.2570
   54CHL1  H26A 6470   3.478   0.823   8.619 -0.0138 -0.2812 -0.3273
   54CHL1  H26B 6471   3.320   0.814   8.714  0.2707  1.6555  2.8337
   54CHL1  H26C 6472   3.423   0.957   8.731  3.4031  0.7236  1.5139
   54CHL1   C27 6473   3.502   0.638   8.821  0.1364  0.1854 -0.2518
   54CHL1  H27A 6474   3.401   0.591   8.828  0.8672 -1.3831  0.3045
   54CHL1  H27B 6475   3.537   0.612   8.719 -0.0634 -0.6939 -0.1125
   54CHL1  H27C 6476   3.566   0.592   8.899 -0.7900  0.2689  0.5926
   55CHL1    C3 6477   5.212   5.403  10.219  0.0080 -0.1008 -1.2341
   55CHL1    H3 6478   5.310   5.453  10.205  0.6629 -1.0935 -0.4146
   55CHL1    O3 6479   5.172   5.386  10.358 -0.7962  0.6338 -0.5282
   55CHL1   H3' 6480   5.088   5.340  10.356 -0.7946  0.6458 -1.1858
   55CHL1    C4 6481   5.110   5.492  10.148 -0.3690  0.5276  0.9071
   55CHL1   H4A 6482   5.014   5.442  10.172  0.6593 -2.0491 -0.0647
   55CHL1   H4B 6483   5.113   5.599  10.180  1.7595  1.7686 -2.8180
   55CHL1    C5 6484   5.122   5.493   9.995  0.1927  0.6465 -0.1729
   55CHL1    C6 6485   5.138   5.608   9.929  0.4970 -0.1629 -0.3779
   55CHL1    H6 6486   5.142   5.703   9.984  2.4864 -1.3639  1.7345
   55CHL1    C7 6487   5.136   5.608   9.778 -0.6444 -0.1564 -0.2476
   55CHL1   H7A 6488   5.041   5.653   9.741  0.1280  0.2867 -1.7781
   55CHL1   H7B 6489   5.223   5.670   9.749 -0.3953 -0.9420 -1.2358
   55CHL1    C8 6490   5.122   5.473   9.704  0.2073 -0.0747 -0.3645
   55CHL1    H8 6491   5.014   5.448   9.709  0.0882  0.6064  0.7801
   55CHL1   C14 6492   5.162   5.487   9.558 -0.7176 -0.4966  0.4988
   55CHL1   H14 6493   5.271   5.511   9.558 -0.4785 -1.4548  1.8245
   55CHL1   C15 6494   5.088   5.594   9.471  0.2239  0.1026 -0.5242
   55CHL1  H15A 6495   4.982   5.572   9.496 -0.1089  3.1781  1.1768
   55CHL1  H15B 6496   5.121   5.698   9.491 -2.3788  1.2815 -1.7543
   55CHL1   C16 6497   5.131   5.544   9.328  0.4915 -0.5909  0.5262
   55CHL1  H16A 6498   5.037   5.529   9.272  0.1763 -1.3279  1.2219
   55CHL1  H16B 6499   5.205   5.607   9.273 -3.6184  1.3214 -3.4133
   55CHL1   C17 6500   5.192   5.403   9.337 -0.0859 -0.6946 -0.1663
   55CHL1   H17 6501   5.302   5.419   9.337 -0.1044 -0.4115  1.1683
   55CHL1   C13 6502   5.156   5.347   9.482  1.1192 -0.7936  0.5090
   55CHL1   C18 6503   5.005   5.296   9.484  0.7320  0.0553 -0.3153
   55CHL1  H18A 6504   4.931   5.359   9.430 -1.3520 -2.4555 -0.5700
   55CHL1  H18B 6505   4.999   5.202   9.425 -1.0747  0.9113 -1.5884
   55CHL1  H18C 6506   4.968   5.259   9.582  0.5870  1.7712  0.3106
   55CHL1   C12 6507   5.248   5.254   9.551  0.1388 -0.7276  0.4434
   55CHL1  H12A 6508   5.250   5.157   9.497 -0.1758 -0.7599  0.4878
   55CHL1  H12B 6509   5.351   5.296   9.542  0.5477 -1.0319  2.8211
   55CHL1   C11 6510   5.210   5.232   9.695 -0.2527 -0.3724 -0.2181
   55CHL1  H11A 6511   5.120   5.170   9.711 -1.3418  1.2091 -0.0392
   55CHL1  H11B 6512   5.301   5.188   9.742  1.1406  0.8604 -1.6044
   55CHL1    C9 6513   5.195   5.364   9.780  0.2861 -0.3273 -0.2747
   55CHL1    H9 6514   5.302   5.393   9.788  1.2112 -3.7439  1.6515
   55CHL1   C10 6515   5.139   5.354   9.928 -0.4012  0.2236  0.7346
   55CHL1   C19 6516   5.004   5.284   9.930 -0.6235  0.0171  0.2639
   55CHL1  H19A 6517   4.956   5.307  10.028 -0.3105  0.0101  0.4178
   55CHL1  H19B 6518   4.935   5.309   9.846  0.4937 -0.9734 -0.9982
   55CHL1  H19C 6519   5.018   5.174   9.930 -0.8968 -0.0218 -0.1428
   55CHL1    C1 6520   5.242   5.273  10.006 -0.4205 -0.1477  0.1174
   55CHL1   H1A 6521   5.255   5.176   9.953  3.6017 -0.2739  0.9657
   55CHL1   H1B 6522   5.338   5.327   9.991 -0.0220 -0.7546  0.4478
   55CHL1    C2 6523   5.224   5.258  10.158  0.6092 -1.2719 -0.2435
   55CHL1   H2A 6524   5.314   5.208  10.200  3.0791  3.0649  0.2226
   55CHL1   H2B 6525   5.132   5.201  10.184 -0.1486 -0.6358 -1.3867
   55CHL1   C20 6526   5.165   5.323   9.217 -0.0621  0.0482  0.7239
   55CHL1   H20 6527   5.056   5.301   9.215 -0.2663  1.0504  0.3810
   55CHL1   C21 6528   5.248   5.191   9.220  0.9456 -0.0245  0.3198
   55CHL1  H21A 6529   5.358   5.204   9.235  0.5005  1.1683  3.2832
   55CHL1  H21B 6530   5.238   5.132   9.126  0.4317  1.4886 -0.6156
   55CHL1  H21C 6531   5.203   5.142   9.308 -0.0381  1.6895  0.8083
   55CHL1   C22 6532   5.210   5.406   9.088 -0.2520  0.3522  0.1548
   55CHL1  H22A 6533   5.160   5.504   9.100 -2.3179 -0.6410  0.1807
   55CHL1  H22B 6534   5.320   5.414   9.071 -0.2717 -1.5829 -1.2686
   55CHL1   C23 6535   5.151   5.344   8.958  0.7671 -0.4870 -0.0794
   55CHL1  H23A 6536   5.168   5.234   8.968 -0.5579 -0.7651 -0.7606
   55CHL1  H23B 6537   5.042   5.360   8.954  1.0546  1.6139 -0.3600
   55CHL1   C24 6538   5.204   5.402   8.827  0.0905  0.5941  0.5528
   55CHL1  H24A 6539   5.184   5.510   8.816 -1.3610  0.2633 -0.2680
   55CHL1  H24B 6540   5.315   5.395   8.836  0.0370 -2.3542  0.0955
   55CHL1   C25 6541   5.157   5.338   8.693  0.1065 -0.7683 -0.0092
   55CHL1   H25 6542   5.227   5.391   8.626  1.1295  0.7806  2.1762
   55CHL1   C26 6543   5.190   5.185   8.690 -0.4358 -0.6948 -0.4138
   55CHL1  H26A 6544   5.297   5.164   8.713 -0.4993 -0.5620  0.0057
   55CHL1  H26B 6545   5.136   5.124   8.766 -0.9420  1.3650  0.9339
   55CHL1  H26C 6546   5.156   5.142   8.593  0.2506 -0.7081 -0.6521
   55CHL1   C27 6547   5.013   5.374   8.662 -0.3964 -0.3960 -0.3064
   55CHL1  H27A 6548   4.952   5.296   8.712  0.0278 -0.2344  0.4696
   55CHL1  H27B 6549   4.990   5.466   8.720 -0.9792 -0.8017  0.1229
   55CHL1  H27C 6550   4.998   5.380   8.552  1.6524 -3.4045 -0.8535
   56CHL1    C3 6551   2.374   4.232  10.023  0.4680 -0.1885  0.0542
   56CHL1    H3 6552   2.263   4.226  10.020  0.3582  0.4936  1.9247
   56CHL1    O3 6553   2.415   4.209  10.155  0.2048  0.2431  0.6816
   56CHL1   H3' 6554   2.510   4.218  10.155  0.2096  0.4456  1.8478
   56CHL1    C4 6555   2.441   4.115   9.951 -0.7306  0.2393  0.4567
   56CHL1   H4A 6556   2.551   4.115   9.964 -0.6950  0.9859  0.2229
   56CHL1   H4B 6557   2.396   4.023   9.994 -0.4221 -0.3615 -0.4773
   56CHL1    C5 6558   2.419   4.121   9.804  0.0815  0.1979  0.1767
   56CHL1    C6 6559   2.350   4.017   9.740 -0.6446  0.0985 -0.2992
   56CHL1    H6 6560   2.334   3.927   9.800  1.3206  0.2915  0.5781
   56CHL1    C7 6561   2.333   4.014   9.593  0.0348  0.2898 -0.2969
   56CHL1   H7A 6562   2.364   3.913   9.558  0.3254  0.0232  0.6937
   56CHL1   H7B 6563   2.230   4.034   9.558  0.5062  3.0805 -0.3051
   56CHL1    C8 6564   2.430   4.122   9.518  0.6958  0.5566 -0.1729
   56CHL1    H8 6565   2.534   4.086   9.526  0.4372 -0.6671 -1.8081
   56CHL1   C14 6566   2.377   4.124   9.374 -0.9027 -0.4076 -0.1411
   56CHL1   H14 6567   2.273   4.156   9.395 -0.8012 -0.6152  0.7426
   56CHL1   C15 6568   2.383   3.991   9.301 -0.7353 -0.3128 -0.2241
   56CHL1  H15A 6569   2.487   3.955   9.320 -0.7065 -1.3099 -1.9951
   56CHL1  H15B 6570   2.307   3.921   9.342  1.2663 -0.9998  2.6165
   56CHL1   C16 6571   2.365   4.040   9.155  1.0825 -0.2068  1.2837
   56CHL1  H16A 6572   2.456   4.000   9.106  0.3927 -0.7124  0.3854
   56CHL1  H16B 6573   2.274   3.992   9.112  3.3616 -2.7682 -1.0319
   56CHL1   C17 6574   2.368   4.196   9.163 -0.0952  0.0800  0.6665
   56CHL1   H17 6575   2.267   4.242   9.159  0.6590  1.7839  0.3288
   56CHL1   C13 6576   2.435   4.238   9.289 -0.1487 -0.1151  0.0747
   56CHL1   C18 6577   2.582   4.221   9.293  0.2602 -0.1105  0.1563
   56CHL1  H18A 6578   2.627   4.214   9.394  0.9658 -2.6157 -0.2637
   56CHL1  H18B 6579   2.615   4.131   9.236  0.0931 -0.7289  1.0243
   56CHL1  H18C 6580   2.630   4.309   9.243 -1.4069 -0.0646 -1.4561
   56CHL1   C12 6581   2.390   4.371   9.359 -0.2196  0.1817  0.2049
   56CHL1  H12A 6582   2.437   4.456   9.306  2.3702 -0.5183  1.1965
   56CHL1  H12B 6583   2.280   4.383   9.369 -0.6738 -2.9388  0.0116
   56CHL1   C11 6584   2.445   4.377   9.503  1.0575 -0.3560 -0.2546
   56CHL1  H11A 6585   2.554   4.400   9.512  0.8220  0.6106  0.3838
   56CHL1  H11B 6586   2.405   4.473   9.542  3.5423  0.6518  0.0500
   56CHL1    C9 6587   2.404   4.253   9.592 -0.0558  0.0499  0.0884
   56CHL1    H9 6588   2.293   4.259   9.595 -0.1229  0.4999 -1.8492
   56CHL1   C10 6589   2.463   4.248   9.737 -0.2823 -0.4665 -0.1703
   56CHL1   C19 6590   2.614   4.267   9.733 -0.1394  0.4344  0.2181
   56CHL1  H19A 6591   2.653   4.186   9.668 -0.2872 -1.5819  2.4675
   56CHL1  H19B 6592   2.633   4.369   9.695 -0.3862  0.6855  0.7503
   56CHL1  H19C 6593   2.663   4.266   9.833 -0.5993  1.9597  0.4801
   56CHL1    C1 6594   2.402   4.372   9.807 -0.7575 -0.6892 -0.3108
   56CHL1   H1A 6595   2.454   4.463   9.770 -1.9278  0.0095 -0.2786
   56CHL1   H1B 6596   2.298   4.395   9.776 -0.2381 -0.4141 -1.9195
   56CHL1    C2 6597   2.413   4.367   9.965  0.7186  0.5065  0.3000
   56CHL1   H2A 6598   2.341   4.446   9.994  1.5741  1.1847  0.6117
   56CHL1   H2B 6599   2.515   4.396   9.998  2.0908  0.9730 -3.7735
   56CHL1   C20 6600   2.441   4.244   9.035 -0.2513 -0.4315 -0.1234
   56CHL1   H20 6601   2.547   4.213   9.043 -0.1599 -0.6117 -1.7028
   56CHL1   C21 6602   2.436   4.400   9.029  0.0072  0.8467  0.6459
   56CHL1  H21A 6603   2.327   4.420   9.030 -0.4248 -1.3343  1.0097
   56CHL1  H21B 6604   2.476   4.428   8.929 -1.1498 -4.3208 -1.5849
   56CHL1  H21C 6605   2.489   4.455   9.109 -2.6518  4.0396  0.4283
   56CHL1   C22 6606   2.391   4.185   8.900 -0.5504 -0.3129 -0.2041
   56CHL1  H22A 6607   2.454   4.239   8.826  1.0359  0.5255  1.6666
   56CHL1  H22B 6608   2.428   4.081   8.892 -0.4991 -0.3271  0.2118
   56CHL1   C23 6609   2.238   4.212   8.858 -0.4089  0.1772  0.4992
   56CHL1  H23A 6610   2.176   4.145   8.921 -1.2652  0.7495  0.2694
   56CHL1  H23B 6611   2.209   4.313   8.893 -2.0807 -0.0621 -0.1051
   56CHL1   C24 6612   2.201   4.191   8.715  0.3247 -0.2542  0.3910
   56CHL1  H24A 6613   2.097   4.209   8.680  0.9931  0.4461 -1.3553
   56CHL1  H24B 6614   2.262   4.270   8.666  2.8390 -0.7800  2.4661
   56CHL1   C25 6615   2.242   4.050   8.660 -0.1245  0.1230 -0.7754
   56CHL1   H25 6616   2.339   4.023   8.706 -1.7924  2.3678  4.9006
   56CHL1   C26 6617   2.139   3.945   8.699  0.1205 -0.1318 -0.2375
   56CHL1  H26A 6618   2.107   3.956   8.805  0.6692 -1.5556  0.1014
   56CHL1  H26B 6619   2.051   3.950   8.631  0.0285  0.0910 -0.1026
   56CHL1  H26C 6620   2.160   3.838   8.675 -0.7467 -0.2240 -0.6624
   56CHL1   C27 6621   2.260   4.050   8.506  0.2925  0.5061  0.5487
   56CHL1  H27A 6622   2.327   4.129   8.465  1.1325 -0.0522  0.8205
   56CHL1  H27B 6623   2.310   3.956   8.473  0.5234  1.4199 -1.8688
   56CHL1  H27C 6624   2.162   4.056   8.455  0.1903  1.0055  0.7913
   57CHL1    C3 6625   5.105   0.142  10.226 -0.3048  0.2362 -0.3690
   57CHL1    H3 6626   5.163   0.237  10.218 -1.0530  1.1521  3.1144
   57CHL1    O3 6627   5.121   0.091  10.357  0.1356  0.3546  0.0748
   57CHL1   H3' 6628   5.052   0.025  10.369 -0.5618  1.1741  0.6433
   57CHL1    C4 6629   4.958   0.172  10.200 -0.4314 -0.1466  0.2411
   57CHL1   H4A 6630   4.897   0.079  10.200  0.8686 -1.0364 -0.9151
   57CHL1   H4B 6631   4.911   0.242  10.273  1.4289  2.7428 -1.1390
   57CHL1    C5 6632   4.948   0.232  10.057 -0.3370  0.5756 -0.1171
   57CHL1    C6 6633   4.896   0.353  10.032 -0.1193  0.0317 -0.0005
   57CHL1    H6 6634   4.855   0.414  10.113  1.9727 -2.2717  2.9986
   57CHL1    C7 6635   4.901   0.423   9.896  0.3594 -0.4270 -0.0019
   57CHL1   H7A 6636   4.801   0.466   9.870 -0.1075 -1.9734 -0.9359
   57CHL1   H7B 6637   4.974   0.506   9.894  0.9062 -0.8423 -3.2281
   57CHL1    C8 6638   4.931   0.322   9.775 -0.0206  0.2458  0.3709
   57CHL1    H8 6639   4.837   0.262   9.765  1.0649 -1.7357  1.5380
   57CHL1   C14 6640   4.971   0.398   9.648 -0.2195 -0.5523  0.1326
   57CHL1   H14 6641   5.062   0.455   9.678 -1.6033  0.7282  2.1141
   57CHL1   C15 6642   4.883   0.512   9.586 -0.1468  0.1234  0.0314
   57CHL1  H15A 6643   4.777   0.479   9.585 -0.5979  1.4854  0.4875
   57CHL1  H15B 6644   4.903   0.616   9.622 -2.6563  1.0027 -0.9150
   57CHL1   C16 6645   4.942   0.529   9.439  0.1130 -0.0311 -0.6722
   57CHL1  H16A 6646   4.848   0.522   9.379 -2.3688  0.2847  2.8439
   57CHL1  H16B 6647   4.988   0.629   9.428  1.0074 -0.4956 -1.2296
   57CHL1   C17 6648   5.038   0.417   9.417  0.3863 -0.1634  0.5938
   57CHL1   H17 6649   5.141   0.454   9.438  0.8011 -1.1941  0.4238
   57CHL1   C13 6650   5.010   0.308   9.530 -0.5249  0.4514 -0.1399
   57CHL1   C18 6651   4.882   0.225   9.483  0.4358  0.5435 -0.2983
   57CHL1  H18A 6652   4.804   0.291   9.442 -0.0335 -1.3013 -2.6235
   57CHL1  H18B 6653   4.905   0.163   9.393 -1.5273 -0.1354 -0.3633
   57CHL1  H18C 6654   4.842   0.158   9.562 -2.2870  0.9110 -1.2770
   57CHL1   C12 6655   5.126   0.217   9.572 -1.0548 -0.1948  0.1497
   57CHL1  H12A 6656   5.160   0.143   9.497  1.2376  1.9687 -1.0902
   57CHL1  H12B 6657   5.214   0.277   9.602 -1.4614  1.4195 -1.6813
   57CHL1   C11 6658   5.087   0.130   9.699  0.4627 -0.1591 -0.2075
   57CHL1  H11A 6659   5.009   0.059   9.666  2.0954 -2.6594  1.0305
   57CHL1  H11B 6660   5.180   0.077   9.726  0.5064  0.4378  0.8685
   57CHL1    C9 6661   5.041   0.223   9.815 -0.2186 -0.0937  0.1194
   57CHL1    H9 6662   5.139   0.273   9.832  0.0319 -0.5656  0.0811
   57CHL1   C10 6663   5.013   0.144   9.947 -0.5252 -0.4025  0.1838
   57CHL1   C19 6664   4.910   0.033   9.922  0.4701 -0.1108 -0.5327
   57CHL1  H19A 6665   4.821   0.085   9.881  1.0679 -0.2842 -2.0979
   57CHL1  H19B 6666   4.940  -0.033   9.838 -0.4590 -0.3043 -0.7219
   57CHL1  H19C 6667   4.894  -0.026  10.015 -0.1443  1.8391  0.6752
   57CHL1    C1 6668   5.150   0.087   9.989 -0.2025 -0.7150  0.0431
   57CHL1   H1A 6669   5.185   0.014   9.913  3.7799  2.1286 -1.1888
   57CHL1   H1B 6670   5.226   0.168   9.990 -2.3951  1.4731  1.3795
   57CHL1    C2 6671   5.161   0.034  10.131  0.0580  0.1401  0.6956
   57CHL1   H2A 6672   5.268   0.017  10.158 -0.1324  0.8052  1.9197
   57CHL1   H2B 6673   5.106  -0.061  10.142  1.4784 -0.7779  0.1720
   57CHL1   C20 6674   5.050   0.378   9.272  0.2548  0.0957 -0.0522
   57CHL1   H20 6675   4.946   0.349   9.242  0.8518 -0.3127 -1.8798
   57CHL1   C21 6676   5.137   0.259   9.246  0.0388  0.2794  0.2574
   57CHL1  H21A 6677   5.240   0.275   9.286  0.3101  1.7285 -0.9200
   57CHL1  H21B 6678   5.153   0.237   9.138  1.7309  2.2040  0.0554
   57CHL1  H21C 6679   5.114   0.164   9.298 -2.7130  1.2010  0.8727
   57CHL1   C22 6680   5.088   0.503   9.176 -0.1612 -0.7592 -0.1005
   57CHL1  H22A 6681   5.033   0.593   9.208  1.4682  1.4511 -3.0145
   57CHL1  H22B 6682   5.195   0.528   9.190 -0.0723 -0.9064 -0.4881
   57CHL1   C23 6683   5.059   0.476   9.029 -0.5132  0.4164  0.0630
   57CHL1  H23A 6684   5.096   0.379   8.990 -2.2393 -0.3275  0.2085
   57CHL1  H23B 6685   4.948   0.477   9.022 -0.5211  1.6091  0.1222
   57CHL1   C24 6686   5.109   0.582   8.933 -0.5315 -0.3407  0.8945
   57CHL1  H24A 6687   5.077   0.682   8.969  0.9307  0.7867 -0.7638
   57CHL1  H24B 6688   5.219   0.592   8.923 -0.7463  1.7701  0.1257
   57CHL1   C25 6689   5.050   0.558   8.793  0.2016 -0.7858 -0.6115
   57CHL1   H25 6690   4.942   0.540   8.808  0.2850 -1.0350 -0.2971
   57CHL1   C26 6691   5.069   0.685   8.705 -0.5563 -0.4822 -1.0197
   57CHL1  H26A 6692   5.029   0.782   8.740  2.8633  1.4552 -2.0273
   57CHL1  H26B 6693   5.174   0.698   8.671  0.7356 -2.1041  1.9411
   57CHL1  H26C 6694   5.011   0.662   8.613  0.4103  0.6043 -1.9317
   57CHL1   C27 6695   5.102   0.429   8.720  0.2651  0.3968 -0.6273
   57CHL1  H27A 6696   5.080   0.425   8.612  0.8504 -1.1032 -0.7185
   57CHL1  H27B 6697   5.211   0.418   8.737  0.2281  1.5654  0.5616
   57CHL1  H27C 6698   5.062   0.335   8.762  2.2792 -0.1129  0.2892
   58CHL1    C3 6699   0.359   4.489  10.078  0.4266  0.5821 -0.6850
   58CHL1    H3 6700   0.253   4.504  10.107 -0.2276 -0.9664 -2.0405
   58CHL1    O3 6701   0.448   4.479  10.191  0.4766 -0.1151  0.7216
   58CHL1   H3' 6702   0.401   4.421  10.252  0.3251 -0.9123 -0.1346
   58CHL1    C4 6703   0.366   4.342  10.019  0.9756  0.1381 -0.0777
   58CHL1   H4A 6704   0.474   4.316  10.014  0.9966  0.1870  0.0957
   58CHL1   H4B 6705   0.324   4.289  10.107  0.1440  2.0475  0.7338
   58CHL1    C5 6706   0.294   4.314   9.886 -0.2593  0.1639 -0.5876
   58CHL1    C6 6707   0.203   4.215   9.877 -0.4419 -0.2571  0.4255
   58CHL1    H6 6708   0.171   4.152   9.960 -2.4841  1.3270  0.9083
   58CHL1    C7 6709   0.145   4.187   9.744  0.9670  0.6474 -0.8251
   58CHL1   H7A 6710   0.142   4.078   9.722 -0.5240  0.3069  0.8298
   58CHL1   H7B 6711   0.036   4.208   9.743  0.5464 -1.2594 -2.5086
   58CHL1    C8 6712   0.195   4.262   9.624  0.2567  0.2645 -0.4167
   58CHL1    H8 6713   0.289   4.215   9.589  1.3008  2.8402 -1.3563
   58CHL1   C14 6714   0.096   4.258   9.505  1.4267 -0.5167 -0.3538
   58CHL1   H14 6715  -0.001   4.288   9.550  2.3394 -0.0447  1.3870
   58CHL1   C15 6716   0.059   4.121   9.446 -0.0451 -0.3568 -0.4135
   58CHL1  H15A 6717   0.146   4.053   9.433 -0.2917 -0.7167 -0.2002
   58CHL1  H15B 6718  -0.007   4.073   9.521 -0.1504  1.0352  0.4231
   58CHL1   C16 6719  -0.024   4.163   9.325 -0.8274 -0.8375  0.3182
   58CHL1  H16A 6720  -0.002   4.109   9.231 -1.1601 -0.2960 -0.0771
   58CHL1  H16B 6721  -0.135   4.166   9.336 -0.9041  0.8875 -0.5171
   58CHL1   C17 6722   0.013   4.314   9.295 -0.4358  0.2335  0.2363
   58CHL1   H17 6723  -0.069   4.379   9.332 -1.7070  1.0496 -3.6396
   58CHL1   C13 6724   0.133   4.346   9.383  0.2827  0.0439 -0.5352
   58CHL1   C18 6725   0.267   4.291   9.322 -0.1014 -0.2511 -0.3382
   58CHL1  H18A 6726   0.334   4.259   9.405 -1.0553 -1.0119  0.1633
   58CHL1  H18B 6727   0.246   4.207   9.252 -3.4744  1.8184 -2.0678
   58CHL1  H18C 6728   0.311   4.371   9.260 -1.2567 -0.2564 -1.2184
   58CHL1   C12 6729   0.153   4.491   9.432  0.1616 -0.1024  0.1745
   58CHL1  H12A 6730   0.201   4.559   9.359 -0.8719  1.8497  1.2483
   58CHL1  H12B 6731   0.053   4.537   9.452  0.0949 -0.1782  0.0234
   58CHL1   C11 6732   0.260   4.496   9.539  0.1905 -0.3678 -0.6053
   58CHL1  H11A 6733   0.357   4.471   9.491  1.8768 -0.5967  2.6471
   58CHL1  H11B 6734   0.290   4.599   9.568  0.6565 -0.4776 -0.6862
   58CHL1    C9 6735   0.225   4.402   9.659 -0.4407  0.5523  0.8180
   58CHL1    H9 6736   0.130   4.440   9.701 -0.2919  0.7067  1.0178
   58CHL1   C10 6737   0.330   4.414   9.777  0.1311  0.1766 -0.1529
   58CHL1   C19 6738   0.474   4.373   9.721 -0.5365  0.2181 -0.3172
   58CHL1  H19A 6739   0.483   4.263   9.711 -2.5157  0.1000 -1.2997
   58CHL1  H19B 6740   0.498   4.428   9.627  1.1307  1.7483  0.9144
   58CHL1  H19C 6741   0.552   4.408   9.793  0.3308 -1.9580 -0.1228
   58CHL1    C1 6742   0.344   4.563   9.831  0.5248 -0.3092  0.1022
   58CHL1   H1A 6743   0.389   4.628   9.752 -1.2493  0.5078 -0.2711
   58CHL1   H1B 6744   0.242   4.601   9.851  0.2838 -0.9942  0.1798
   58CHL1    C2 6745   0.412   4.584   9.971  0.2131  0.3107 -0.0485
   58CHL1   H2A 6746   0.407   4.689  10.008 -0.7925  1.2056 -2.4933
   58CHL1   H2B 6747   0.521   4.568   9.952  0.4675 -0.0360  1.5557
   58CHL1   C20 6748   0.013   4.344   9.142 -1.1971 -0.1966 -0.5675
   58CHL1   H20 6749   0.088   4.276   9.097 -0.0035  2.8052 -3.5524
   58CHL1   C21 6750   0.058   4.483   9.105  0.2484 -0.9882 -0.7012
   58CHL1  H21A 6751  -0.017   4.550   9.152  1.0661  1.1083 -2.2248
   58CHL1  H21B 6752   0.052   4.496   8.995 -0.3867  1.8191 -0.4278
   58CHL1  H21C 6753   0.159   4.505   9.147  0.0864  1.1628 -1.3004
   58CHL1   C22 6754  -0.125   4.308   9.088  0.2797  0.5388  0.1661
   58CHL1  H22A 6755  -0.177   4.223   9.138  0.1517 -0.7413 -2.0213
   58CHL1  H22B 6756  -0.196   4.393   9.099 -0.0713  0.1083  1.3569
   58CHL1   C23 6757  -0.109   4.276   8.940 -0.0634  0.0002  0.2912
   58CHL1  H23A 6758  -0.070   4.370   8.895  1.0573 -0.1766  0.8664
   58CHL1  H23B 6759  -0.040   4.191   8.921 -1.8186 -1.0660 -1.7956
   58CHL1   C24 6760  -0.241   4.260   8.871  0.3994 -0.4472  0.4257
   58CHL1  H24A 6761  -0.322   4.327   8.906  1.3166 -0.4433  2.6393
   58CHL1  H24B 6762  -0.226   4.284   8.763  0.8513  0.5349  0.6938
   58CHL1   C25 6763  -0.301   4.114   8.894  0.7083 -0.4202 -0.5550
   58CHL1   H25 6764  -0.286   4.084   9.000 -3.3837  0.9100  0.5882
   58CHL1   C26 6765  -0.450   4.113   8.879  0.5108  0.3473  0.6604
   58CHL1  H26A 6766  -0.499   4.019   8.911  0.1884  0.4575  0.4944
   58CHL1  H26B 6767  -0.495   4.191   8.944  0.0456  1.8773 -1.3987
   58CHL1  H26C 6768  -0.472   4.141   8.774  3.2076  0.0223 -0.0580
   58CHL1   C27 6769  -0.236   4.012   8.798 -0.4123 -0.6491 -0.6301
   58CHL1  H27A 6770  -0.259   4.039   8.693 -1.8348  1.2848  0.1209
   58CHL1  H27B 6771  -0.129   4.000   8.824 -0.2459  0.9136 -0.4923
   58CHL1  H27C 6772  -0.285   3.913   8.808 -3.6810  0.8125 -0.7827
   59CHL1    C3 6773   1.249   4.039  10.416  0.6413 -0.1323  0.5923
   59CHL1    H3 6774   1.158   4.101  10.406  0.1957 -1.0378 -1.6518
   59CHL1    O3 6775   1.295   4.036  10.549  0.0822 -0.4243 -0.5459
   59CHL1   H3' 6776   1.270   4.119  10.591  0.4425 -0.1657 -0.8308
   59CHL1    C4 6777   1.212   3.898  10.376  0.4021  0.0421 -0.0202
   59CHL1   H4A 6778   1.299   3.831  10.389  0.5903 -0.1493 -2.0510
   59CHL1   H4B 6779   1.133   3.865  10.447 -2.4728  2.6952 -1.7374
   59CHL1    C5 6780   1.169   3.893  10.228  0.4831 -0.6478  0.4341
   59CHL1    C6 6781   1.047   3.845  10.189  0.4145  0.9318  0.2057
   59CHL1    H6 6782   0.986   3.792  10.265  1.1211  1.6546  1.2944
   59CHL1    C7 6783   1.004   3.819  10.045 -0.6542  0.2102  0.1577
   59CHL1   H7A 6784   0.962   3.717  10.033 -0.1807 -0.1149  1.2083
   59CHL1   H7B 6785   0.928   3.899  10.029  0.3548  1.1839  0.1443
   59CHL1    C8 6786   1.126   3.846   9.953 -0.4791 -0.2360  1.0856
   59CHL1    H8 6787   1.191   3.757   9.965 -1.1642 -0.7435  1.1302
   59CHL1   C14 6788   1.071   3.856   9.813 -0.2905  0.3479  0.2497
   59CHL1   H14 6789   1.017   3.950   9.791  0.9957  1.1655  0.4630
   59CHL1   C15 6790   0.970   3.751   9.766  0.7084 -0.3427 -0.0051
   59CHL1  H15A 6791   1.012   3.653   9.796  0.3139 -1.0642 -1.6704
   59CHL1  H15B 6792   0.872   3.769   9.816  1.4105  2.2145  0.6326
   59CHL1   C16 6793   0.970   3.758   9.616  0.1504  0.8582 -0.2919
   59CHL1  H16A 6794   0.984   3.664   9.558  0.1818  1.0691 -0.6298
   59CHL1  H16B 6795   0.870   3.801   9.593 -1.0349 -0.5838  1.8342
   59CHL1   C17 6796   1.080   3.858   9.575 -0.3526 -0.4468 -0.1869
   59CHL1   H17 6797   1.029   3.956   9.562 -2.5373 -1.7674 -2.5293
   59CHL1   C13 6798   1.174   3.871   9.698 -0.0333 -0.0488  0.4233
   59CHL1   C18 6799   1.274   3.748   9.697 -0.2421 -0.5958 -0.0063
   59CHL1  H18A 6800   1.229   3.653   9.662  1.8773 -1.8569  0.5237
   59CHL1  H18B 6801   1.354   3.760   9.621 -0.0016  0.5366  0.4102
   59CHL1  H18C 6802   1.327   3.738   9.794  2.8446  1.6331 -1.3240
   59CHL1   C12 6803   1.240   4.005   9.733  0.0273 -0.4108 -0.3431
   59CHL1  H12A 6804   1.322   4.019   9.659 -0.2743 -2.0700 -1.0504
   59CHL1  H12B 6805   1.159   4.077   9.711 -1.9352 -1.6326  2.3556
   59CHL1   C11 6806   1.305   4.015   9.875 -0.0075  0.5687 -0.2019
   59CHL1  H11A 6807   1.393   3.950   9.863  0.3693  1.4436 -2.6138
   59CHL1  H11B 6808   1.336   4.119   9.901  2.8113 -0.7485  2.3225
   59CHL1    C9 6809   1.201   3.971   9.987  0.0697 -0.1164  0.4533
   59CHL1    H9 6810   1.137   4.062   9.993  1.7655  1.4168 -2.4353
   59CHL1   C10 6811   1.270   3.968  10.132  1.3266  0.5748 -0.0441
   59CHL1   C19 6812   1.398   3.881  10.120 -0.1325  0.0181  0.1303
   59CHL1  H19A 6813   1.470   3.933  10.054 -1.3030  0.1713 -1.0841
   59CHL1  H19B 6814   1.439   3.875  10.223  1.5303  0.9277 -0.4441
   59CHL1  H19C 6815   1.369   3.784  10.075 -0.4792  0.6219 -0.9992
   59CHL1    C1 6816   1.307   4.105  10.179  0.5197  0.1997  0.2005
   59CHL1   H1A 6817   1.384   4.136  10.105  0.0186 -2.4847 -1.6125
   59CHL1   H1B 6818   1.216   4.168  10.171  0.3373 -0.0601  0.1912
   59CHL1    C2 6819   1.354   4.098  10.322  0.0547 -0.3485 -1.0202
   59CHL1   H2A 6820   1.381   4.205  10.340  1.6582 -0.6905 -1.2472
   59CHL1   H2B 6821   1.448   4.041  10.339 -0.1645  0.0790  2.2796
   59CHL1   C20 6822   1.146   3.830   9.435  0.1615 -0.0876 -0.3787
   59CHL1   H20 6823   1.193   3.729   9.436  1.1255  0.3450 -0.5966
   59CHL1   C21 6824   1.250   3.939   9.406 -0.7160  0.0313  0.1805
   59CHL1  H21A 6825   1.293   3.904   9.309  1.4753 -0.0377  1.1179
   59CHL1  H21B 6826   1.336   3.929   9.476 -0.5064  3.2125  0.5055
   59CHL1  H21C 6827   1.206   4.041   9.399 -1.1289 -0.2027 -0.8214
   59CHL1   C22 6828   1.038   3.836   9.323 -0.5758 -0.0661 -0.0307
   59CHL1  H22A 6829   0.938   3.811   9.363 -1.8215  0.9197 -2.3236
   59CHL1  H22B 6830   1.046   3.942   9.290  1.8109 -0.4847 -0.9942
   59CHL1   C23 6831   1.066   3.730   9.206 -0.3442  0.5693  0.1111
   59CHL1  H23A 6832   1.164   3.753   9.159  0.0855  1.8284  1.5393
   59CHL1  H23B 6833   1.071   3.629   9.252 -1.2359 -0.1643 -1.3162
   59CHL1   C24 6834   0.948   3.717   9.109  0.6289  0.0062  0.1239
   59CHL1  H24A 6835   0.969   3.643   9.029  0.7357  0.7593 -0.5518
   59CHL1  H24B 6836   0.859   3.688   9.169  0.7660 -0.4209  0.1263
   59CHL1   C25 6837   0.903   3.855   9.047 -0.8577 -0.2233  0.8417
   59CHL1   H25 6838   0.879   3.920   9.134  1.2846 -0.7916  1.9456
   59CHL1   C26 6839   1.011   3.928   8.966 -0.0695  0.3548  0.5487
   59CHL1  H26A 6840   1.058   3.888   8.874  0.1411 -0.4754  1.0102
   59CHL1  H26B 6841   0.980   4.029   8.931  1.5977  0.9445  0.6764
   59CHL1  H26C 6842   1.087   3.963   9.040  1.0897  1.4817 -1.1006
   59CHL1   C27 6843   0.775   3.839   8.966 -0.1993  0.1983 -0.6083
   59CHL1  H27A 6844   0.791   3.783   8.872 -1.9242 -0.1485 -0.7152
   59CHL1  H27B 6845   0.705   3.775   9.023  0.8924 -0.3394  0.1718
   59CHL1  H27C 6846   0.724   3.936   8.948  2.7468  1.8730 -0.6670
   60CHL1    C3 6847   1.727   2.489  10.123 -0.3533  0.0344  0.7589
   60CHL1    H3 6848   1.644   2.562  10.117 -1.6826 -1.4401  0.6343
   60CHL1    O3 6849   1.759   2.463  10.264  0.2636  0.2638 -0.0717
   60CHL1   H3' 6850   1.852   2.439  10.261 -0.1884 -1.5634 -1.7751
   60CHL1    C4 6851   1.698   2.363  10.042  0.3230  1.0786  0.5243
   60CHL1   H4A 6852   1.777   2.294  10.077  0.3434  1.4132  1.1723
   60CHL1   H4B 6853   1.603   2.319  10.080  0.9359 -0.7466  0.0100
   60CHL1    C5 6854   1.706   2.380   9.890  0.9040  0.4111  0.4418
   60CHL1    C6 6855   1.597   2.345   9.817  0.2208 -0.1410  0.4733
   60CHL1    H6 6856   1.513   2.294   9.866 -0.9621  0.3871 -0.9426
   60CHL1    C7 6857   1.582   2.353   9.670 -0.2144  0.1630  0.2658
   60CHL1   H7A 6858   1.557   2.254   9.627 -1.9599  0.1363  1.2457
   60CHL1   H7B 6859   1.514   2.434   9.634  0.2877  0.8483  0.8359
   60CHL1    C8 6860   1.718   2.394   9.604 -0.1500 -1.2708 -0.0111
   60CHL1    H8 6861   1.784   2.306   9.587  1.5484 -0.0404 -0.0607
   60CHL1   C14 6862   1.689   2.465   9.473  0.1604 -0.0556  0.1006
   60CHL1   H14 6863   1.641   2.561   9.503  1.0332  0.2107  0.6692
   60CHL1   C15 6864   1.596   2.383   9.376 -0.3278  0.2477  0.0040
   60CHL1  H15A 6865   1.631   2.277   9.380 -0.8540  0.1011  1.0784
   60CHL1  H15B 6866   1.495   2.390   9.422 -0.7982 -0.3496 -0.9187
   60CHL1   C16 6867   1.612   2.461   9.248  0.2431  0.3229 -0.1757
   60CHL1  H16A 6868   1.655   2.394   9.170 -1.8857 -1.0722 -0.2337
   60CHL1  H16B 6869   1.517   2.511   9.221  0.4536  0.6091 -0.3964
   60CHL1   C17 6870   1.725   2.569   9.271  0.2536  0.1191  1.1298
   60CHL1   H17 6871   1.686   2.666   9.309 -1.0165  0.2099 -0.2859
   60CHL1   C13 6872   1.810   2.510   9.387 -0.1214  0.5170 -0.0229
   60CHL1   C18 6873   1.901   2.392   9.350 -0.2634  0.1140  0.1245
   60CHL1  H18A 6874   1.966   2.424   9.265  0.1569  4.1571  1.7666
   60CHL1  H18B 6875   1.966   2.358   9.433 -0.3375 -1.1059 -0.2883
   60CHL1  H18C 6876   1.855   2.301   9.305 -0.1209  0.1049 -0.0071
   60CHL1   C12 6877   1.876   2.623   9.482  0.6543  0.1216  0.4971
   60CHL1  H12A 6878   1.968   2.659   9.431  0.1487 -0.2244 -0.6956
   60CHL1  H12B 6879   1.797   2.700   9.489  0.3004 -0.1825 -0.1113
   60CHL1   C11 6880   1.916   2.561   9.612  0.3849  0.0715  0.1354
   60CHL1  H11A 6881   1.997   2.486   9.595  0.4459 -0.1403  1.2615
   60CHL1  H11B 6882   1.959   2.638   9.678 -0.4706 -0.7561  1.7288
   60CHL1    C9 6883   1.792   2.501   9.689 -0.3603  0.0158  0.1305
   60CHL1    H9 6884   1.727   2.591   9.698  1.8097  1.6194  0.4201
   60CHL1   C10 6885   1.821   2.459   9.834  1.3012 -0.2173  0.4122
   60CHL1   C19 6886   1.955   2.385   9.832  0.2210 -0.2558 -0.3736
   60CHL1  H19A 6887   2.043   2.446   9.804 -1.6138  2.4513 -0.6015
   60CHL1  H19B 6888   1.980   2.344   9.932  0.2805 -0.8089 -0.6097
   60CHL1  H19C 6889   1.950   2.300   9.761 -1.7414 -1.3031  0.8939
   60CHL1    C1 6890   1.839   2.581   9.923 -0.4204  0.3415  0.2147
   60CHL1   H1A 6891   1.935   2.628   9.894 -1.7519  3.2443  0.1443
   60CHL1   H1B 6892   1.767   2.662   9.901  0.1048  0.4436 -1.1949
   60CHL1    C2 6893   1.855   2.562  10.069 -0.1191 -0.1853 -0.4277
   60CHL1   H2A 6894   1.854   2.662  10.118 -0.1730  0.2326 -1.2701
   60CHL1   H2B 6895   1.956   2.520  10.089  1.2370  2.8766 -0.2692
   60CHL1   C20 6896   1.798   2.604   9.140  0.0252  0.0696  0.0390
   60CHL1   H20 6897   1.867   2.521   9.113 -1.2797 -0.8825 -0.5213
   60CHL1   C21 6898   1.876   2.733   9.153 -0.2880 -0.0120 -0.1376
   60CHL1  H21A 6899   1.825   2.831   9.166  0.7174  0.4894  0.0913
   60CHL1  H21B 6900   1.950   2.743   9.071 -1.6298  0.3371 -1.3613
   60CHL1  H21C 6901   1.948   2.743   9.237  0.3975 -3.2988 -0.1921
   60CHL1   C22 6902   1.704   2.624   9.016 -0.2293 -0.1149  0.8876
   60CHL1  H22A 6903   1.630   2.543   9.000 -1.7848  1.5084 -0.6263
   60CHL1  H22B 6904   1.646   2.716   9.036  0.6714  0.8797 -0.8097
   60CHL1   C23 6905   1.776   2.648   8.878 -0.5011  0.3045  0.3338
   60CHL1  H23A 6906   1.802   2.756   8.872  1.0077 -0.0722 -0.7080
   60CHL1  H23B 6907   1.868   2.587   8.868 -0.7532  0.0991 -0.8605
   60CHL1   C24 6908   1.686   2.622   8.760 -1.5990 -0.2763 -0.5750
   60CHL1  H24A 6909   1.670   2.512   8.761  0.1990 -0.6198 -2.1993
   60CHL1  H24B 6910   1.591   2.676   8.780 -0.3470  1.9152 -0.2856
   60CHL1   C25 6911   1.750   2.679   8.631  0.1383 -0.0620  0.2618
   60CHL1   H25 6912   1.748   2.789   8.645 -0.9970  0.0657 -0.7159
   60CHL1   C26 6913   1.895   2.621   8.614  0.2389  0.8663 -0.5930
   60CHL1  H26A 6914   1.927   2.642   8.509  0.9462  0.6746 -0.4229
   60CHL1  H26B 6915   1.955   2.676   8.689  1.4565 -1.4727  0.2594
   60CHL1  H26C 6916   1.908   2.515   8.644 -1.6534  1.0830  1.2237
   60CHL1   C27 6917   1.653   2.663   8.513 -0.2334 -0.1377 -0.1426
   60CHL1  H27A 6918   1.549   2.691   8.541 -0.1175  0.1337  0.0189
   60CHL1  H27B 6919   1.674   2.721   8.421 -0.5611  1.8259  0.9663
   60CHL1  H27C 6920   1.664   2.558   8.478 -0.2903 -0.4026  0.6111
   61CHL1    C3 6921   3.370   4.126  10.375  0.7298  0.6918  0.4992
   61CHL1    H3 6922   3.294   4.048  10.353  0.0347  1.8646 -1.6232
   61CHL1    O3 6923   3.338   4.191  10.499 -1.0053  0.3043 -0.0333
   61CHL1   H3' 6924   3.275   4.261  10.483 -0.3655  0.8764 -0.0908
   61CHL1    C4 6925   3.506   4.062  10.389  0.3538  0.0313  0.1653
   61CHL1   H4A 6926   3.576   4.140  10.427 -1.2605  2.4904 -1.6801
   61CHL1   H4B 6927   3.505   3.982  10.467 -1.1137 -1.6157 -1.4516
   61CHL1    C5 6928   3.544   3.998  10.259 -0.3534 -0.3660 -0.2291
   61CHL1    C6 6929   3.567   3.865  10.249 -0.6746  0.4069 -0.1800
   61CHL1    H6 6930   3.566   3.803  10.340 -0.7045  2.2168  1.1083
   61CHL1    C7 6931   3.605   3.795  10.122  0.3817 -0.1872 -0.1264
   61CHL1   H7A 6932   3.683   3.722  10.152  0.4139 -0.8133 -1.6503
   61CHL1   H7B 6933   3.510   3.747  10.089 -0.0267 -0.1106  0.9003
   61CHL1    C8 6934   3.655   3.890  10.011  0.6963  0.1721 -1.2721
   61CHL1    H8 6935   3.760   3.912  10.039  0.4506 -0.1208 -0.0495
   61CHL1   C14 6936   3.650   3.820   9.872  0.6341  0.3336 -0.1058
   61CHL1   H14 6937   3.541   3.803   9.856  1.0423 -5.2444  1.0806
   61CHL1   C15 6938   3.710   3.679   9.861 -1.3191 -0.4387  0.2340
   61CHL1  H15A 6939   3.809   3.682   9.910  0.1767  1.6270 -2.6226
   61CHL1  H15B 6940   3.648   3.613   9.925 -0.1962 -2.4204 -0.6361
   61CHL1   C16 6941   3.714   3.661   9.711  0.6824  0.0650  0.0616
   61CHL1  H16A 6942   3.818   3.629   9.690 -0.2000 -2.0333 -1.4172
   61CHL1  H16B 6943   3.635   3.588   9.683  1.7680 -0.6511 -1.2311
   61CHL1   C17 6944   3.703   3.802   9.644 -0.8613 -0.0751  0.0943
   61CHL1   H17 6945   3.600   3.812   9.604 -0.4379  2.6217 -0.5485
   61CHL1   C13 6946   3.709   3.904   9.760  0.9208 -0.4025  0.8157
   61CHL1   C18 6947   3.859   3.936   9.782  0.4030 -0.1143  0.3807
   61CHL1  H18A 6948   3.906   4.002   9.707  0.5264 -0.8770 -0.2237
   61CHL1  H18B 6949   3.877   3.991   9.877 -0.4207  1.0894 -0.1278
   61CHL1  H18C 6950   3.923   3.846   9.776  0.3004 -0.1213 -0.6870
   61CHL1   C12 6951   3.635   4.033   9.746  0.1311 -0.1803 -0.3882
   61CHL1  H12A 6952   3.691   4.096   9.675  1.3252  0.5001  1.1104
   61CHL1  H12B 6953   3.528   4.028   9.718 -0.4277  2.7842  0.8716
   61CHL1   C11 6954   3.626   4.114   9.883 -0.6419 -0.1119 -0.1136
   61CHL1  H11A 6955   3.725   4.155   9.913 -0.1350  1.0265 -3.0302
   61CHL1  H11B 6956   3.556   4.197   9.860  0.3887  0.8710  0.2205
   61CHL1    C9 6957   3.570   4.024   9.999  0.3261  0.6114  0.0010
   61CHL1    H9 6958   3.473   3.986   9.960  1.8931 -1.2296 -2.4210
   61CHL1   C10 6959   3.544   4.099  10.135  0.6389  0.7826  0.5173
   61CHL1   C19 6960   3.660   4.198  10.173 -0.2141  0.7779 -0.1109
   61CHL1  H19A 6961   3.641   4.254  10.266 -0.9725 -0.1330  0.3014
   61CHL1  H19B 6962   3.755   4.139  10.173  1.1205  2.8459  0.1580
   61CHL1  H19C 6963   3.672   4.270  10.089  0.7484 -0.6969 -1.3055
   61CHL1    C1 6964   3.410   4.174  10.126  0.3445 -0.1378 -0.1139
   61CHL1   H1A 6965   3.426   4.259  10.057  0.6180 -0.0369  0.0708
   61CHL1   H1B 6966   3.331   4.103  10.092  0.8330  0.4318 -2.5702
   61CHL1    C2 6967   3.369   4.231  10.260 -0.3654  0.4295 -0.1115
   61CHL1   H2A 6968   3.277   4.290  10.246  0.2708  1.7202  0.9236
   61CHL1   H2B 6969   3.450   4.302  10.287 -0.8274  0.0733  2.5415
   61CHL1   C20 6970   3.803   3.816   9.520  0.1103  0.6145 -0.6913
   61CHL1   H20 6971   3.909   3.800   9.550 -0.0462  2.2882  0.9029
   61CHL1   C21 6972   3.793   3.948   9.450  0.4485 -0.7963  0.5237
   61CHL1  H21A 6973   3.693   3.968   9.405  0.3199  0.6914  1.3993
   61CHL1  H21B 6974   3.852   3.960   9.356 -1.9695  1.0916 -0.8920
   61CHL1  H21C 6975   3.818   4.038   9.510  1.1549 -0.0037 -0.9201
   61CHL1   C22 6976   3.776   3.700   9.422  0.4424  0.3165 -0.4359
   61CHL1  H22A 6977   3.782   3.607   9.484  1.1240  0.0977 -0.8132
   61CHL1  H22B 6978   3.673   3.711   9.384 -0.2485  3.7049  1.9395
   61CHL1   C23 6979   3.880   3.690   9.315 -0.7943 -0.8101  0.2088
   61CHL1  H23A 6980   3.883   3.782   9.253 -1.8052 -2.5465 -2.5906
   61CHL1  H23B 6981   3.975   3.683   9.373 -0.5111  2.4699  0.3224
   61CHL1   C24 6982   3.866   3.573   9.224 -0.5150 -0.2299 -0.1400
   61CHL1  H24A 6983   3.859   3.481   9.286 -0.1572 -0.8670 -1.0192
   61CHL1  H24B 6984   3.771   3.581   9.166 -1.0918 -2.2789  0.4299
   61CHL1   C25 6985   3.988   3.545   9.139  0.7229  0.3535  0.7120
   61CHL1   H25 6986   4.081   3.555   9.198  2.0521  2.2695 -1.5985
   61CHL1   C26 6987   4.002   3.403   9.081  0.6664 -0.3292 -0.3703
   61CHL1  H26A 6988   4.084   3.407   9.007  1.0878  3.4069  0.0774
   61CHL1  H26B 6989   4.029   3.330   9.160 -0.2034  0.4202  0.6528
   61CHL1  H26C 6990   3.907   3.369   9.034  0.2576  1.5769 -1.0161
   61CHL1   C27 6991   3.993   3.647   9.020  0.4724  0.4152  0.4425
   61CHL1  H27A 6992   3.967   3.751   9.049  1.2198  1.3061 -1.8234
   61CHL1  H27B 6993   4.095   3.644   8.976  0.2929  0.7712 -0.0111
   61CHL1  H27C 6994   3.908   3.615   8.957 -1.3828  0.4449  2.8242
   62CHL1    C3 6995   4.053   6.305  10.148  0.8959 -0.3463 -0.3583
   62CHL1    H3 6996   4.050   6.416  10.152 -0.6997 -0.3496 -0.7669
   62CHL1    O3 6997   4.008   6.250  10.271  0.6113  0.8719 -0.1333
   62CHL1   H3' 6998   3.936   6.308  10.293  0.4350  0.4695  0.3679
   62CHL1    C4 6999   3.966   6.244  10.041  0.4363  0.7013 -0.3900
   62CHL1   H4A 7000   3.967   6.133  10.047  0.5520  0.7569  1.1211
   62CHL1   H4B 7001   3.862   6.271  10.070 -0.1965  0.0633 -1.9454
   62CHL1    C5 7002   3.997   6.285   9.898 -0.2945 -0.3768 -0.0893
   62CHL1    C6 7003   3.911   6.345   9.812 -0.4237 -0.3499 -0.1161
   62CHL1    H6 7004   3.809   6.356   9.851  0.4720  1.1931  2.0469
   62CHL1    C7 7005   3.942   6.391   9.669 -0.2030 -0.2845 -0.1080
   62CHL1   H7A 7006   3.860   6.362   9.599 -0.3156  0.4513 -0.2843
   62CHL1   H7B 7007   3.943   6.502   9.673  2.8186 -0.1786 -1.0416
   62CHL1    C8 7008   4.077   6.335   9.623 -0.1588 -0.3830  0.1970
   62CHL1    H8 7009   4.058   6.227   9.604 -0.4849 -0.0940 -1.2288
   62CHL1   C14 7010   4.130   6.405   9.497 -0.0223  0.2758 -0.6736
   62CHL1   H14 7011   4.148   6.511   9.526 -0.9062  0.3341 -0.2831
   62CHL1   C15 7012   4.043   6.409   9.373  0.1130 -0.3354  0.0458
   62CHL1  H15A 7013   4.001   6.309   9.350 -0.5202 -0.0297 -0.1622
   62CHL1  H15B 7014   3.963   6.481   9.402 -0.2694 -0.7287 -0.0335
   62CHL1   C16 7015   4.130   6.467   9.261  1.0062  0.2968 -0.1634
   62CHL1  H16A 7016   4.120   6.400   9.173 -1.4220 -1.9393  1.6683
   62CHL1  H16B 7017   4.104   6.572   9.235 -1.1224  0.0970  0.9660
   62CHL1   C17 7018   4.273   6.456   9.312 -0.3322  0.6086 -0.7916
   62CHL1   H17 7019   4.296   6.558   9.351 -1.0731  0.3336  0.4120
   62CHL1   C13 7020   4.270   6.360   9.442 -0.0518 -0.3540  0.3768
   62CHL1   C18 7021   4.249   6.214   9.393  0.2463  0.7520 -0.1871
   62CHL1  H18A 7022   4.181   6.193   9.308 -0.3491  1.2319  0.1642
   62CHL1  H18B 7023   4.347   6.168   9.367 -0.7441 -0.7928 -1.3821
   62CHL1  H18C 7024   4.195   6.159   9.473 -2.3934  1.2859 -1.4985
   62CHL1   C12 7025   4.372   6.374   9.554  0.0715 -0.6720 -0.3365
   62CHL1  H12A 7026   4.470   6.336   9.520  0.9030 -1.0251  2.2346
   62CHL1  H12B 7027   4.379   6.479   9.587 -0.8904 -0.6227 -0.2419
   62CHL1   C11 7028   4.325   6.304   9.687  0.0162  0.4428  0.7593
   62CHL1  H11A 7029   4.313   6.198   9.656 -0.6615  0.4504  0.9974
   62CHL1  H11B 7030   4.414   6.316   9.752  0.0633 -1.3527  1.0476
   62CHL1    C9 7031   4.183   6.346   9.735 -0.5333 -0.2474 -0.0627
   62CHL1    H9 7032   4.179   6.455   9.758 -0.4825  0.1742 -1.8777
   62CHL1   C10 7033   4.142   6.260   9.862 -0.4684 -0.5022  0.0129
   62CHL1   C19 7034   4.162   6.107   9.840  0.0581 -1.0670 -0.0702
   62CHL1  H19A 7035   4.135   6.055   9.934 -0.2174  1.4380  1.3015
   62CHL1  H19B 7036   4.101   6.068   9.755 -0.3211  1.2593 -0.9353
   62CHL1  H19C 7037   4.267   6.071   9.834  0.2357 -0.8922  1.5407
   62CHL1    C1 7038   4.238   6.310   9.976 -0.0968  0.8291 -0.7334
   62CHL1   H1A 7039   4.334   6.260   9.950 -1.1606 -1.1112 -1.1757
   62CHL1   H1B 7040   4.232   6.420   9.982 -0.6944  0.7349  1.9998
   62CHL1    C2 7041   4.201   6.270  10.117  0.2023 -0.0564 -0.6468
   62CHL1   H2A 7042   4.267   6.303  10.200  0.8659 -0.2336 -1.0938
   62CHL1   H2B 7043   4.204   6.159  10.121 -0.3583 -0.0327  2.7738
   62CHL1   C20 7044   4.364   6.417   9.198 -0.3501 -0.7754 -0.0496
   62CHL1   H20 7045   4.336   6.317   9.159  1.4251 -1.4430  0.2612
   62CHL1   C21 7046   4.512   6.399   9.238 -0.2705  0.3559  0.0893
   62CHL1  H21A 7047   4.561   6.491   9.277  0.4249 -1.1401  3.0870
   62CHL1  H21B 7048   4.559   6.358   9.146 -2.4273 -0.1197 -0.8554
   62CHL1  H21C 7049   4.519   6.324   9.320  0.0593 -0.6617 -0.8526
   62CHL1   C22 7050   4.350   6.515   9.081  0.5556  0.2015  0.4082
   62CHL1  H22A 7051   4.250   6.557   9.059  0.9622  1.0329  0.0699
   62CHL1  H22B 7052   4.409   6.606   9.110 -1.6402  1.9699 -0.3995
   62CHL1   C23 7053   4.415   6.473   8.946 -0.2199 -0.1768  0.2914
   62CHL1  H23A 7054   4.525   6.461   8.956 -0.4959 -1.9660  1.9863
   62CHL1  H23B 7055   4.380   6.370   8.921  3.3853 -1.1724 -1.3364
   62CHL1   C24 7056   4.401   6.579   8.838  0.7942  0.0791 -0.1551
   62CHL1  H24A 7057   4.293   6.598   8.819  0.6587 -0.8759 -0.4170
   62CHL1  H24B 7058   4.436   6.670   8.890  1.0039 -1.0055  1.6639
   62CHL1   C25 7059   4.478   6.553   8.711 -0.0056  0.1761 -0.1676
   62CHL1   H25 7060   4.578   6.514   8.742 -0.0408  0.5215  0.4109
   62CHL1   C26 7061   4.415   6.454   8.612  0.5463  0.0773  0.0906
   62CHL1  H26A 7062   4.311   6.488   8.593  0.9887  0.1260 -2.7093
   62CHL1  H26B 7063   4.462   6.459   8.511 -1.0215 -2.0042 -0.8326
   62CHL1  H26C 7064   4.414   6.353   8.660 -1.1005 -0.0844 -0.2267
   62CHL1   C27 7065   4.507   6.695   8.641 -0.0162  0.5954  0.1707
   62CHL1  H27A 7066   4.572   6.683   8.551  0.9015  2.8680  0.4492
   62CHL1  H27B 7067   4.408   6.737   8.615 -1.9264 -1.6425  3.2392
   62CHL1  H27C 7068   4.561   6.768   8.706 -0.2747  0.3941  0.6145
   63CHL1    C3 7069   6.046   0.660  10.271  0.5587 -1.1312 -0.8955
   63CHL1    H3 7070   6.087   0.558  10.255  1.6662 -0.7513 -0.5763
   63CHL1    O3 7071   6.046   0.681  10.413 -0.2946 -0.4635  0.5997
   63CHL1   H3' 7072   5.974   0.629  10.449 -1.5956  1.6185  1.1519
   63CHL1    C4 7073   6.120   0.769  10.200  1.0656  0.2919  0.0178
   63CHL1   H4A 7074   6.062   0.862  10.219 -0.0326 -0.2590 -0.5379
   63CHL1   H4B 7075   6.220   0.796  10.241  0.9893  0.8722 -0.1619
   63CHL1    C5 7076   6.120   0.742  10.050 -0.1864 -0.6033  0.9237
   63CHL1    C6 7077   6.234   0.724   9.981 -0.2858  0.0081  0.8315
   63CHL1    H6 7078   6.327   0.734  10.038  0.5398  0.4027 -0.5329
   63CHL1    C7 7079   6.241   0.697   9.832 -0.4141  0.0063 -0.0859
   63CHL1   H7A 7080   6.312   0.760   9.774  1.1178 -0.4715  1.1976
   63CHL1   H7B 7081   6.284   0.594   9.825 -0.2113  0.0214  0.7947
   63CHL1    C8 7082   6.105   0.723   9.765  0.6389 -0.1714  0.0083
   63CHL1    H8 7083   6.106   0.833   9.753  0.7922 -0.2666 -1.0000
   63CHL1   C14 7084   6.091   0.661   9.625 -0.6897 -0.2544 -0.4148
   63CHL1   H14 7085   6.103   0.552   9.643 -0.2926 -0.1211  0.1590
   63CHL1   C15 7086   6.204   0.690   9.524 -0.1874 -0.1810  0.0084
   63CHL1  H15A 7087   6.227   0.797   9.541  2.4133 -0.9607  2.0805
   63CHL1  H15B 7088   6.296   0.636   9.554  0.9617  1.1594 -0.9137
   63CHL1   C16 7089   6.147   0.666   9.387  0.5931 -0.5829  0.0686
   63CHL1  H16A 7090   6.162   0.761   9.333 -0.5927 -0.2314  0.3225
   63CHL1  H16B 7091   6.192   0.581   9.331  0.3185  0.3022 -1.5450
   63CHL1   C17 7092   5.993   0.640   9.401 -0.3058 -0.1887 -0.1841
   63CHL1   H17 7093   5.971   0.531   9.405 -2.3930  0.1745 -0.6111
   63CHL1   C13 7094   5.964   0.691   9.552 -0.1595 -0.8593  0.5872
   63CHL1   C18 7095   5.938   0.837   9.535 -0.3695  0.2779  0.2693
   63CHL1  H18A 7096   5.924   0.892   9.630 -2.0473 -2.7261  1.9254
   63CHL1  H18B 7097   6.020   0.888   9.481 -0.3177  0.7367  0.7756
   63CHL1  H18C 7098   5.841   0.852   9.483  0.4323  1.2488 -0.9820
   63CHL1   C12 7099   5.853   0.613   9.632  0.5390  0.1129  0.1782
   63CHL1  H12A 7100   5.756   0.630   9.581  0.6582  0.1005 -0.0535
   63CHL1  H12B 7101   5.893   0.510   9.625  1.5609  0.5526 -0.6258
   63CHL1   C11 7102   5.858   0.650   9.780 -0.2669  0.0272  0.0420
   63CHL1  H11A 7103   5.790   0.737   9.790 -0.6898 -0.1256 -1.2247
   63CHL1  H11B 7104   5.804   0.564   9.826 -0.4810  0.4868  0.6608
   63CHL1    C9 7105   5.995   0.671   9.844  0.1930 -0.1988  0.3183
   63CHL1    H9 7106   6.020   0.565   9.863 -1.1530 -1.2041 -2.7700
   63CHL1   C10 7107   5.980   0.728   9.981 -1.0808 -0.1184 -0.3998
   63CHL1   C19 7108   5.914   0.869   9.971 -0.1117  0.1873  0.4005
   63CHL1  H19A 7109   5.803   0.869   9.971 -0.1265  0.8398 -0.4364
   63CHL1  H19B 7110   5.944   0.936  10.055 -0.8206  1.7844 -0.5705
   63CHL1  H19C 7111   5.936   0.920   9.874 -3.1262 -1.4795 -1.3200
   63CHL1    C1 7112   5.890   0.632  10.070 -0.7889 -0.7527 -0.3270
   63CHL1   H1A 7113   5.782   0.647  10.049 -0.9956 -1.0699  0.4900
   63CHL1   H1B 7114   5.914   0.525  10.049  1.8907  0.0683 -1.9245
   63CHL1    C2 7115   5.897   0.657  10.224  0.7269  0.3061  0.1515
   63CHL1   H2A 7116   5.837   0.575  10.270 -0.8611  1.2939 -0.0578
   63CHL1   H2B 7117   5.849   0.756  10.241  0.8240  0.3514  0.1619
   63CHL1   C20 7118   5.907   0.693   9.288  0.1137  0.0370  0.8588
   63CHL1   H20 7119   5.901   0.803   9.300  1.2888  0.5707 -2.4563
   63CHL1   C21 7120   5.765   0.634   9.294 -0.3920  0.2585  0.1609
   63CHL1  H21A 7121   5.719   0.628   9.395  0.2703  0.2809  0.4734
   63CHL1  H21B 7122   5.759   0.528   9.261 -0.2238  0.8095 -1.7381
   63CHL1  H21C 7123   5.691   0.687   9.230  2.2419  1.8430 -1.7534
   63CHL1   C22 7124   5.978   0.681   9.154 -0.1465  0.3507 -0.6414
   63CHL1  H22A 7125   6.071   0.742   9.156 -0.4278  0.7905 -0.9581
   63CHL1  H22B 7126   6.009   0.577   9.129 -1.1378  0.1964 -1.2622
   63CHL1   C23 7127   5.893   0.719   9.038 -0.3845 -0.1192  0.4262
   63CHL1  H23A 7128   5.931   0.674   8.944  0.1779 -0.3536  0.7658
   63CHL1  H23B 7129   5.786   0.691   9.053 -0.4638  1.3724  3.2333
   63CHL1   C24 7130   5.871   0.869   9.014 -0.1533  1.0153 -0.2779
   63CHL1  H24A 7131   5.852   0.910   9.116  1.4949 -1.6859  1.2288
   63CHL1  H24B 7132   5.969   0.912   8.983  0.6273 -0.9872 -0.7081
   63CHL1   C25 7133   5.780   0.919   8.907  0.2741  0.5644 -0.2000
   63CHL1   H25 7134   5.679   0.897   8.948  0.9424  0.0337  1.2099
   63CHL1   C26 7135   5.790   1.071   8.889 -0.0374  0.1595 -0.3802
   63CHL1  H26A 7136   5.780   1.123   8.987 -1.2517  1.4144 -1.1312
   63CHL1  H26B 7137   5.890   1.099   8.848  0.3777 -0.1587  0.3888
   63CHL1  H26C 7138   5.720   1.114   8.813 -0.9869  0.8468  0.8455
   63CHL1   C27 7139   5.805   0.840   8.779  0.6066  0.2648  0.0186
   63CHL1  H27A 7140   5.913   0.855   8.758  0.3527  1.6527 -0.3965
   63CHL1  H27B 7141   5.791   0.731   8.793  2.1238  0.3102  2.3940
   63CHL1  H27C 7142   5.754   0.887   8.692  0.0395  0.9188  0.6951
   64CHL1    C3 7143   5.213   0.747  10.110  0.2117  0.0979  0.3351
   64CHL1    H3 7144   5.250   0.642  10.104  0.8146  0.2021  1.8046
   64CHL1    O3 7145   5.174   0.767  10.241  0.2188  0.1837 -0.5878
   64CHL1   H3' 7146   5.114   0.697  10.267  0.0973 -0.1960 -1.8256
   64CHL1    C4 7147   5.329   0.846  10.076  0.4587 -0.0269 -0.1805
   64CHL1   H4A 7148   5.291   0.945  10.109  0.2121 -0.3372  0.4905
   64CHL1   H4B 7149   5.414   0.825  10.144  0.2348  1.2821  0.5287
   64CHL1    C5 7150   5.358   0.845   9.924  0.1530  0.0641  0.6443
   64CHL1    C6 7151   5.482   0.831   9.865 -0.1180 -0.2285 -0.0130
   64CHL1    H6 7152   5.571   0.821   9.928 -0.5509  1.1973  0.8740
   64CHL1    C7 7153   5.522   0.834   9.717  0.1081 -0.1237  0.2345
   64CHL1   H7A 7154   5.619   0.887   9.716  0.2348 -0.3027  1.4733
   64CHL1   H7B 7155   5.538   0.732   9.675 -1.8892 -1.0671  1.6368
   64CHL1    C8 7156   5.407   0.893   9.638  0.4198 -0.6910 -0.2637
   64CHL1    H8 7157   5.406   1.002   9.661 -0.0438 -0.4167 -1.5122
   64CHL1   C14 7158   5.419   0.872   9.484  0.7667 -0.4136  0.1686
   64CHL1   H14 7159   5.415   0.761   9.474  1.9140 -0.6643  2.0445
   64CHL1   C15 7160   5.550   0.910   9.415 -0.1454  0.3271  0.0591
   64CHL1  H15A 7161   5.595   1.005   9.451  1.5370 -0.9068  1.3649
   64CHL1  H15B 7162   5.623   0.832   9.443  0.6199  0.9074 -0.2852
   64CHL1   C16 7163   5.511   0.927   9.267 -0.3740 -0.1698 -0.0180
   64CHL1  H16A 7164   5.535   1.033   9.242 -1.6903  0.2388  0.3336
   64CHL1  H16B 7165   5.579   0.870   9.200 -0.8279 -0.9920  0.2095
   64CHL1   C17 7166   5.364   0.907   9.251  0.1097  0.9791 -0.1616
   64CHL1   H17 7167   5.355   0.797   9.238  0.7857  1.1506 -2.6044
   64CHL1   C13 7168   5.307   0.934   9.398  0.3538 -0.8994 -0.0639
   64CHL1   C18 7169   5.299   1.085   9.421  0.5347 -0.5995 -0.5637
   64CHL1  H18A 7170   5.226   1.124   9.346  1.2671 -1.4029 -1.7434
   64CHL1  H18B 7171   5.273   1.112   9.525 -1.3818  2.2989 -1.6519
   64CHL1  H18C 7172   5.398   1.133   9.404  0.8620 -0.6470  1.0454
   64CHL1   C12 7173   5.179   0.855   9.429 -0.0058  0.0106 -0.6884
   64CHL1  H12A 7174   5.089   0.899   9.381 -0.4547 -0.1959 -0.0619
   64CHL1  H12B 7175   5.182   0.749   9.395 -0.8208  0.1614 -1.2681
   64CHL1   C11 7176   5.150   0.866   9.576 -0.5139 -0.5776  0.2899
   64CHL1  H11A 7177   5.128   0.974   9.595 -2.0980 -0.4681 -1.8698
   64CHL1  H11B 7178   5.066   0.801   9.608 -2.4888  1.0875 -1.2350
   64CHL1    C9 7179   5.268   0.838   9.674 -0.7037  0.5015 -0.0588
   64CHL1    H9 7180   5.299   0.732   9.672  0.2159  0.6946  1.8433
   64CHL1   C10 7181   5.238   0.865   9.827 -0.0426  0.3366  0.0596
   64CHL1   C19 7182   5.181   1.009   9.840 -0.4151  0.6035 -0.5749
   64CHL1  H19A 7183   5.178   1.043   9.946 -1.4235 -0.1547 -0.3425
   64CHL1  H19B 7184   5.236   1.083   9.779  1.9968 -1.3261 -0.8856
   64CHL1  H19C 7185   5.073   1.014   9.813 -0.6575 -0.1546  0.2161
   64CHL1    C1 7186   5.123   0.762   9.866 -0.1835  0.4063  0.2151
   64CHL1   H1A 7187   5.033   0.796   9.811 -0.0064  0.7737  0.1482
   64CHL1   H1B 7188   5.148   0.664   9.822  0.1519  0.8896 -0.7045
   64CHL1    C2 7189   5.091   0.767  10.020  0.7049  0.4276 -0.0868
   64CHL1   H2A 7190   5.008   0.700  10.052 -0.1798  0.7396 -1.6216
   64CHL1   H2B 7191   5.056   0.869  10.045  0.0179  0.2479 -0.3035
   64CHL1   C20 7192   5.309   0.959   9.114  0.0092  1.1311 -0.2783
   64CHL1   H20 7193   5.344   1.064   9.120  0.3844  0.9020  2.8027
   64CHL1   C21 7194   5.153   0.964   9.119  0.6685  0.8473 -0.1065
   64CHL1  H21A 7195   5.121   1.034   9.198 -0.1154 -1.5136  1.7780
   64CHL1  H21B 7196   5.111   0.865   9.145 -1.3563  1.7766  0.3874
   64CHL1  H21C 7197   5.106   1.002   9.025 -0.6498  1.4740  0.7816
   64CHL1   C22 7198   5.365   0.888   8.994 -0.0321  0.1000  0.6983
   64CHL1  H22A 7199   5.474   0.871   9.005  0.2518  1.8539  0.7708
   64CHL1  H22B 7200   5.310   0.791   8.987 -0.5640  0.5179 -3.4228
   64CHL1   C23 7201   5.346   0.971   8.861  0.0276 -0.3367 -0.3200
   64CHL1  H23A 7202   5.239   0.960   8.833 -0.2354 -0.6527  0.7634
   64CHL1  H23B 7203   5.399   1.068   8.863 -0.7868  0.1063  0.0885
   64CHL1   C24 7204   5.419   0.905   8.747  0.4554  0.6334  0.2770
   64CHL1  H24A 7205   5.528   0.917   8.766  0.0181  2.6754  1.8909
   64CHL1  H24B 7206   5.410   0.794   8.749 -0.1695  0.6736  2.5565
   64CHL1   C25 7207   5.387   0.972   8.613  0.0533 -0.3169  0.3276
   64CHL1   H25 7208   5.333   1.068   8.628 -2.1618 -1.5553  0.7485
   64CHL1   C26 7209   5.515   0.994   8.536  0.0450  0.0259 -0.2032
   64CHL1  H26A 7210   5.493   1.044   8.439 -3.1684 -1.3687 -0.3296
   64CHL1  H26B 7211   5.569   1.070   8.596 -0.9199  0.3837  0.2400
   64CHL1  H26C 7212   5.559   0.895   8.512 -0.5088  0.3838 -3.1068
   64CHL1   C27 7213   5.287   0.887   8.527 -0.2882  0.7123 -0.3837
   64CHL1  H27A 7214   5.289   0.909   8.418  0.5308 -0.0330 -0.5338
   64CHL1  H27B 7215   5.307   0.778   8.540  0.4506  0.9848  0.9431
   64CHL1  H27C 7216   5.179   0.900   8.550 -0.3177  0.6728 -0.4958
   65CHL1    C3 7217   0.593   5.120  10.077  0.1043 -0.3952 -0.2145
   65CHL1    H3 7218   0.643   5.022  10.059 -0.2878 -0.8001  0.8053
   65CHL1    O3 7219   0.629   5.180  10.198  0.1339  0.7576 -0.2013
   65CHL1   H3' 7220   0.565   5.136  10.256  0.0464  0.3995 -0.5630
   65CHL1    C4 7221   0.638   5.215   9.963  0.0227 -0.4640 -0.4462
   65CHL1   H4A 7222   0.581   5.310   9.972 -0.9904 -0.9690 -1.2377
   65CHL1   H4B 7223   0.739   5.253   9.987  0.2686  0.3870 -2.6444
   65CHL1    C5 7224   0.609   5.159   9.826 -0.5721 -0.0461  0.6557
   65CHL1    C6 7225   0.711   5.147   9.737 -0.0189 -0.3318 -0.2831
   65CHL1    H6 7226   0.806   5.191   9.772 -0.5652  1.8276 -1.3222
   65CHL1    C7 7227   0.698   5.089   9.607  0.7161 -0.0490  0.0638
   65CHL1   H7A 7228   0.739   5.157   9.530 -0.1564  0.0275 -0.3447
   65CHL1   H7B 7229   0.737   4.986   9.595 -0.7015 -0.5056 -0.8778
   65CHL1    C8 7230   0.550   5.061   9.568 -0.0280 -0.5099 -0.3582
   65CHL1    H8 7231   0.511   5.162   9.542 -2.1593 -1.2334 -0.1063
   65CHL1   C14 7232   0.547   4.977   9.438  0.3114  0.8193 -0.0611
   65CHL1   H14 7233   0.583   4.880   9.477 -2.1685  0.2967  1.1830
   65CHL1   C15 7234   0.621   5.023   9.312 -0.2831 -0.3497 -0.4780
   65CHL1  H15A 7235   0.595   5.130   9.299 -0.0257 -0.3638 -1.1515
   65CHL1  H15B 7236   0.731   5.014   9.318 -0.1728  1.0287  0.0411
   65CHL1   C16 7237   0.553   4.939   9.197 -0.7073  0.4434  0.2006
   65CHL1  H16A 7238   0.537   5.005   9.110  2.2722  0.9487 -0.0562
   65CHL1  H16B 7239   0.628   4.863   9.166 -2.0263 -0.4317 -0.9552
   65CHL1   C17 7240   0.433   4.873   9.268 -0.1891 -0.1665  0.0370
   65CHL1   H17 7241   0.481   4.782   9.309 -1.7990 -0.9559  0.2035
   65CHL1   C13 7242   0.403   4.955   9.396 -0.1547  0.2056 -0.1395
   65CHL1   C18 7243   0.328   5.087   9.358 -0.1769 -0.1134 -0.3647
   65CHL1  H18A 7244   0.224   5.055   9.337 -0.1300 -0.2272 -0.4271
   65CHL1  H18B 7245   0.326   5.165   9.437  1.0982  0.8495 -1.2436
   65CHL1  H18C 7246   0.376   5.118   9.262 -1.0624 -0.7812 -1.0436
   65CHL1   C12 7247   0.327   4.890   9.514  0.0566 -0.5545 -0.4290
   65CHL1  H12A 7248   0.220   4.890   9.484 -0.1436  0.2302  0.2498
   65CHL1  H12B 7249   0.377   4.792   9.533  0.4619 -0.1681  0.5678
   65CHL1   C11 7250   0.324   4.974   9.648 -0.3163  0.2479  0.6343
   65CHL1  H11A 7251   0.272   5.071   9.632 -1.4608  0.3518  4.1036
   65CHL1  H11B 7252   0.276   4.916   9.730 -0.2005 -0.4136  0.2405
   65CHL1    C9 7253   0.462   5.016   9.688  0.0846  0.5457  0.5406
   65CHL1    H9 7254   0.519   4.925   9.715  0.5178 -0.1708 -2.4538
   65CHL1   C10 7255   0.457   5.109   9.812 -0.5859  1.0327  0.4922
   65CHL1   C19 7256   0.365   5.231   9.788 -0.0436  0.1292  0.4108
   65CHL1  H19A 7257   0.257   5.207   9.796 -1.1833  3.0945 -2.9382
   65CHL1  H19B 7258   0.380   5.316   9.859  2.9700  0.2720 -0.2471
   65CHL1  H19C 7259   0.382   5.276   9.687 -0.6659  0.5991  0.5068
   65CHL1    C1 7260   0.407   5.028   9.938 -0.2347 -0.5392  0.5070
   65CHL1   H1A 7261   0.297   5.011   9.939 -0.1960 -0.8278  1.4162
   65CHL1   H1B 7262   0.457   4.929   9.926  1.4641  0.3596 -0.0556
   65CHL1    C2 7263   0.442   5.089  10.074 -0.4035  0.1714  0.4268
   65CHL1   H2A 7264   0.413   5.017  10.153 -0.2021  0.5443  0.8445
   65CHL1   H2B 7265   0.377   5.180  10.076 -1.8338 -0.8134  3.3132
   65CHL1   C20 7266   0.315   4.834   9.181 -0.6274  0.4831 -0.2634
   65CHL1   H20 7267   0.219   4.829   9.237 -0.2164 -0.6351  0.3729
   65CHL1   C21 7268   0.349   4.702   9.117 -0.5237 -0.2480  0.1720
   65CHL1  H21A 7269   0.438   4.704   9.051  0.5334  0.1113  1.5600
   65CHL1  H21B 7270   0.264   4.666   9.056 -1.4185  0.1629  1.1377
   65CHL1  H21C 7271   0.374   4.637   9.203 -0.6818  1.5396  1.6494
   65CHL1   C22 7272   0.297   4.935   9.068  0.0879 -0.3827  0.7233
   65CHL1  H22A 7273   0.323   5.034   9.111  0.7321  0.4418 -1.4430
   65CHL1  H22B 7274   0.366   4.922   8.983 -1.4925 -0.4462 -0.6013
   65CHL1   C23 7275   0.158   4.935   9.000 -0.5557  0.3294 -0.4514
   65CHL1  H23A 7276   0.114   4.839   8.966  0.1155  0.2201 -1.0342
   65CHL1  H23B 7277   0.095   4.982   9.079 -1.8055 -1.1305 -0.5327
   65CHL1   C24 7278   0.157   5.043   8.887  0.3104 -0.6271  0.0907
   65CHL1  H24A 7279   0.162   5.142   8.936  0.8100 -0.6642  0.1248
   65CHL1  H24B 7280   0.249   5.043   8.824  0.9235  1.5735  0.8790
   65CHL1   C25 7281   0.037   5.055   8.795  0.4944 -0.3740  0.8161
   65CHL1   H25 7282  -0.053   5.049   8.860 -0.5399  1.5499 -0.3642
   65CHL1   C26 7283   0.031   5.194   8.726 -0.0326 -0.4075 -0.0448
   65CHL1  H26A 7284  -0.064   5.203   8.670  0.8987  3.0217 -1.3004
   65CHL1  H26B 7285   0.040   5.264   8.811  0.3860 -1.2206  0.6021
   65CHL1  H26C 7286   0.114   5.213   8.654  0.2854 -0.2777  0.3477
   65CHL1   C27 7287   0.033   4.930   8.703 -0.3910  0.2602 -0.5484
   65CHL1  H27A 7288  -0.041   4.953   8.623 -0.8089  0.6773 -0.0507
   65CHL1  H27B 7289   0.137   4.912   8.668  0.4110  1.0857  1.2553
   65CHL1  H27C 7290  -0.002   4.841   8.760 -1.2085  0.6909 -0.3678
   66CHL1    C3 7291   4.413   1.146  10.301  0.4305  0.3001 -0.1091
   66CHL1    H3 7292   4.489   1.223  10.328 -0.1822  1.3169 -1.1812
   66CHL1    O3 7293   4.402   1.053  10.411 -0.0079  0.1140 -0.0135
   66CHL1   H3' 7294   4.405   1.117  10.482  1.2481  1.2446 -1.0269
   66CHL1    C4 7295   4.287   1.223  10.269 -1.0928  0.1461  0.5326
   66CHL1   H4A 7296   4.200   1.153  10.265 -0.3630 -0.9259  2.3511
   66CHL1   H4B 7297   4.266   1.283  10.359  0.6413  1.4679  0.1005
   66CHL1    C5 7298   4.299   1.309  10.145 -0.9208  0.3580  0.0877
   66CHL1    C6 7299   4.267   1.434  10.154  0.2448 -0.1708  0.0915
   66CHL1    H6 7300   4.241   1.474  10.254 -1.1903 -0.1383 -0.2762
   66CHL1    C7 7301   4.267   1.526  10.031 -0.3091 -0.0258 -0.4221
   66CHL1   H7A 7302   4.168   1.578  10.034  0.1134  0.7990 -0.2963
   66CHL1   H7B 7303   4.352   1.596  10.044  1.0238 -1.8023  0.8900
   66CHL1    C8 7304   4.279   1.454   9.893  0.2755  0.0642  0.2365
   66CHL1    H8 7305   4.181   1.410   9.867 -0.8905  1.3722  2.2058
   66CHL1   C14 7306   4.325   1.553   9.781  0.2881 -0.5912  0.6234
   66CHL1   H14 7307   4.430   1.583   9.803  0.5024 -0.5673 -0.3907
   66CHL1   C15 7308   4.247   1.685   9.775  0.2635  0.0350 -0.6592
   66CHL1  H15A 7309   4.138   1.661   9.785  0.1913  1.2944  3.2074
   66CHL1  H15B 7310   4.281   1.756   9.853  0.7111  0.0154 -0.8350
   66CHL1   C16 7311   4.282   1.727   9.637 -0.6308  0.3039 -1.4103
   66CHL1  H16A 7312   4.193   1.765   9.581 -2.0291 -0.9209 -0.1130
   66CHL1  H16B 7313   4.358   1.807   9.636 -0.5777  0.2598 -0.8159
   66CHL1   C17 7314   4.343   1.610   9.561  0.2131  0.2201  0.2724
   66CHL1   H17 7315   4.452   1.629   9.571  0.6811 -2.6134  1.5468
   66CHL1   C13 7316   4.316   1.490   9.644  0.0326  0.9564  0.4488
   66CHL1   C18 7317   4.171   1.434   9.609  0.0312  0.1434  0.1060
   66CHL1  H18A 7318   4.107   1.523   9.630  3.0105  1.9595  2.4178
   66CHL1  H18B 7319   4.158   1.405   9.503  0.1322 -1.7540  0.5706
   66CHL1  H18C 7320   4.147   1.343   9.668  0.6398 -0.5114 -0.6461
   66CHL1   C12 7321   4.423   1.376   9.652 -0.3227  0.7414  0.2032
   66CHL1  H12A 7322   4.415   1.305   9.567  1.0025 -0.0217  0.6939
   66CHL1  H12B 7323   4.521   1.428   9.646 -0.3413  0.9162  1.2838
   66CHL1   C11 7324   4.409   1.272   9.770  0.4795 -0.6834  0.0527
   66CHL1  H11A 7325   4.332   1.197   9.739  0.6658 -0.3659 -1.2121
   66CHL1  H11B 7326   4.497   1.204   9.769 -0.5482 -2.0913 -1.5610
   66CHL1    C9 7327   4.381   1.335   9.905 -0.2655 -0.0738  0.4171
   66CHL1    H9 7328   4.479   1.380   9.931 -1.2274  1.0944  2.2254
   66CHL1   C10 7329   4.345   1.238  10.019  0.0774 -0.4398  1.2418
   66CHL1   C19 7330   4.226   1.145   9.974  0.2117  0.4894 -0.3717
   66CHL1  H19A 7331   4.190   1.073  10.052  1.4877 -1.4928 -1.5172
   66CHL1  H19B 7332   4.141   1.206   9.939  1.0219  2.0307  0.2522
   66CHL1  H19C 7333   4.269   1.077   9.897 -0.0753  1.1914 -1.1646
   66CHL1    C1 7334   4.468   1.157  10.055  0.0006  0.2059  0.0773
   66CHL1   H1A 7335   4.491   1.088   9.970  0.8124  0.6745 -0.0945
   66CHL1   H1B 7336   4.557   1.223  10.066 -0.0879  0.4956 -0.8449
   66CHL1    C2 7337   4.463   1.075  10.181 -0.1669  0.6263 -0.1777
   66CHL1   H2A 7338   4.563   1.035  10.208 -0.6775 -0.2187  0.5069
   66CHL1   H2B 7339   4.399   0.985  10.167  1.3820 -1.1918  3.2696
   66CHL1   C20 7340   4.299   1.611   9.411  0.6012  1.6117  0.0553
   66CHL1   H20 7341   4.189   1.598   9.402  0.3957  1.0572  2.5269
   66CHL1   C21 7342   4.376   1.495   9.344 -0.4472  0.4103  0.6471
   66CHL1  H21A 7343   4.370   1.481   9.234 -0.8732  1.6052  0.4969
   66CHL1  H21B 7344   4.354   1.396   9.390  0.2078  0.5831  1.3416
   66CHL1  H21C 7345   4.485   1.514   9.349 -0.7472  2.4668  0.3627
   66CHL1   C22 7346   4.343   1.739   9.337  0.5649  0.1978  0.1309
   66CHL1  H22A 7347   4.303   1.830   9.387 -2.2337 -0.2279 -1.1103
   66CHL1  H22B 7348   4.449   1.745   9.304 -0.3156  1.8593 -2.7571
   66CHL1   C23 7349   4.275   1.756   9.197  0.8095 -0.5363  0.5062
   66CHL1  H23A 7350   4.347   1.734   9.116  1.1901  2.0990  0.0368
   66CHL1  H23B 7351   4.182   1.694   9.199 -0.0481  0.6878 -0.4612
   66CHL1   C24 7352   4.224   1.898   9.154  0.8508 -0.2285 -0.3814
   66CHL1  H24A 7353   4.165   1.940   9.238  0.0579  0.4691 -1.2724
   66CHL1  H24B 7354   4.309   1.970   9.150  0.0451  0.7722  0.1552
   66CHL1   C25 7355   4.131   1.899   9.030 -0.0985 -0.2164  0.0224
   66CHL1   H25 7356   4.031   1.862   9.059 -1.6102  3.0459 -0.5532
   66CHL1   C26 7357   4.115   2.038   8.964 -0.3687  0.4610  0.0121
   66CHL1  H26A 7358   4.221   2.069   8.954 -0.3149  1.4208  2.7465
   66CHL1  H26B 7359   4.060   2.033   8.867  1.1987 -1.0958 -0.8476
   66CHL1  H26C 7360   4.069   2.118   9.025 -0.4828  0.4027  0.0026
   66CHL1   C27 7361   4.202   1.818   8.919  0.5578  0.0365 -0.4608
   66CHL1  H27A 7362   4.220   1.710   8.940  1.1314 -0.1565 -1.8289
   66CHL1  H27B 7363   4.134   1.817   8.832 -0.6286 -1.6104  0.4298
   66CHL1  H27C 7364   4.303   1.857   8.892  0.1419  1.7022  0.2750
   67CHL1    C3 7365   4.144   5.540  10.213  0.0615 -1.0749 -0.1241
   67CHL1    H3 7366   4.245   5.494  10.215  0.3002 -0.6279 -1.2765
   67CHL1    O3 7367   4.092   5.526  10.342  0.0782  0.7412 -0.0574
   67CHL1   H3' 7368   4.068   5.433  10.349  0.6264  0.7044  2.4063
   67CHL1    C4 7369   4.161   5.682  10.170 -0.2863  0.0116  0.1311
   67CHL1   H4A 7370   4.066   5.737  10.186 -1.0950 -0.8177 -1.5451
   67CHL1   H4B 7371   4.232   5.737  10.236 -1.6886 -0.5385  2.2080
   67CHL1    C5 7372   4.196   5.695  10.020 -0.7789  0.4752 -1.1655
   67CHL1    C6 7373   4.305   5.770   9.992 -0.2613  0.7337 -0.5766
   67CHL1    H6 7374   4.360   5.820  10.072 -1.3758  0.0969  0.6207
   67CHL1    C7 7375   4.357   5.804   9.848  0.8176 -0.7211 -0.3876
   67CHL1   H7A 7376   4.374   5.913   9.837  0.4990 -0.3723  2.0719
   67CHL1   H7B 7377   4.452   5.748   9.835  0.9794 -0.3623 -0.7784
   67CHL1    C8 7378   4.257   5.745   9.740  0.2620  0.4754 -0.3829
   67CHL1    H8 7379   4.180   5.824   9.727  1.1661  1.0558 -2.8939
   67CHL1   C14 7380   4.327   5.740   9.603  0.2835 -0.1290  0.2077
   67CHL1   H14 7381   4.412   5.669   9.612  1.3391  1.0269 -0.3469
   67CHL1   C15 7382   4.395   5.874   9.554 -0.4498 -0.0974  0.5269
   67CHL1  H15A 7383   4.336   5.968   9.553 -0.8183 -0.3217  0.7981
   67CHL1  H15B 7384   4.489   5.887   9.612  0.0607 -4.2748  0.9808
   67CHL1   C16 7385   4.421   5.846   9.404 -0.5376 -0.5062 -0.0410
   67CHL1  H16A 7386   4.375   5.928   9.346  0.1949 -0.0349  0.0212
   67CHL1  H16B 7387   4.528   5.829   9.377 -0.7710 -0.6056 -0.9266
   67CHL1   C17 7388   4.334   5.718   9.366 -0.7664 -0.3074  0.6614
   67CHL1   H17 7389   4.412   5.641   9.382  0.4104  1.0875  2.0073
   67CHL1   C13 7390   4.239   5.692   9.490 -0.4378 -0.5544 -0.2255
   67CHL1   C18 7391   4.117   5.786   9.484 -0.6537 -0.4187 -0.4826
   67CHL1  H18A 7392   4.055   5.776   9.575 -1.0024 -1.8825 -0.8496
   67CHL1  H18B 7393   4.142   5.892   9.461  0.2490 -0.2471  1.1670
   67CHL1  H18C 7394   4.066   5.747   9.393  0.9197  0.6273 -1.8935
   67CHL1   C12 7395   4.200   5.553   9.527  0.5115 -0.1310 -0.8415
   67CHL1  H12A 7396   4.127   5.505   9.458 -0.3172 -2.9769  1.7728
   67CHL1  H12B 7397   4.289   5.486   9.528 -1.0658 -2.4440 -2.9033
   67CHL1   C11 7398   4.130   5.543   9.659  0.4811  0.2875 -0.8333
   67CHL1  H11A 7399   4.026   5.578   9.642 -0.8706 -4.1566 -3.0787
   67CHL1  H11B 7400   4.111   5.438   9.690 -0.3566  0.9465  1.0568
   67CHL1    C9 7401   4.199   5.610   9.779 -0.4043 -0.5250 -0.4855
   67CHL1    H9 7402   4.292   5.551   9.798 -0.9360 -1.2559 -0.1189
   67CHL1   C10 7403   4.122   5.606   9.920 -0.2646 -0.4413  0.1093
   67CHL1   C19 7404   3.986   5.673   9.910  1.0663 -0.7022  0.9995
   67CHL1  H19A 7405   3.934   5.691  10.006  2.4548 -0.3943  1.7246
   67CHL1  H19B 7406   3.991   5.771   9.858  1.1372 -1.7530 -1.0927
   67CHL1  H19C 7407   3.920   5.603   9.855  0.7288  0.4943 -0.1919
   67CHL1    C1 7408   4.101   5.463   9.977  0.2251  0.5201 -0.0650
   67CHL1   H1A 7409   4.039   5.397   9.912 -2.4407  1.4430  1.3944
   67CHL1   H1B 7410   4.204   5.422   9.971  0.0703 -0.0215  0.8090
   67CHL1    C2 7411   4.057   5.455  10.127  1.2416 -0.0363  0.0471
   67CHL1   H2A 7412   4.056   5.348  10.157  1.0815  0.1069  0.5664
   67CHL1   H2B 7413   3.951   5.485  10.143  1.0212 -1.7563  2.3222
   67CHL1   C20 7414   4.271   5.722   9.226 -1.1741 -0.0531  0.0546
   67CHL1   H20 7415   4.180   5.785   9.230 -0.2054  1.3505  0.8128
   67CHL1   C21 7416   4.229   5.582   9.180  0.2470  0.1561 -0.0550
   67CHL1  H21A 7417   4.179   5.520   9.257 -0.1272  0.6160  0.0773
   67CHL1  H21B 7418   4.317   5.528   9.140  0.1696 -1.0704  1.3267
   67CHL1  H21C 7419   4.159   5.597   9.095 -0.6768  0.8516  0.8117
   67CHL1   C22 7420   4.364   5.777   9.117  0.2748  0.1882 -0.3441
   67CHL1  H22A 7421   4.408   5.872   9.155 -0.9377  1.1101 -1.1905
   67CHL1  H22B 7422   4.449   5.707   9.104 -1.2943 -1.8700  0.0608
   67CHL1   C23 7423   4.308   5.793   8.984  0.3180  0.5378  0.6730
   67CHL1  H23A 7424   4.300   5.689   8.945  0.3407  0.6683  0.3176
   67CHL1  H23B 7425   4.211   5.846   8.990  0.9318  1.5991  1.6213
   67CHL1   C24 7426   4.398   5.872   8.891  0.0280 -1.0801  0.6203
   67CHL1  H24A 7427   4.400   5.978   8.924 -0.6763 -0.0795 -2.2205
   67CHL1  H24B 7428   4.497   5.822   8.891  0.1813 -0.7755  0.3032
   67CHL1   C25 7429   4.356   5.880   8.743 -0.1073  0.5131 -0.3962
   67CHL1   H25 7430   4.325   5.778   8.710  0.1235  0.5045 -0.5842
   67CHL1   C26 7431   4.234   5.973   8.735 -0.0158 -0.6299  0.4199
   67CHL1  H26A 7432   4.265   6.073   8.772  0.8096 -0.3513 -0.9364
   67CHL1  H26B 7433   4.203   5.987   8.629  3.3032 -0.2241 -0.6178
   67CHL1  H26C 7434   4.152   5.937   8.800  0.6566 -1.9512  0.5774
   67CHL1   C27 7435   4.453   5.936   8.648 -0.9141 -0.0090 -0.7739
   67CHL1  H27A 7436   4.409   5.943   8.546 -0.4029 -1.2908 -1.1027
   67CHL1  H27B 7437   4.484   6.040   8.674  0.1844 -0.4066 -0.4227
   67CHL1  H27C 7438   4.540   5.868   8.634 -0.4275  0.3100  0.5990
   68CHL1    C3 7439   1.206   3.315  10.196  0.9023 -0.1098  0.1235
   68CHL1    H3 7440   1.103   3.283  10.224  1.1004  0.9971  2.3242
   68CHL1    O3 7441   1.266   3.337  10.318 -0.1656  0.7698 -0.2158
   68CHL1   H3' 7442   1.211   3.406  10.355 -0.2453  0.8806 -0.5426
   68CHL1    C4 7443   1.274   3.206  10.122 -0.4349  0.4994 -0.6885
   68CHL1   H4A 7444   1.383   3.223  10.124 -0.4731  0.8225 -1.3283
   68CHL1   H4B 7445   1.267   3.112  10.182  2.0665 -0.1876 -1.3825
   68CHL1    C5 7446   1.212   3.185   9.987 -1.3320 -0.5044  0.1990
   68CHL1    C6 7447   1.173   3.061   9.953  0.3638  0.6422 -0.4711
   68CHL1    H6 7448   1.180   2.972  10.018 -2.5077 -0.0043 -0.9352
   68CHL1    C7 7449   1.095   3.030   9.829  0.0710 -0.2725 -0.6105
   68CHL1   H7A 7450   1.117   2.928   9.789  1.6654  0.7049 -2.3720
   68CHL1   H7B 7451   0.989   3.029   9.862  0.6930 -0.5311  1.5283
   68CHL1    C8 7452   1.121   3.131   9.718  0.5376 -0.2220  0.2715
   68CHL1    H8 7453   1.224   3.112   9.683  0.8758  2.2840 -0.2752
   68CHL1   C14 7454   1.020   3.101   9.598  0.1257 -0.4854 -0.2452
   68CHL1   H14 7455   0.917   3.102   9.639  0.7535 -4.1541  1.8264
   68CHL1   C15 7456   1.021   2.957   9.525  0.4559 -0.4142  0.1114
   68CHL1  H15A 7457   1.128   2.932   9.509  0.1748 -1.7987  0.2632
   68CHL1  H15B 7458   0.965   2.879   9.580 -2.2865  1.5542  0.3250
   68CHL1   C16 7459   0.953   2.994   9.390  0.1202 -0.0573  0.4881
   68CHL1  H16A 7460   1.016   2.955   9.307 -0.3559  0.7109 -0.2504
   68CHL1  H16B 7461   0.848   2.957   9.385 -0.6702  1.9054  1.2968
   68CHL1   C17 7462   0.932   3.155   9.390 -0.4448 -0.2053  0.9602
   68CHL1   H17 7463   0.831   3.175   9.433 -0.6298 -0.6870  0.7564
   68CHL1   C13 7464   1.036   3.204   9.487 -0.1263 -0.3722 -0.0571
   68CHL1   C18 7465   1.177   3.180   9.425 -0.0528 -0.5449  0.1431
   68CHL1  H18A 7466   1.184   3.255   9.343 -1.7564 -2.4015 -1.8484
   68CHL1  H18B 7467   1.261   3.188   9.497 -1.5786 -0.8838  2.0423
   68CHL1  H18C 7468   1.190   3.085   9.369 -1.0556  0.8450 -2.6295
   68CHL1   C12 7469   1.026   3.349   9.552  0.1340 -0.3403  0.1918
   68CHL1  H12A 7470   1.017   3.434   9.481 -2.0498 -0.2212  0.5300
   68CHL1  H12B 7471   0.925   3.350   9.598 -0.0625  2.5950 -0.1255
   68CHL1   C11 7472   1.124   3.381   9.665 -0.1785  0.4323 -0.7710
   68CHL1  H11A 7473   1.227   3.394   9.625  0.7914  1.3475  1.8540
   68CHL1  H11B 7474   1.089   3.483   9.691 -0.6970 -0.3158  1.7512
   68CHL1    C9 7475   1.099   3.276   9.780  0.3942  0.8923  0.2939
   68CHL1    H9 7476   0.993   3.285   9.812  0.5155  2.0597  0.4360
   68CHL1   C10 7477   1.191   3.310   9.900 -0.1081  0.1707 -0.5850
   68CHL1   C19 7478   1.337   3.347   9.859 -0.2198 -0.1158  0.5929
   68CHL1  H19A 7479   1.374   3.263   9.796 -0.4728 -0.5909  1.0721
   68CHL1  H19B 7480   1.356   3.443   9.806  0.6731  0.7305  2.3624
   68CHL1  H19C 7481   1.405   3.369   9.944  2.0332 -0.5771 -0.9742
   68CHL1    C1 7482   1.124   3.422   9.980  0.1729 -0.6783  0.3392
   68CHL1   H1A 7483   1.132   3.515   9.919 -1.6279 -0.3849  0.4813
   68CHL1   H1B 7484   1.016   3.399   9.991 -0.1177  0.2666 -0.3815
   68CHL1    C2 7485   1.196   3.444  10.112 -0.0407  0.7292  0.0763
   68CHL1   H2A 7486   1.139   3.516  10.173 -0.4403  0.4400  0.0550
   68CHL1   H2B 7487   1.299   3.485  10.107  0.4408 -0.5413 -1.0847
   68CHL1   C20 7488   0.930   3.214   9.241  0.0877  0.3466 -0.5477
   68CHL1   H20 7489   1.027   3.182   9.197 -0.3785 -0.6826 -0.8719
   68CHL1   C21 7490   0.898   3.365   9.240 -0.2995  0.4166  0.6151
   68CHL1  H21A 7491   0.990   3.424   9.256 -0.8551  0.7632  3.0396
   68CHL1  H21B 7492   0.836   3.371   9.332  0.5699 -3.0465  1.6085
   68CHL1  H21C 7493   0.856   3.405   9.146 -0.9598  0.1836  0.8004
   68CHL1   C22 7494   0.815   3.160   9.149 -0.6744  0.4596 -0.2000
   68CHL1  H22A 7495   0.722   3.116   9.191 -0.9206 -0.4376 -1.6337
   68CHL1  H22B 7496   0.780   3.237   9.078 -2.8908  0.0040  0.3072
   68CHL1   C23 7497   0.877   3.052   9.054 -0.5028 -0.6567 -0.6380
   68CHL1  H23A 7498   0.979   3.080   9.019  0.0205  0.5321  1.6283
   68CHL1  H23B 7499   0.896   2.958   9.111 -0.9500 -0.0041  0.6115
   68CHL1   C24 7500   0.783   3.014   8.930 -0.5106  0.0932  0.4241
   68CHL1  H24A 7501   0.680   2.988   8.963 -1.0293  1.3624 -0.1012
   68CHL1  H24B 7502   0.776   3.109   8.872  1.2887 -1.1237 -1.9511
   68CHL1   C25 7503   0.851   2.905   8.842  0.9823  0.1421  0.1835
   68CHL1   H25 7504   0.902   2.830   8.907  1.3148  1.1299  1.0923
   68CHL1   C26 7505   0.754   2.818   8.756  0.3112 -0.2275  0.3354
   68CHL1  H26A 7506   0.671   2.889   8.735  0.2015 -0.1781  0.9104
   68CHL1  H26B 7507   0.800   2.786   8.660 -2.4389  0.1882 -1.2316
   68CHL1  H26C 7508   0.732   2.738   8.830 -0.8870  1.4385  1.8705
   68CHL1   C27 7509   0.962   2.952   8.748  0.2931 -1.1666  0.9110
   68CHL1  H27A 7510   0.930   3.036   8.683 -0.8078 -2.2113  0.0501
   68CHL1  H27B 7511   1.054   2.984   8.801  0.1664 -2.2814  1.8333
   68CHL1  H27C 7512   0.993   2.876   8.672 -1.6243 -2.2304  1.1432
   69CHL1    C3 7513   6.003   6.604   6.752  0.1889 -0.0504  0.0029
   69CHL1    H3 7514   6.014   6.712   6.774 -3.4583  0.4512  0.0308
   69CHL1    O3 7515   6.007   6.589   6.610 -0.5294  0.3278 -0.4816
   69CHL1   H3' 7516   5.981   6.498   6.596  0.4843 -0.3485  1.6055
   69CHL1    C4 7517   6.114   6.525   6.826  0.5241  0.0593  0.0334
   69CHL1   H4A 7518   6.085   6.426   6.783 -2.0104  0.7759 -0.0685
   69CHL1   H4B 7519   6.217   6.535   6.787  0.3448  1.1807 -0.1740
   69CHL1    C5 7520   6.097   6.533   6.977 -0.1922 -0.4298 -0.5043
   69CHL1    C6 7521   6.198   6.586   7.057  0.2463  0.2685  0.8449
   69CHL1    H6 7522   6.291   6.618   7.007 -0.4607 -2.3483 -2.5847
   69CHL1    C7 7523   6.195   6.577   7.205  0.5287  0.1217 -0.2184
   69CHL1   H7A 7524   6.283   6.517   7.237  0.3143 -0.6716 -1.0743
   69CHL1   H7B 7525   6.213   6.679   7.245  0.4508 -0.6408  1.9400
   69CHL1    C8 7526   6.062   6.508   7.261 -0.1855 -0.5090 -0.1939
   69CHL1    H8 7527   6.071   6.399   7.241  0.9722 -0.6117  0.7820
   69CHL1   C14 7528   6.046   6.532   7.414 -0.0956 -0.1442  0.2075
   69CHL1   H14 7529   6.042   6.643   7.420 -2.3768 -0.0733 -1.0410
   69CHL1   C15 7530   6.159   6.499   7.511 -0.0924 -0.0915  0.0019
   69CHL1  H15A 7531   6.189   6.394   7.488  1.3263 -0.5194  3.2843
   69CHL1  H15B 7532   6.250   6.563   7.511  0.8511 -1.3681  0.8885
   69CHL1   C16 7533   6.090   6.503   7.649 -0.1465  0.9282  0.0446
   69CHL1  H16A 7534   6.119   6.415   7.711 -2.2683 -1.9534 -2.7464
   69CHL1  H16B 7535   6.110   6.598   7.702 -2.2423  2.6047 -2.0007
   69CHL1   C17 7536   5.936   6.510   7.625 -0.1186 -0.1585 -0.2982
   69CHL1   H17 7537   5.897   6.613   7.639  0.1810 -0.1245  0.3548
   69CHL1   C13 7538   5.921   6.479   7.473 -0.7034 -0.3220  0.0397
   69CHL1   C18 7539   5.915   6.323   7.462  0.3599 -0.2392 -1.1142
   69CHL1  H18A 7540   5.830   6.293   7.526 -0.2453  2.1821 -0.6834
   69CHL1  H18B 7541   5.903   6.284   7.359 -1.9150  0.9941 -1.3797
   69CHL1  H18C 7542   6.002   6.274   7.510 -0.0407 -1.5262 -1.6541
   69CHL1   C12 7543   5.797   6.540   7.402  0.7544  0.3183  0.1083
   69CHL1  H12A 7544   5.701   6.503   7.444  0.9636  0.1192  0.4122
   69CHL1  H12B 7545   5.808   6.651   7.407  1.8771  0.1638  1.7139
   69CHL1   C11 7546   5.805   6.503   7.250  0.4565  0.5447  0.0087
   69CHL1  H11A 7547   5.794   6.393   7.242  1.2775  0.3996  0.8194
   69CHL1  H11B 7548   5.717   6.543   7.194 -0.1245 -2.5016 -1.4275
   69CHL1    C9 7549   5.937   6.549   7.181 -0.1484  0.3911  0.0833
   69CHL1    H9 7550   5.939   6.660   7.186 -3.1992  0.5171  0.1379
   69CHL1   C10 7551   5.955   6.510   7.034 -0.2947  0.2817  0.7227
   69CHL1   C19 7552   5.911   6.361   7.022 -0.2421 -0.4062  0.3276
   69CHL1  H19A 7553   5.925   6.318   6.921 -2.4630 -1.1482  0.2918
   69CHL1  H19B 7554   5.970   6.304   7.098  0.1904  0.2050  0.4630
   69CHL1  H19C 7555   5.804   6.348   7.046  0.1725 -2.1918  1.4236
   69CHL1    C1 7556   5.854   6.599   6.948  0.1520 -0.7576 -0.2456
   69CHL1   H1A 7557   5.745   6.597   6.973  0.5270  2.1799  2.2464
   69CHL1   H1B 7558   5.883   6.704   6.969  0.4196 -1.1519  1.5995
   69CHL1    C2 7559   5.863   6.571   6.796 -0.3232  0.1808  0.3812
   69CHL1   H2A 7560   5.782   6.634   6.751 -0.5465 -0.4261 -0.0766
   69CHL1   H2B 7561   5.837   6.468   6.764 -1.9888  0.5396  0.4422
   69CHL1   C20 7562   5.864   6.422   7.738 -0.6956  0.7440  0.2889
   69CHL1   H20 7563   5.888   6.315   7.721 -0.7660  1.1719 -3.4674
   69CHL1   C21 7564   5.709   6.444   7.735  0.4835  0.9425  0.0779
   69CHL1  H21A 7565   5.666   6.423   7.635  1.2628  0.0715 -0.0831
   69CHL1  H21B 7566   5.695   6.553   7.752  0.0547  1.1410 -1.3918
   69CHL1  H21C 7567   5.650   6.380   7.804 -0.9732  2.6659  0.5167
   69CHL1   C22 7568   5.918   6.456   7.878  0.2400  1.0164 -0.1967
   69CHL1  H22A 7569   6.028   6.446   7.889  0.3031 -2.7881 -2.3530
   69CHL1  H22B 7570   5.889   6.559   7.907 -2.9792  0.2384 -0.3083
   69CHL1   C23 7571   5.856   6.365   7.986 -0.6530 -0.2581  0.2355
   69CHL1  H23A 7572   5.885   6.418   8.079 -1.2007  0.9920 -0.2895
   69CHL1  H23B 7573   5.746   6.354   7.998 -0.7168  0.2388  0.1228
   69CHL1   C24 7574   5.916   6.221   7.988 -0.1175  0.4980 -0.4086
   69CHL1  H24A 7575   5.867   6.165   7.905 -2.4813  2.4085 -0.3735
   69CHL1  H24B 7576   6.023   6.229   7.958 -0.4355 -1.0614 -2.1907
   69CHL1   C25 7577   5.899   6.132   8.113  0.3214  0.0889  0.1491
   69CHL1   H25 7578   5.953   6.037   8.092  0.5365  0.6115 -1.8447
   69CHL1   C26 7579   5.976   6.189   8.230 -0.2345  0.3188  0.7789
   69CHL1  H26A 7580   6.062   6.252   8.201 -1.6472  2.1892  0.4546
   69CHL1  H26B 7581   5.910   6.274   8.259 -1.4655 -0.5577  0.6357
   69CHL1  H26C 7582   5.987   6.114   8.311 -2.0262 -1.3978 -0.4570
   69CHL1   C27 7583   5.750   6.102   8.157 -0.2174 -0.4045  0.5074
   69CHL1  H27A 7584   5.733   6.033   8.243 -1.9970 -0.7797 -0.1039
   69CHL1  H27B 7585   5.699   6.197   8.186  2.2071  0.7325  1.3006
   69CHL1  H27C 7586   5.692   6.078   8.065  1.5248  0.0708 -0.7643
   70CHL1    C3 7587   4.758   4.507   6.992  0.6817 -0.3748  0.4221
   70CHL1    H3 7588   4.863   4.542   7.002  0.0559  1.2638  1.8382
   70CHL1    O3 7589   4.712   4.529   6.865  0.4401 -0.1166  0.4523
   70CHL1   H3' 7590   4.693   4.624   6.863 -0.5870 -0.3059  0.5635
   70CHL1    C4 7591   4.752   4.360   7.026 -0.3051 -0.2400 -0.1721
   70CHL1   H4A 7592   4.655   4.307   7.012  0.9819 -2.4202 -1.4297
   70CHL1   H4B 7593   4.810   4.310   6.946  0.0324  0.9851 -0.7151
   70CHL1    C5 7594   4.794   4.332   7.166 -0.0384 -0.3360 -0.1149
   70CHL1    C6 7595   4.909   4.263   7.189  0.1243 -0.3963  0.1087
   70CHL1    H6 7596   4.972   4.228   7.106  2.7567  1.7989  0.9858
   70CHL1    C7 7597   4.940   4.233   7.333 -0.8790  0.9904 -0.5272
   70CHL1   H7A 7598   4.981   4.130   7.346  0.6280  1.2034 -2.9794
   70CHL1   H7B 7599   5.011   4.311   7.365  0.0494  0.5709 -1.4884
   70CHL1    C8 7600   4.819   4.241   7.432  0.2163 -0.2563 -0.5975
   70CHL1    H8 7601   4.749   4.161   7.401 -0.8299  0.9509 -1.4612
   70CHL1   C14 7602   4.864   4.219   7.586 -0.6857 -0.3012  0.5542
   70CHL1   H14 7603   4.940   4.297   7.609 -1.7351  0.6291  0.9482
   70CHL1   C15 7604   4.943   4.094   7.628  0.0965  1.0470 -0.1032
   70CHL1  H15A 7605   4.902   4.001   7.585  3.6725 -0.1210 -1.3073
   70CHL1  H15B 7606   5.042   4.107   7.580  0.8415 -0.1772  1.0533
   70CHL1   C16 7607   4.942   4.089   7.778 -0.3697  0.9993 -0.0232
   70CHL1  H16A 7608   4.887   3.999   7.812  1.3019  0.2340  0.7777
   70CHL1  H16B 7609   5.040   4.110   7.827 -1.2281  1.8590  1.3599
   70CHL1   C17 7610   4.842   4.209   7.820  0.0016  0.1139  0.0924
   70CHL1   H17 7611   4.902   4.301   7.827  2.7504 -1.4246 -1.6349
   70CHL1   C13 7612   4.758   4.243   7.693  0.8839 -0.1385 -0.6772
   70CHL1   C18 7613   4.647   4.141   7.665 -0.1755  0.5958  0.0934
   70CHL1  H18A 7614   4.687   4.041   7.690  0.8583  1.1996  0.9138
   70CHL1  H18B 7615   4.561   4.161   7.732  0.2995 -0.0910  0.9197
   70CHL1  H18C 7616   4.610   4.122   7.562  0.0916 -1.1498  0.2851
   70CHL1   C12 7617   4.698   4.386   7.678  0.1525  0.2676 -0.1473
   70CHL1  H12A 7618   4.617   4.403   7.752 -0.4796 -0.3771 -0.6727
   70CHL1  H12B 7619   4.780   4.455   7.707  0.9861 -0.9217  0.4366
   70CHL1   C11 7620   4.646   4.407   7.536 -0.0434 -0.8291  0.4159
   70CHL1  H11A 7621   4.550   4.352   7.532 -0.9254  0.5325  1.7644
   70CHL1  H11B 7622   4.617   4.514   7.527 -0.1755 -1.0524 -2.8882
   70CHL1    C9 7623   4.746   4.373   7.416 -0.0950  0.2282  0.3631
   70CHL1    H9 7624   4.825   4.450   7.428  1.5489 -1.6727  2.7730
   70CHL1   C10 7625   4.697   4.391   7.268  0.1595  0.6194 -0.6992
   70CHL1   C19 7626   4.559   4.330   7.258  0.6673  0.1842 -0.8346
   70CHL1  H19A 7627   4.554   4.221   7.277 -2.7508  0.2419 -0.7900
   70CHL1  H19B 7628   4.502   4.386   7.335  0.1854 -1.5545  0.1219
   70CHL1  H19C 7629   4.512   4.343   7.158  0.6349  0.5501 -0.7749
   70CHL1    C1 7630   4.698   4.543   7.233  0.3923 -0.5865 -0.5166
   70CHL1   H1A 7631   4.625   4.593   7.300 -0.7333 -2.9424  0.1227
   70CHL1   H1B 7632   4.799   4.583   7.253 -0.4303  1.2082  0.2192
   70CHL1    C2 7633   4.672   4.588   7.093  0.6835 -0.4434 -0.2180
   70CHL1   H2A 7634   4.691   4.697   7.081  1.6687 -0.4661  0.9118
   70CHL1   H2B 7635   4.564   4.577   7.070  0.3070  1.4856  0.4749
   70CHL1   C20 7636   4.783   4.184   7.965 -0.0378  0.4559 -0.0540
   70CHL1   H20 7637   4.724   4.090   7.964  0.7365 -0.0392 -0.4072
   70CHL1   C21 7638   4.689   4.297   8.000  0.7120  0.1271 -0.3126
   70CHL1  H21A 7639   4.747   4.386   8.032 -0.1495  0.5928 -0.0155
   70CHL1  H21B 7640   4.633   4.267   8.091  3.1922  0.5580  1.4399
   70CHL1  H21C 7641   4.608   4.320   7.928 -0.7644  0.0372  1.2562
   70CHL1   C22 7642   4.892   4.175   8.071 -0.3333 -0.3278 -0.5960
   70CHL1  H22A 7643   4.972   4.248   8.045 -0.3072 -0.2369 -0.2588
   70CHL1  H22B 7644   4.853   4.196   8.172 -0.4946 -1.8819 -0.3066
   70CHL1   C23 7645   4.946   4.038   8.092  0.1139  0.5292 -0.2009
   70CHL1  H23A 7646   4.856   3.972   8.090 -0.7312  1.6136 -2.7441
   70CHL1  H23B 7647   5.009   4.008   8.006  1.4025 -1.3517  1.3217
   70CHL1   C24 7648   5.031   4.025   8.217 -0.6348  0.9180  0.3760
   70CHL1  H24A 7649   5.088   3.930   8.206 -1.4464  0.0248  3.0740
   70CHL1  H24B 7650   5.107   4.105   8.229 -2.5771  2.6071  2.1812
   70CHL1   C25 7651   4.958   4.014   8.348  0.3717  0.1345 -0.8728
   70CHL1   H25 7652   4.949   4.121   8.375 -0.7895 -0.0039 -0.6905
   70CHL1   C26 7653   4.825   3.942   8.350  0.0804  0.4326 -0.3381
   70CHL1  H26A 7654   4.754   4.006   8.292  0.7068  0.1438 -1.4431
   70CHL1  H26B 7655   4.815   3.837   8.313 -0.1249 -1.0648  3.4806
   70CHL1  H26C 7656   4.787   3.929   8.454  0.9879 -1.5039 -0.1992
   70CHL1   C27 7657   5.058   3.968   8.456  1.4057 -0.5310  0.4317
   70CHL1  H27A 7658   5.094   3.868   8.426  1.1185 -0.8832  1.2430
   70CHL1  H27B 7659   5.146   4.036   8.458  0.6687  0.6002 -1.9753
   70CHL1  H27C 7660   5.014   3.972   8.557  0.1895  1.2820 -0.1052
   71CHL1    C3 7661   4.222   6.721   6.639  0.2281  0.2153  0.1879
   71CHL1    H3 7662   4.144   6.801   6.640  1.1243  1.1324  1.7969
   71CHL1    O3 7663   4.262   6.703   6.509  0.3570  0.2817  0.3770
   71CHL1   H3' 7664   4.297   6.784   6.471  0.4894  0.4938  0.9390
   71CHL1    C4 7665   4.341   6.781   6.725 -0.0900 -0.1450  1.0578
   71CHL1   H4A 7666   4.428   6.716   6.703  0.2471  0.2715  1.1486
   71CHL1   H4B 7667   4.360   6.886   6.694  0.5548  0.3763  3.0017
   71CHL1    C5 7668   4.321   6.771   6.876  0.6243  0.2144 -0.1402
   71CHL1    C6 7669   4.350   6.878   6.951  0.0842  0.6413 -0.0439
   71CHL1    H6 7670   4.396   6.970   6.914 -0.7291  0.8107 -0.6527
   71CHL1    C7 7671   4.330   6.879   7.096  0.2237  0.4656  0.0438
   71CHL1   H7A 7672   4.402   6.949   7.143 -0.4780  0.6882  0.8122
   71CHL1   H7B 7673   4.232   6.931   7.104 -1.2187 -1.9357 -0.7890
   71CHL1    C8 7674   4.328   6.740   7.157  0.4962  0.9554  0.5592
   71CHL1    H8 7675   4.434   6.709   7.147  0.3079  0.4989 -0.0526
   71CHL1   C14 7676   4.292   6.753   7.302  0.1318  1.0415  0.4785
   71CHL1   H14 7677   4.187   6.788   7.301  0.2004  1.2383  0.0244
   71CHL1   C15 7678   4.367   6.845   7.388 -0.4645  0.0201  0.4690
   71CHL1  H15A 7679   4.476   6.839   7.367 -0.1446  1.9538  1.3585
   71CHL1  H15B 7680   4.340   6.952   7.371 -0.1942  0.4311  2.3777
   71CHL1   C16 7681   4.330   6.802   7.530 -0.6724 -0.2830 -0.0563
   71CHL1  H16A 7682   4.418   6.810   7.597 -0.9065  1.6751  0.0720
   71CHL1  H16B 7683   4.259   6.866   7.587 -0.5051  0.3212 -0.5217
   71CHL1   C17 7684   4.249   6.669   7.524  0.7733  0.1246 -0.5548
   71CHL1   H17 7685   4.141   6.693   7.521  0.6224 -0.3676  0.5729
   71CHL1   C13 7686   4.286   6.618   7.380  0.4510  0.3353 -0.6039
   71CHL1   C18 7687   4.420   6.552   7.391  0.2489  0.7682  0.3607
   71CHL1  H18A 7688   4.471   6.552   7.292 -0.4842  2.2122 -0.0360
   71CHL1  H18B 7689   4.496   6.600   7.456  1.5157  0.1982 -0.6481
   71CHL1  H18C 7690   4.422   6.446   7.425 -2.8981  0.4030 -0.3151
   71CHL1   C12 7691   4.183   6.528   7.309 -0.0206 -0.6202 -0.8468
   71CHL1  H12A 7692   4.173   6.424   7.346 -4.8467 -0.7743 -1.8090
   71CHL1  H12B 7693   4.083   6.573   7.327  0.7169  1.0660 -0.7721
   71CHL1   C11 7694   4.205   6.522   7.155  0.3831 -0.4750  0.1323
   71CHL1  H11A 7695   4.294   6.457   7.138 -0.0247 -0.5993 -1.7601
   71CHL1  H11B 7696   4.131   6.459   7.102 -0.8631  1.8997 -1.1064
   71CHL1    C9 7697   4.226   6.648   7.081 -0.2823 -0.5050  0.1154
   71CHL1    H9 7698   4.134   6.710   7.089  0.4808  0.4516  2.2414
   71CHL1   C10 7699   4.257   6.639   6.924 -0.1366 -0.3635  0.3457
   71CHL1   C19 7700   4.371   6.530   6.918 -0.0119 -0.1882  0.3465
   71CHL1  H19A 7701   4.462   6.548   6.980 -2.0005  3.5219  2.5451
   71CHL1  H19B 7702   4.335   6.427   6.936 -0.4775 -0.2969 -1.0996
   71CHL1  H19C 7703   4.411   6.514   6.816 -0.4784 -1.7458  0.3908
   71CHL1    C1 7704   4.136   6.598   6.844 -0.1793  0.3890  0.2266
   71CHL1   H1A 7705   4.108   6.496   6.878 -0.2160 -0.1773 -1.4130
   71CHL1   H1B 7706   4.050   6.665   6.862 -1.2769 -0.7166 -0.7475
   71CHL1    C2 7707   4.176   6.584   6.694 -0.2472  0.1393 -0.2884
   71CHL1   H2A 7708   4.087   6.549   6.639 -0.3610 -0.7682  0.4546
   71CHL1   H2B 7709   4.251   6.503   6.680 -0.7635 -0.5717  0.8981
   71CHL1   C20 7710   4.257   6.579   7.654 -0.6709  1.0828  0.5179
   71CHL1   H20 7711   4.346   6.515   7.640 -0.5496  1.3645 -0.0293
   71CHL1   C21 7712   4.137   6.479   7.649  0.3501 -0.6040  0.9551
   71CHL1  H21A 7713   4.143   6.414   7.558  0.4136 -0.3720  0.7910
   71CHL1  H21B 7714   4.034   6.520   7.645  0.3279 -0.7241 -0.7492
   71CHL1  H21C 7715   4.135   6.404   7.730 -2.5589 -1.2055  0.4310
   71CHL1   C22 7716   4.275   6.661   7.777 -0.2963 -0.2045  0.0735
   71CHL1  H22A 7717   4.377   6.703   7.788 -1.6989  4.0468 -0.8971
   71CHL1  H22B 7718   4.204   6.747   7.780 -0.9657 -0.7857  1.7643
   71CHL1   C23 7719   4.237   6.582   7.906  0.0874  0.0879 -0.2910
   71CHL1  H23A 7720   4.126   6.580   7.920  0.2032 -2.8052  1.0596
   71CHL1  H23B 7721   4.278   6.480   7.887  0.3183  0.2468 -0.6475
   71CHL1   C24 7722   4.315   6.631   8.032  0.5613  0.5271  0.2385
   71CHL1  H24A 7723   4.319   6.535   8.089  2.1155 -0.6216 -1.6748
   71CHL1  H24B 7724   4.422   6.650   8.009  0.3661 -1.9910 -3.6168
   71CHL1   C25 7725   4.251   6.734   8.121  1.0641  0.6982 -0.3355
   71CHL1   H25 7726   4.143   6.715   8.137  1.2957  1.0436  1.9937
   71CHL1   C26 7727   4.314   6.713   8.259 -0.7309 -0.3999 -0.2773
   71CHL1  H26A 7728   4.420   6.744   8.253 -0.8410 -0.1984 -1.6686
   71CHL1  H26B 7729   4.267   6.767   8.344 -1.6008 -1.5562  0.0106
   71CHL1  H26C 7730   4.312   6.604   8.280  0.7605 -0.4699 -0.4340
   71CHL1   C27 7731   4.274   6.878   8.069  0.0150  0.0900 -0.7340
   71CHL1  H27A 7732   4.383   6.893   8.086 -0.0267 -0.8633  0.4878
   71CHL1  H27B 7733   4.237   6.893   7.966 -0.3726  2.4593 -0.3130
   71CHL1  H27C 7734   4.228   6.957   8.133  0.4116 -0.3259  0.0874
   72CHL1    C3 7735   6.379   6.124   7.044  0.4570 -0.1764 -0.4011
   72CHL1    H3 7736   6.476   6.173   7.070 -0.4077  2.1657 -1.3139
   72CHL1    O3 7737   6.378   6.151   6.908  0.5571 -0.1853  0.2484
   72CHL1   H3' 7738   6.306   6.097   6.873 -1.3533  1.1231  1.9236
   72CHL1    C4 7739   6.374   5.976   7.063 -0.1021  0.0619  0.2264
   72CHL1   H4A 7740   6.287   5.931   7.011 -0.5734  1.0565  0.1397
   72CHL1   H4B 7741   6.459   5.926   7.013  0.7847  1.8600 -0.1300
   72CHL1    C5 7742   6.374   5.932   7.207 -0.1750 -0.2511 -0.6163
   72CHL1    C6 7743   6.466   5.843   7.251 -0.3200  0.4459 -0.5492
   72CHL1    H6 7744   6.542   5.802   7.183  0.6051  1.0226  0.1233
   72CHL1    C7 7745   6.478   5.803   7.397 -0.0186 -0.6849 -0.0956
   72CHL1   H7A 7746   6.481   5.693   7.410  0.7096 -0.7820 -1.0138
   72CHL1   H7B 7747   6.566   5.849   7.446  1.8247 -3.3137 -0.7345
   72CHL1    C8 7748   6.360   5.849   7.487  0.0883  0.1246  0.3198
   72CHL1    H8 7749   6.270   5.785   7.476  0.5424 -0.6844  1.2050
   72CHL1   C14 7750   6.414   5.842   7.632  0.6821 -0.0350 -0.0275
   72CHL1   H14 7751   6.496   5.917   7.635  1.5746 -1.0008  1.5383
   72CHL1   C15 7752   6.487   5.719   7.688 -0.5899  0.5930 -1.1432
   72CHL1  H15A 7753   6.450   5.618   7.659  0.8002 -0.4431  0.4729
   72CHL1  H15B 7754   6.596   5.716   7.668 -0.3419 -1.6528  0.2665
   72CHL1   C16 7755   6.475   5.738   7.845 -0.0959 -0.1122 -0.5097
   72CHL1  H16A 7756   6.419   5.650   7.883 -1.7279  1.3840  0.7022
   72CHL1  H16B 7757   6.570   5.766   7.894 -1.2422  2.5108  0.4010
   72CHL1   C17 7758   6.397   5.875   7.864  0.1699 -0.2087 -0.6170
   72CHL1   H17 7759   6.466   5.963   7.863 -1.3133  1.0058 -0.4911
   72CHL1   C13 7760   6.310   5.886   7.738 -0.5339  0.2923 -0.3803
   72CHL1   C18 7761   6.199   5.780   7.741 -0.6866  0.3366  0.0164
   72CHL1  H18A 7762   6.237   5.677   7.730 -2.7875 -0.4724 -0.1454
   72CHL1  H18B 7763   6.142   5.788   7.836 -1.4557 -1.2700 -0.2814
   72CHL1  H18C 7764   6.129   5.806   7.658 -1.4816  2.3695  1.2201
   72CHL1   C12 7765   6.254   6.021   7.707 -0.1929 -0.0205  0.4575
   72CHL1  H12A 7766   6.169   6.049   7.773  1.2348  1.5659  1.7087
   72CHL1  H12B 7767   6.337   6.093   7.726 -1.5233  1.2941  1.5189
   72CHL1   C11 7768   6.209   6.042   7.562  0.2008 -0.5483  0.2037
   72CHL1  H11A 7769   6.111   5.991   7.551  0.6192 -1.2106 -0.5331
   72CHL1  H11B 7770   6.189   6.151   7.554 -1.3158 -0.8818 -1.0928
   72CHL1    C9 7771   6.306   5.990   7.449 -0.0769 -0.1736 -0.7121
   72CHL1    H9 7772   6.392   6.060   7.454 -1.5318  1.9194 -2.8091
   72CHL1   C10 7773   6.270   6.006   7.304  0.5188  0.1562 -0.2950
   72CHL1   C19 7774   6.132   5.934   7.278 -0.1770 -0.1923 -0.7857
   72CHL1  H19A 7775   6.098   5.926   7.173  0.4753 -2.0376 -0.8907
   72CHL1  H19B 7776   6.131   5.835   7.328  1.8558 -0.2097 -0.7051
   72CHL1  H19C 7777   6.052   5.985   7.337 -0.9282 -1.6217 -0.5281
   72CHL1    C1 7778   6.261   6.156   7.266  0.1400  0.0978  0.4060
   72CHL1   H1A 7779   6.163   6.199   7.294  0.4927  0.7526  0.6546
   72CHL1   H1B 7780   6.341   6.221   7.308 -1.9948  2.6999  0.6934
   72CHL1    C2 7781   6.261   6.188   7.115  0.3850 -0.2921 -0.2100
   72CHL1   H2A 7782   6.242   6.296   7.095 -2.6451 -0.9200 -1.1307
   72CHL1   H2B 7783   6.166   6.151   7.073  0.0668 -0.2436  0.4611
   72CHL1   C20 7784   6.337   5.877   8.010 -0.0759 -0.4559 -0.1981
   72CHL1   H20 7785   6.263   5.795   8.013  0.7335 -1.2488 -1.1661
   72CHL1   C21 7786   6.275   6.015   8.045  0.6617 -0.4058 -0.2718
   72CHL1  H21A 7787   6.236   6.000   8.149  1.5476 -1.4060 -0.0681
   72CHL1  H21B 7788   6.185   6.041   7.985 -1.5031 -1.6581  2.1949
   72CHL1  H21C 7789   6.344   6.101   8.041 -1.1572  1.0898 -1.1822
   72CHL1   C22 7790   6.433   5.850   8.130 -0.2772  0.3276 -0.2631
   72CHL1  H22A 7791   6.381   5.867   8.227 -0.6002  0.3240 -0.4355
   72CHL1  H22B 7792   6.458   5.742   8.117 -0.0277  0.6065 -2.5655
   72CHL1   C23 7793   6.569   5.931   8.120 -0.0558 -0.0002 -0.6169
   72CHL1  H23A 7794   6.622   5.908   8.025  0.3306 -1.0462 -0.1593
   72CHL1  H23B 7795   6.541   6.039   8.127 -0.9237 -0.3284  2.1699
   72CHL1   C24 7796   6.674   5.889   8.233 -0.6578 -0.7635  0.7146
   72CHL1  H24A 7797   6.619   5.882   8.330  0.2720 -2.1343  1.1805
   72CHL1  H24B 7798   6.705   5.786   8.208 -1.8875 -0.8813 -0.4347
   72CHL1   C25 7799   6.793   5.987   8.241 -0.3512  0.1864  0.1179
   72CHL1   H25 7800   6.748   6.088   8.253 -1.5041 -0.4337  1.2589
   72CHL1   C26 7801   6.878   5.958   8.367 -0.0952 -0.2190 -0.5996
   72CHL1  H26A 7802   6.900   5.849   8.369  0.6556 -0.0928 -1.5015
   72CHL1  H26B 7803   6.976   6.009   8.365  0.0981 -0.6026 -1.4161
   72CHL1  H26C 7804   6.832   5.988   8.464 -1.1945  1.4770 -1.5894
   72CHL1   C27 7805   6.881   5.969   8.116 -0.0187 -0.2469 -0.1997
   72CHL1  H27A 7806   6.955   6.051   8.102 -0.3291  0.3629  1.5773
   72CHL1  H27B 7807   6.938   5.875   8.136  2.9332  1.2241 -1.0363
   72CHL1  H27C 7808   6.823   5.954   8.022 -2.1470  0.4377  0.9497
   73CHL1    C3 7809   6.115   1.200   7.045  0.3078  0.0245  0.7442
   73CHL1    H3 7810   6.210   1.258   7.051  1.2112 -1.1930 -1.0001
   73CHL1    O3 7811   6.097   1.174   6.903  0.3067  0.3777 -0.3423
   73CHL1   H3' 7812   6.061   1.252   6.860  1.2069 -0.6039 -3.0801
   73CHL1    C4 7813   6.120   1.064   7.128  0.0312  0.4147  0.1046
   73CHL1   H4A 7814   6.028   1.003   7.114  1.1377 -1.0137 -1.3298
   73CHL1   H4B 7815   6.210   1.008   7.095 -0.0473 -0.0921  0.7333
   73CHL1    C5 7816   6.128   1.098   7.271 -0.0836  0.1941 -0.1822
   73CHL1    C6 7817   6.229   1.051   7.343  0.3697 -0.1213 -0.4450
   73CHL1    H6 7818   6.297   0.994   7.279 -1.2356 -2.6436 -0.0448
   73CHL1    C7 7819   6.249   1.072   7.491  0.5716  0.2695  0.1855
   73CHL1   H7A 7820   6.273   0.978   7.546 -2.2831  0.1740  1.4875
   73CHL1   H7B 7821   6.325   1.151   7.509  0.3565  0.2523  1.2393
   73CHL1    C8 7822   6.111   1.119   7.561 -0.2890  0.6452 -0.1159
   73CHL1    H8 7823   6.048   1.029   7.548  0.9551  0.1118 -3.8635
   73CHL1   C14 7824   6.140   1.161   7.704 -0.1603 -0.0187  0.3355
   73CHL1   H14 7825   6.218   1.240   7.700 -0.4371  0.2133 -2.1234
   73CHL1   C15 7826   6.201   1.050   7.792  0.0390  0.1107  0.8709
   73CHL1  H15A 7827   6.137   0.960   7.778 -0.3808  0.4377  0.7022
   73CHL1  H15B 7828   6.310   1.037   7.772 -0.1561 -0.6979  0.2500
   73CHL1   C16 7829   6.185   1.111   7.934  0.5636 -0.3326 -0.2041
   73CHL1  H16A 7830   6.162   1.029   8.006  3.0135 -3.0913 -2.2750
   73CHL1  H16B 7831   6.285   1.144   7.967  0.6480  0.1977 -0.9746
   73CHL1   C17 7832   6.085   1.235   7.925 -0.4145 -0.1209  0.1799
   73CHL1   H17 7833   6.143   1.330   7.929  2.5823 -1.8589  2.2412
   73CHL1   C13 7834   6.021   1.216   7.784  0.4616 -0.2143 -0.2759
   73CHL1   C18 7835   5.907   1.112   7.798 -0.2082  0.1695  0.2180
   73CHL1  H18A 7836   5.819   1.164   7.842 -0.3011  1.4887 -1.4390
   73CHL1  H18B 7837   5.883   1.090   7.692  0.0440  1.8154 -0.2155
   73CHL1  H18C 7838   5.941   1.027   7.860 -1.6304 -0.2235  0.4825
   73CHL1   C12 7839   5.980   1.346   7.709  0.5955  0.1004  0.0362
   73CHL1  H12A 7840   5.894   1.393   7.759 -0.3139 -1.1297 -0.3297
   73CHL1  H12B 7841   6.080   1.393   7.699  0.5709  0.3714  0.9644
   73CHL1   C11 7842   5.941   1.317   7.562 -0.3067  0.0764 -0.6279
   73CHL1  H11A 7843   5.852   1.251   7.574  1.9156 -2.9204  1.0491
   73CHL1  H11B 7844   5.921   1.410   7.505 -0.4780 -0.7378 -1.9291
   73CHL1    C9 7845   6.055   1.238   7.486 -0.2059  0.5909  0.0867
   73CHL1    H9 7846   6.136   1.312   7.471 -0.7672  0.9257 -1.4400
   73CHL1   C10 7847   6.025   1.189   7.338 -0.4504 -0.0592  0.2453
   73CHL1   C19 7848   5.882   1.127   7.326 -0.4480  0.3985 -0.3998
   73CHL1  H19A 7849   5.853   1.098   7.223 -2.9799 -0.5555  0.5147
   73CHL1  H19B 7850   5.882   1.030   7.380  0.9978  0.5712 -0.0460
   73CHL1  H19C 7851   5.801   1.186   7.373  2.1670  3.2001  0.9527
   73CHL1    C1 7852   6.016   1.316   7.251 -0.3621  0.3088  0.3182
   73CHL1   H1A 7853   5.924   1.376   7.270 -1.4837 -1.0396 -0.6542
   73CHL1   H1B 7854   6.106   1.381   7.261  1.6665 -1.9519 -1.9135
   73CHL1    C2 7855   6.003   1.287   7.097 -0.2753 -0.1928  0.0842
   73CHL1   H2A 7856   6.002   1.384   7.042 -0.6884 -0.4356 -0.3391
   73CHL1   H2B 7857   5.908   1.233   7.081  0.0204 -1.3618  1.9572
   73CHL1   C20 7858   5.990   1.246   8.042 -0.2761  0.0465 -0.7081
   73CHL1   H20 7859   5.921   1.160   8.056  0.8608 -0.8488 -0.5210
   73CHL1   C21 7860   5.898   1.371   8.027  0.0497  0.0536  0.3669
   73CHL1  H21A 7861   5.959   1.446   7.972  1.5597 -2.3058 -1.3975
   73CHL1  H21B 7862   5.857   1.400   8.126  2.0871 -0.6449  1.4653
   73CHL1  H21C 7863   5.813   1.346   7.959  0.1026 -1.9151  0.9485
   73CHL1   C22 7864   6.066   1.250   8.174  0.1081 -0.1667 -0.1636
   73CHL1  H22A 7865   6.121   1.157   8.200  0.3005  0.5021  2.0797
   73CHL1  H22B 7866   6.148   1.324   8.164  0.3272 -0.2419  0.9435
   73CHL1   C23 7867   5.990   1.283   8.298  0.6865 -0.0488 -0.6662
   73CHL1  H23A 7868   5.964   1.391   8.297 -0.9820 -0.4154  0.0205
   73CHL1  H23B 7869   5.892   1.231   8.303  0.6107  0.1861  0.6180
   73CHL1   C24 7870   6.071   1.265   8.427  0.1313  0.5114 -0.5421
   73CHL1  H24A 7871   6.090   1.158   8.450 -0.1990  1.2540  4.2943
   73CHL1  H24B 7872   6.171   1.310   8.413  0.8629 -0.0470  2.1381
   73CHL1   C25 7873   6.012   1.332   8.555  0.2054  0.2842 -0.4623
   73CHL1   H25 7874   6.006   1.442   8.549  0.4112  0.3023 -0.3528
   73CHL1   C26 7875   5.864   1.295   8.590 -0.2684 -0.1661  0.3539
   73CHL1  H26A 7876   5.834   1.331   8.691 -0.1748 -0.1385  0.3722
   73CHL1  H26B 7877   5.796   1.348   8.520 -0.4579 -0.8223  0.0367
   73CHL1  H26C 7878   5.837   1.188   8.575  3.1199 -1.0373 -0.3433
   73CHL1   C27 7879   6.119   1.296   8.662  0.5330  0.0394 -0.1439
   73CHL1  H27A 7880   6.130   1.191   8.697 -0.6821  0.3020  1.1208
   73CHL1  H27B 7881   6.218   1.323   8.620  1.3165 -2.1688  0.1228
   73CHL1  H27C 7882   6.101   1.355   8.755  1.2402  0.7141 -0.4261
   74CHL1    C3 7883   4.113   6.124   6.750  0.6276 -0.0284 -0.6372
   74CHL1    H3 7884   4.124   6.233   6.767  0.6569 -0.3565  1.7776
   74CHL1    O3 7885   4.067   6.089   6.620 -0.3017 -0.6794 -0.3115
   74CHL1   H3' 7886   4.063   5.993   6.622  1.1519 -0.7658  2.2888
   74CHL1    C4 7887   4.243   6.059   6.785  0.5097 -0.3443  0.5300
   74CHL1   H4A 7888   4.235   5.949   6.773 -0.8408 -0.0729 -1.8078
   74CHL1   H4B 7889   4.316   6.091   6.708 -0.6027  0.0004 -0.4065
   74CHL1    C5 7890   4.288   6.091   6.921  0.3237  0.0897  0.1399
   74CHL1    C6 7891   4.402   6.154   6.946 -0.6276 -0.1899  0.3783
   74CHL1    H6 7892   4.473   6.173   6.865  2.2332 -0.6740  2.6298
   74CHL1    C7 7893   4.455   6.184   7.079 -0.3958  0.8283 -0.7944
   74CHL1   H7A 7894   4.565   6.175   7.085 -0.4580  0.1079 -0.7526
   74CHL1   H7B 7895   4.424   6.290   7.097  0.1230  1.0833 -1.3741
   74CHL1    C8 7896   4.398   6.106   7.194 -0.6703  0.2839  0.4678
   74CHL1    H8 7897   4.431   6.000   7.188 -0.8716  0.1211  1.9198
   74CHL1   C14 7898   4.422   6.168   7.323 -0.2054 -0.5266 -0.0597
   74CHL1   H14 7899   4.356   6.257   7.318 -3.7859 -2.8631  1.4223
   74CHL1   C15 7900   4.569   6.209   7.355  0.0486  0.8469  0.0424
   74CHL1  H15A 7901   4.641   6.146   7.299 -0.8596 -0.5647  0.4203
   74CHL1  H15B 7902   4.589   6.313   7.320  1.7933  0.8515  0.9436
   74CHL1   C16 7903   4.584   6.195   7.504  0.1165  0.2275  0.0735
   74CHL1  H16A 7904   4.648   6.112   7.540  1.3486  0.9617 -0.3954
   74CHL1  H16B 7905   4.621   6.292   7.544  0.0209  0.8828 -1.3760
   74CHL1   C17 7906   4.432   6.163   7.556 -0.2353 -0.0535 -0.5070
   74CHL1   H17 7907   4.388   6.265   7.566  0.7435  0.3634 -0.2651
   74CHL1   C13 7908   4.369   6.088   7.439  1.0784 -0.1039 -0.6192
   74CHL1   C18 7909   4.410   5.941   7.438 -0.1487  0.2772  0.2992
   74CHL1  H18A 7910   4.369   5.887   7.526  1.3340  0.5548  1.2033
   74CHL1  H18B 7911   4.371   5.893   7.345  4.0525  0.3995 -1.7768
   74CHL1  H18C 7912   4.521   5.934   7.433 -0.3022 -2.3537 -2.4632
   74CHL1   C12 7913   4.216   6.108   7.434  0.0129  0.1552 -0.6725
   74CHL1  H12A 7914   4.167   6.038   7.505 -1.1052  0.9517 -0.6280
   74CHL1  H12B 7915   4.184   6.213   7.451  0.2897 -0.0358  1.3110
   74CHL1   C11 7916   4.154   6.071   7.297  0.3498 -0.0953  0.8268
   74CHL1  H11A 7917   4.155   5.960   7.306 -1.9455 -0.2697 -0.3530
   74CHL1  H11B 7918   4.049   6.105   7.291 -0.3103 -2.2052 -0.9584
   74CHL1    C9 7919   4.240   6.111   7.171  0.8834  0.1737  0.2026
   74CHL1    H9 7920   4.227   6.221   7.165  0.2729  0.0236 -1.8509
   74CHL1   C10 7921   4.192   6.052   7.036 -0.9263  0.5253  0.7224
   74CHL1   C19 7922   4.210   5.893   7.035  0.0900 -0.8647  0.4405
   74CHL1  H19A 7923   4.170   5.849   7.129 -1.9067  0.8854  0.4905
   74CHL1  H19B 7924   4.146   5.859   6.951  2.3881 -1.3800 -1.1907
   74CHL1  H19C 7925   4.303   5.842   7.003 -0.6915 -3.5889  2.2019
   74CHL1    C1 7926   4.054   6.108   7.000  0.3357 -0.0726  0.2936
   74CHL1   H1A 7927   3.986   6.054   7.070 -1.8223  1.2559 -0.6700
   74CHL1   H1B 7928   4.052   6.217   7.020  0.2140  0.2348 -1.2991
   74CHL1    C2 7929   4.012   6.080   6.857  0.5962  0.4112  0.8681
   74CHL1   H2A 7930   3.912   6.129   6.845 -1.3959 -3.4577  0.0307
   74CHL1   H2B 7931   3.997   5.970   6.854  0.5479  0.4301 -0.5992
   74CHL1   C20 7932   4.430   6.091   7.698 -0.2942 -0.2494  0.0989
   74CHL1   H20 7933   4.479   5.992   7.691 -0.0218 -0.0660 -0.7493
   74CHL1   C21 7934   4.284   6.078   7.745  0.0238  0.0242  0.2136
   74CHL1  H21A 7935   4.281   6.046   7.851 -0.4254  1.5730  0.6897
   74CHL1  H21B 7936   4.237   5.990   7.697  2.1336 -1.3618  0.5580
   74CHL1  H21C 7937   4.216   6.166   7.740  0.5593  0.6048  2.2206
   74CHL1   C22 7938   4.499   6.187   7.792  0.0407 -0.4435 -0.7514
   74CHL1  H22A 7939   4.606   6.209   7.772  0.0881  2.6347  2.0275
   74CHL1  H22B 7940   4.452   6.287   7.779  0.4202 -0.3563 -1.5406
   74CHL1   C23 7941   4.488   6.151   7.946  0.1331  0.3336 -0.2558
   74CHL1  H23A 7942   4.382   6.143   7.980  0.3591  1.6770  0.8211
   74CHL1  H23B 7943   4.530   6.049   7.959  0.2938  0.1723 -1.8057
   74CHL1   C24 7944   4.571   6.251   8.023 -0.9074  0.1736 -0.9912
   74CHL1  H24A 7945   4.672   6.256   7.976 -1.2441  2.1016 -1.6085
   74CHL1  H24B 7946   4.519   6.348   8.008 -3.6630 -0.7384  1.6396
   74CHL1   C25 7947   4.583   6.225   8.173 -0.2789 -0.5822 -0.1145
   74CHL1   H25 7948   4.484   6.224   8.223  0.7723  1.5989  2.2315
   74CHL1   C26 7949   4.655   6.093   8.201  0.8098 -0.3158 -1.0332
   74CHL1  H26A 7950   4.755   6.105   8.153  0.8829  1.8925 -0.4700
   74CHL1  H26B 7951   4.651   6.075   8.311  0.0860  3.2902 -0.3315
   74CHL1  H26C 7952   4.601   6.011   8.150 -1.7258 -1.5357  3.1384
   74CHL1   C27 7953   4.658   6.346   8.232  0.6613  0.4542 -0.4766
   74CHL1  H27A 7954   4.752   6.359   8.173  1.7368 -0.3165  0.9884
   74CHL1  H27B 7955   4.589   6.432   8.224  0.7330  0.6680  0.9214
   74CHL1  H27C 7956   4.676   6.329   8.340 -2.8846 -1.2343 -0.0402
   75CHL1    C3 7957   6.510   0.657   6.951 -0.1107  0.0482 -0.8007
   75CHL1    H3 7958   6.595   0.727   6.968  0.0916 -0.6643  1.4551
   75CHL1    O3 7959   6.494   0.641   6.814 -0.5957 -0.0094  0.4460
   75CHL1   H3' 7960   6.422   0.580   6.800 -0.7547  0.2313  0.2188
   75CHL1    C4 7961   6.557   0.518   7.008 -0.3266 -0.0599 -0.1034
   75CHL1   H4A 7962   6.479   0.443   6.980 -1.3881  0.3986  1.5012
   75CHL1   H4B 7963   6.653   0.509   6.953 -0.7533  1.1062 -1.0951
   75CHL1    C5 7964   6.577   0.532   7.160 -0.1443 -0.0222 -0.5053
   75CHL1    C6 7965   6.699   0.515   7.220 -0.0140  0.1505  1.2231
   75CHL1    H6 7966   6.774   0.466   7.157 -1.5467 -0.4315 -0.2271
   75CHL1    C7 7967   6.724   0.530   7.370  0.2721 -0.0583  0.0805
   75CHL1   H7A 7968   6.780   0.442   7.407 -0.8962 -1.4645 -1.3296
   75CHL1   H7B 7969   6.769   0.631   7.383  0.6387  0.4057 -3.6177
   75CHL1    C8 7970   6.593   0.543   7.453  0.5546  0.2482  0.4525
   75CHL1    H8 7971   6.535   0.449   7.466 -0.3214  0.0735 -3.6183
   75CHL1   C14 7972   6.617   0.609   7.589  0.2328  0.1746  0.2248
   75CHL1   H14 7973   6.661   0.708   7.564  1.4201 -0.2116  0.7179
   75CHL1   C15 7974   6.713   0.534   7.681  0.2694 -0.0962  0.3101
   75CHL1  H15A 7975   6.695   0.424   7.687  0.1335 -0.1755 -1.2672
   75CHL1  H15B 7976   6.816   0.545   7.642  0.1815 -0.5573 -0.0663
   75CHL1   C16 7977   6.683   0.595   7.818 -0.3832  0.0811 -0.2283
   75CHL1  H16A 7978   6.664   0.509   7.885 -2.4285  0.8566  0.2736
   75CHL1  H16B 7979   6.775   0.648   7.852  0.5334 -0.7722 -1.2784
   75CHL1   C17 7980   6.562   0.698   7.805 -0.0323  0.4359  0.1412
   75CHL1   H17 7981   6.608   0.790   7.763 -0.1156  1.1958  1.6622
   75CHL1   C13 7982   6.495   0.637   7.676  0.0552  0.0991 -0.5089
   75CHL1   C18 7983   6.418   0.512   7.700 -0.5999 -0.1447  0.2000
   75CHL1  H18A 7984   6.484   0.442   7.755  1.6248  1.1026 -0.7504
   75CHL1  H18B 7985   6.322   0.528   7.752 -0.0006 -0.0177  1.2864
   75CHL1  H18C 7986   6.395   0.461   7.604  0.8709  2.4283 -1.6438
   75CHL1   C12 7987   6.402   0.727   7.599  0.6252 -0.7095 -0.1538
   75CHL1  H12A 7988   6.301   0.731   7.646 -0.6460 -3.1668 -2.3725
   75CHL1  H12B 7989   6.443   0.829   7.594  0.5087 -0.7129 -3.4027
   75CHL1   C11 7990   6.381   0.672   7.456 -0.1527 -0.5763  0.2341
   75CHL1  H11A 7991   6.308   0.591   7.477 -2.2748  1.2373  0.1906
   75CHL1  H11B 7992   6.322   0.747   7.399  0.1908 -0.2446  0.3124
   75CHL1    C9 7993   6.499   0.636   7.379  0.0277  0.9868  0.3556
   75CHL1    H9 7994   6.557   0.730   7.373  1.0439  0.3646  0.1432
   75CHL1   C10 7995   6.462   0.591   7.234  0.6895 -0.3395  0.2802
   75CHL1   C19 7996   6.363   0.473   7.240  0.2052 -0.1401  0.6334
   75CHL1  H19A 7997   6.399   0.388   7.302  0.4194 -0.7553 -0.3156
   75CHL1  H19B 7998   6.264   0.503   7.279 -0.3032 -1.5697  0.5172
   75CHL1  H19C 7999   6.355   0.425   7.140 -0.1126  1.7876 -0.2939
   75CHL1    C1 8000   6.382   0.707   7.168 -0.8568  0.1490  0.4579
   75CHL1   H1A 8001   6.276   0.718   7.200 -0.6223  0.0597  1.2735
   75CHL1   H1B 8002   6.423   0.808   7.190 -0.5444  0.5618 -1.7523
   75CHL1    C2 8003   6.381   0.697   7.014  0.0506  0.0872 -0.2229
   75CHL1   H2A 8004   6.343   0.791   6.970 -2.0762  0.1367  1.5271
   75CHL1   H2B 8005   6.306   0.616   6.995  1.5702 -2.7048  4.1992
   75CHL1   C20 8006   6.483   0.734   7.937 -0.8595  0.3905  0.2359
   75CHL1   H20 8007   6.389   0.784   7.905 -1.2336 -0.6309 -0.3430
   75CHL1   C21 8008   6.574   0.828   8.015 -0.6985  0.4875 -0.7418
   75CHL1  H21A 8009   6.597   0.926   7.969  0.1385  0.7451  0.1994
   75CHL1  H21B 8010   6.661   0.764   8.038  0.1086  1.2613 -1.5308
   75CHL1  H21C 8011   6.520   0.858   8.107  2.1667  0.9961  0.8875
   75CHL1   C22 8012   6.425   0.613   8.017  0.6709  0.1547 -0.2889
   75CHL1  H22A 8013   6.351   0.553   7.960  1.3121 -2.3611  1.3354
   75CHL1  H22B 8014   6.511   0.544   8.031  0.5402 -0.1311 -0.8812
   75CHL1   C23 8015   6.368   0.650   8.155  0.6066 -0.5146 -0.5901
   75CHL1  H23A 8016   6.349   0.556   8.210 -0.6753 -0.3446 -0.7033
   75CHL1  H23B 8017   6.443   0.694   8.223 -0.8500 -1.3870  1.6906
   75CHL1   C24 8018   6.235   0.735   8.144  0.1505 -0.9954  0.8135
   75CHL1  H24A 8019   6.263   0.835   8.106  1.6244 -0.9739  1.8496
   75CHL1  H24B 8020   6.169   0.682   8.072  0.5539 -1.5320  0.8295
   75CHL1   C25 8021   6.156   0.736   8.277 -0.4871  0.3392 -0.1835
   75CHL1   H25 8022   6.149   0.630   8.310 -0.5662  0.5023  0.3375
   75CHL1   C26 8023   6.222   0.805   8.395 -0.8137 -0.6998 -0.1931
   75CHL1  H26A 8024   6.247   0.907   8.360 -1.8810 -0.1242  0.6874
   75CHL1  H26B 8025   6.155   0.823   8.481  0.6537  1.3126  0.5837
   75CHL1  H26C 8026   6.309   0.752   8.438 -0.8313  1.4925  2.8231
   75CHL1   C27 8027   6.010   0.793   8.273 -0.3433  1.6829  0.2372
   75CHL1  H27A 8028   5.958   0.750   8.362 -0.3699 -1.1147 -1.0137
   75CHL1  H27B 8029   6.019   0.904   8.269  3.6058  1.4503 -1.7313
   75CHL1  H27C 8030   5.958   0.757   8.181 -0.8562  2.0071  0.3939
   76CHL1    C3 8031   4.172   3.053   7.175 -0.1269  0.2464  0.5779
   76CHL1    H3 8032   4.279   3.029   7.154 -0.8682 -1.1557 -1.9143
   76CHL1    O3 8033   4.085   3.014   7.059 -0.3621 -0.1944 -0.0824
   76CHL1   H3' 8034   4.116   3.076   6.993  2.1891 -1.8296 -0.5889
   76CHL1    C4 8035   4.121   2.967   7.298  0.7056 -0.1899  0.6016
   76CHL1   H4A 8036   4.011   2.960   7.302  0.7473 -0.4256  2.8098
   76CHL1   H4B 8037   4.155   2.862   7.282 -0.5521 -0.7680  1.5661
   76CHL1    C5 8038   4.170   3.018   7.427 -0.2936  0.4964 -0.6434
   76CHL1    C6 8039   4.226   2.938   7.517  0.4474 -0.3118  0.3375
   76CHL1    H6 8040   4.241   2.834   7.485  0.2265 -0.0293 -0.7034
   76CHL1    C7 8041   4.261   2.967   7.664 -0.3470  0.2507  0.2334
   76CHL1   H7A 8042   4.210   2.895   7.732  2.4051 -1.0984  1.0382
   76CHL1   H7B 8043   4.371   2.975   7.673 -0.0630 -2.7827  0.3526
   76CHL1    C8 8044   4.213   3.113   7.700 -0.1343  0.4629  0.1856
   76CHL1    H8 8045   4.106   3.106   7.729 -0.3608  2.8049  0.1242
   76CHL1   C14 8046   4.284   3.168   7.821  0.0431  0.1934  0.3632
   76CHL1   H14 8047   4.392   3.183   7.801  0.3513 -1.7205  0.3888
   76CHL1   C15 8048   4.293   3.080   7.948 -0.5133 -0.0545  0.4963
   76CHL1  H15A 8049   4.205   3.013   7.961 -1.4130  1.5436  3.4687
   76CHL1  H15B 8050   4.388   3.022   7.948  1.2665  2.6671  1.7820
   76CHL1   C16 8051   4.301   3.179   8.070 -0.0608  0.0217  0.3618
   76CHL1  H16A 8052   4.216   3.162   8.140 -0.5126  1.4097  0.1790
   76CHL1  H16B 8053   4.395   3.164   8.127  1.3111 -0.6210 -1.9377
   76CHL1   C17 8054   4.308   3.318   7.997  0.2581  0.4530 -0.9347
   76CHL1   H17 8055   4.414   3.330   7.966 -0.0397  0.2028 -2.0993
   76CHL1   C13 8056   4.228   3.305   7.865  0.2701 -0.2076 -0.4415
   76CHL1   C18 8057   4.075   3.295   7.888 -0.0829 -0.3925 -0.8627
   76CHL1  H18A 8058   4.035   3.391   7.928  2.2159  0.5696 -0.7407
   76CHL1  H18B 8059   4.020   3.276   7.793  0.3867  0.0175 -1.2252
   76CHL1  H18C 8060   4.058   3.221   7.969  1.1472  1.5635  1.3018
   76CHL1   C12 8061   4.262   3.414   7.759 -0.1302 -0.6548 -0.3149
   76CHL1  H12A 8062   4.224   3.516   7.782 -2.4146 -1.3523 -0.8288
   76CHL1  H12B 8063   4.373   3.426   7.766 -0.3274  0.7296  1.1037
   76CHL1   C11 8064   4.218   3.368   7.622 -0.3394  0.6769 -0.8223
   76CHL1  H11A 8065   4.110   3.391   7.630 -0.1851  0.8989  0.9777
   76CHL1  H11B 8066   4.250   3.445   7.548 -2.2700  2.8893  0.5032
   76CHL1    C9 8067   4.231   3.213   7.581 -0.4151  0.5476  0.2797
   76CHL1    H9 8068   4.340   3.210   7.557 -0.7270  0.9488 -1.2830
   76CHL1   C10 8069   4.154   3.171   7.451  0.1615  0.5151 -0.3040
   76CHL1   C19 8070   4.007   3.199   7.478 -0.0859 -0.1537 -0.2420
   76CHL1  H19A 8071   3.987   3.308   7.480  1.1507  0.1650 -2.1078
   76CHL1  H19B 8072   3.944   3.165   7.393  0.4692  1.5294 -1.3986
   76CHL1  H19C 8073   3.968   3.146   7.567 -0.2676  2.0158  1.0458
   76CHL1    C1 8074   4.214   3.240   7.324 -0.5331  0.4050  0.4832
   76CHL1   H1A 8075   4.191   3.349   7.318 -1.1222  0.2090 -2.6871
   76CHL1   H1B 8076   4.324   3.234   7.319 -0.6272 -0.7508 -0.4756
   76CHL1    C2 8077   4.149   3.203   7.190 -0.4292 -0.4985  0.4071
   76CHL1   H2A 8078   4.201   3.256   7.107 -1.5685  0.6114  0.3740
   76CHL1   H2B 8079   4.040   3.226   7.187 -0.3735 -0.2236 -2.7429
   76CHL1   C20 8080   4.282   3.439   8.086  0.1454 -0.3578 -0.6070
   76CHL1   H20 8081   4.227   3.505   8.016 -0.0096  1.0188  0.7724
   76CHL1   C21 8082   4.414   3.492   8.136  0.8193  0.1959 -0.5846
   76CHL1  H21A 8083   4.486   3.503   8.051 -0.0105  0.4294 -1.2712
   76CHL1  H21B 8084   4.467   3.425   8.206 -0.1295  0.1286  0.0873
   76CHL1  H21C 8085   4.402   3.588   8.190  0.6273 -0.2019  0.0980
   76CHL1   C22 8086   4.185   3.405   8.203 -0.0022  0.1816  0.1368
   76CHL1  H22A 8087   4.112   3.327   8.172  0.8519 -0.0752 -1.3185
   76CHL1  H22B 8088   4.255   3.364   8.279  0.4506  0.9778  0.1606
   76CHL1   C23 8089   4.116   3.525   8.266  0.4851 -0.1661 -0.2626
   76CHL1  H23A 8090   4.190   3.601   8.301  0.6457  0.7420 -2.4017
   76CHL1  H23B 8091   4.045   3.570   8.193  0.4125 -0.9709 -0.6998
   76CHL1   C24 8092   4.047   3.489   8.397 -0.5391 -0.1745  0.6325
   76CHL1  H24A 8093   3.958   3.432   8.366  0.1100 -0.5052 -0.7141
   76CHL1  H24B 8094   4.121   3.425   8.449 -0.7492 -0.3254  0.7458
   76CHL1   C25 8095   3.999   3.609   8.482 -0.5168  0.3389  0.2917
   76CHL1   H25 8096   4.084   3.681   8.485 -1.5697  1.7200 -1.2102
   76CHL1   C26 8097   3.881   3.678   8.416  0.1766 -0.5213 -0.0513
   76CHL1  H26A 8098   3.794   3.609   8.425 -0.3160  0.0183 -0.5390
   76CHL1  H26B 8099   3.862   3.776   8.465 -1.8360  0.0846 -1.9029
   76CHL1  H26C 8100   3.904   3.690   8.308  2.6426 -0.5471  0.4243
   76CHL1   C27 8101   3.962   3.570   8.627  0.6584 -0.4500  0.0791
   76CHL1  H27A 8102   4.047   3.518   8.675 -0.0764 -0.8385  0.9968
   76CHL1  H27B 8103   3.934   3.664   8.679  1.4531 -0.5996  0.7878
   76CHL1  H27C 8104   3.871   3.508   8.610  0.6354 -0.4538  0.2191
   77CHL1    C3 8105   5.638   1.611   6.888 -0.5006 -0.9413  0.0901
   77CHL1    H3 8106   5.740   1.628   6.928 -1.4107  2.2059  1.3758
   77CHL1    O3 8107   5.632   1.582   6.748  0.0980 -0.3062 -0.2823
   77CHL1   H3' 8108   5.681   1.500   6.735  0.2914 -0.4697  1.2291
   77CHL1    C4 8109   5.567   1.503   6.975  0.1652 -0.0370 -0.2799
   77CHL1   H4A 8110   5.461   1.494   6.944  0.4111  1.1281 -1.5700
   77CHL1   H4B 8111   5.611   1.404   6.951  2.6041  0.5305  1.4425
   77CHL1    C5 8112   5.576   1.523   7.129  0.0732  0.2725 -0.1578
   77CHL1    C6 8113   5.647   1.442   7.213 -0.2065  0.2784 -0.2133
   77CHL1    H6 8114   5.689   1.351   7.168  0.1438  1.1942 -1.8354
   77CHL1    C7 8115   5.658   1.469   7.356 -1.0178 -0.3426 -0.3142
   77CHL1   H7A 8116   5.627   1.374   7.406 -0.8401  0.0414  0.5446
   77CHL1   H7B 8117   5.764   1.491   7.378 -1.5287  2.5112 -0.3707
   77CHL1    C8 8118   5.572   1.580   7.413  0.9224 -0.1815  0.5273
   77CHL1    H8 8119   5.467   1.549   7.432 -0.0090  2.0910 -0.5584
   77CHL1   C14 8120   5.628   1.626   7.550  0.9011 -0.2871 -0.3490
   77CHL1   H14 8121   5.731   1.652   7.518  1.4369 -2.6318 -0.7226
   77CHL1   C15 8122   5.655   1.523   7.662 -0.0694 -0.1104 -0.8487
   77CHL1  H15A 8123   5.577   1.444   7.670 -2.0582  1.9005  1.5677
   77CHL1  H15B 8124   5.752   1.474   7.641  0.7455  1.6007 -1.3201
   77CHL1   C16 8125   5.670   1.613   7.789  0.0166  0.0464 -0.3327
   77CHL1  H16A 8126   5.596   1.573   7.861  1.1301  1.2281  1.5599
   77CHL1  H16B 8127   5.769   1.614   7.841 -0.8785 -1.1024  1.5065
   77CHL1   C17 8128   5.639   1.763   7.737 -0.5298  0.2535 -0.4330
   77CHL1   H17 8129   5.738   1.809   7.715 -0.0669 -1.5291 -2.3509
   77CHL1   C13 8130   5.560   1.749   7.608  0.2953 -0.0358  0.3452
   77CHL1   C18 8131   5.419   1.702   7.641 -0.0188 -0.0739 -0.0967
   77CHL1  H18A 8132   5.361   1.679   7.550 -0.2771 -1.6769  0.4477
   77CHL1  H18B 8133   5.417   1.611   7.704  1.5797 -0.7700 -0.9898
   77CHL1  H18C 8134   5.353   1.780   7.684  1.6833 -0.0439  2.7504
   77CHL1   C12 8135   5.571   1.866   7.506 -0.0193  0.2153 -0.2915
   77CHL1  H12A 8136   5.513   1.955   7.536 -0.4825 -0.2739  0.2819
   77CHL1  H12B 8137   5.678   1.894   7.497  0.1215  0.0103  0.6465
   77CHL1   C11 8138   5.508   1.822   7.372 -0.0648 -0.0273 -0.5609
   77CHL1  H11A 8139   5.402   1.803   7.398  0.0629 -0.1870 -0.1430
   77CHL1  H11B 8140   5.504   1.896   7.290 -0.2088 -1.3620 -1.7860
   77CHL1    C9 8141   5.569   1.698   7.314  0.3440  0.3350 -0.2290
   77CHL1    H9 8142   5.677   1.723   7.309  0.6060 -0.1544  1.9467
   77CHL1   C10 8143   5.517   1.656   7.170  0.5684  0.3282 -0.4021
   77CHL1   C19 8144   5.365   1.656   7.188 -0.0276  0.4175  0.2566
   77CHL1  H19A 8145   5.323   1.625   7.090  0.0378 -0.0193  0.3661
   77CHL1  H19B 8146   5.328   1.610   7.282 -1.4976  1.1889  0.0843
   77CHL1  H19C 8147   5.328   1.761   7.193 -1.4489 -0.1130  2.1191
   77CHL1    C1 8148   5.562   1.770   7.071  0.1198  0.0948  0.0895
   77CHL1   H1A 8149   5.498   1.860   7.084 -0.1107 -0.2528  1.5458
   77CHL1   H1B 8150   5.665   1.794   7.105  0.5673 -2.5706  0.8988
   77CHL1    C2 8151   5.558   1.738   6.914 -0.1787 -0.4482  0.5858
   77CHL1   H2A 8152   5.603   1.823   6.859 -0.0780 -2.4677 -2.7198
   77CHL1   H2B 8153   5.454   1.728   6.875  0.6518 -3.8053 -1.0935
   77CHL1   C20 8154   5.579   1.849   7.846 -0.5438 -0.4160  0.1863
   77CHL1   H20 8155   5.483   1.797   7.868  1.2054 -3.7311  0.5945
   77CHL1   C21 8156   5.556   1.997   7.804 -0.3701  0.0899  0.2241
   77CHL1  H21A 8157   5.539   2.067   7.888 -1.6556 -1.4661  1.3344
   77CHL1  H21B 8158   5.462   2.008   7.745  0.3512 -1.7050 -1.3777
   77CHL1  H21C 8159   5.645   2.043   7.757 -1.3483  4.0603  1.8425
   77CHL1   C22 8160   5.677   1.855   7.967  0.0026 -0.4936  0.4070
   77CHL1  H22A 8161   5.733   1.763   7.991 -0.3340 -0.5701  0.9242
   77CHL1  H22B 8162   5.750   1.933   7.935 -0.5325  0.5044  1.5429
   77CHL1   C23 8163   5.607   1.897   8.094 -0.4767  0.5602  0.3538
   77CHL1  H23A 8164   5.568   1.999   8.077 -1.5047  0.0840 -0.3009
   77CHL1  H23B 8165   5.521   1.827   8.105 -0.7146  0.8988  0.6460
   77CHL1   C24 8166   5.690   1.907   8.219 -0.3110  0.0339  0.4728
   77CHL1  H24A 8167   5.758   1.994   8.206 -1.7458  1.0098 -0.8218
   77CHL1  H24B 8168   5.624   1.936   8.303  0.0436 -0.8495  1.0760
   77CHL1   C25 8169   5.771   1.782   8.263 -0.2966 -0.5184 -0.2874
   77CHL1   H25 8170   5.853   1.761   8.191  0.5559 -2.2028  1.1015
   77CHL1   C26 8171   5.837   1.820   8.405  1.0733 -0.0806  0.4226
   77CHL1  H26A 8172   5.900   1.745   8.457  0.8736 -0.3305  0.3059
   77CHL1  H26B 8173   5.898   1.913   8.392  0.2513  0.3225 -0.7164
   77CHL1  H26C 8174   5.742   1.835   8.460 -0.8611  2.1489 -3.0856
   77CHL1   C27 8175   5.690   1.650   8.259 -0.6537 -0.0108 -0.0484
   77CHL1  H27A 8176   5.656   1.628   8.156 -1.1081  0.6412 -0.0447
   77CHL1  H27B 8177   5.745   1.562   8.297  0.4999  1.1771  1.1643
   77CHL1  H27C 8178   5.594   1.675   8.308 -0.9198 -0.8998 -0.1004
   78CHL1    C3 8179   1.178   3.296   6.839  0.3567  0.2133 -0.8385
   78CHL1    H3 8180   1.186   3.406   6.854  1.2799 -0.0017  0.3909
   78CHL1    O3 8181   1.187   3.288   6.703  0.4559 -0.2649  0.3462
   78CHL1   H3' 8182   1.187   3.193   6.685  2.2177 -0.5126  1.4254
   78CHL1    C4 8183   1.295   3.216   6.904 -0.1221 -0.2459 -0.0122
   78CHL1   H4A 8184   1.283   3.106   6.889  0.1789 -0.4356  1.0347
   78CHL1   H4B 8185   1.393   3.245   6.861 -0.7521 -1.6043 -2.5157
   78CHL1    C5 8186   1.286   3.243   7.058  0.4476  0.1751  0.9107
   78CHL1    C6 8187   1.391   3.291   7.122  0.2743 -0.4468 -0.3205
   78CHL1    H6 8188   1.491   3.295   7.075  0.7446 -1.1965  0.5737
   78CHL1    C7 8189   1.396   3.306   7.275 -0.0376  0.3583 -0.7988
   78CHL1   H7A 8190   1.490   3.257   7.306 -1.3689 -4.0612 -2.9274
   78CHL1   H7B 8191   1.393   3.414   7.302 -2.0485 -0.3827  2.5430
   78CHL1    C8 8192   1.276   3.235   7.348 -0.5014  0.6292  0.3233
   78CHL1    H8 8193   1.299   3.126   7.351 -0.5423  0.4192 -3.1535
   78CHL1   C14 8194   1.262   3.293   7.489  0.0441  0.1279 -0.1272
   78CHL1   H14 8195   1.232   3.398   7.468 -2.2461 -0.4887 -0.3065
   78CHL1   C15 8196   1.384   3.289   7.582  0.2982  0.4006  0.8561
   78CHL1  H15A 8197   1.430   3.189   7.572  1.5759  1.1930 -2.0795
   78CHL1  H15B 8198   1.458   3.370   7.562  1.0995 -0.6099 -0.3597
   78CHL1   C16 8199   1.328   3.302   7.718  0.0934 -0.2505 -0.2171
   78CHL1  H16A 8200   1.367   3.226   7.789 -0.0929  1.0177  1.2974
   78CHL1  H16B 8201   1.354   3.399   7.765  3.2671 -0.8860 -0.4483
   78CHL1   C17 8202   1.169   3.302   7.703  0.0647  0.2284  0.1008
   78CHL1   H17 8203   1.132   3.405   7.687  0.6821  0.5439  0.6425
   78CHL1   C13 8204   1.154   3.227   7.570  1.3439 -0.6291 -0.2244
   78CHL1   C18 8205   1.187   3.075   7.588  0.0928  0.3851 -0.3371
   78CHL1  H18A 8206   1.117   3.004   7.637  3.1072 -2.4982  0.1707
   78CHL1  H18B 8207   1.212   3.036   7.487 -0.3263 -2.8033  0.7029
   78CHL1  H18C 8208   1.279   3.065   7.650 -1.0455  0.2982  1.4093
   78CHL1   C12 8209   1.015   3.263   7.490  0.0134  0.2751  0.2346
   78CHL1  H12A 8210   0.928   3.218   7.543  1.0182 -0.8073  1.0075
   78CHL1  H12B 8211   1.006   3.374   7.487 -1.1881  0.2288  1.1842
   78CHL1   C11 8212   1.021   3.202   7.351 -1.1726  0.6854  0.0353
   78CHL1  H11A 8213   1.020   3.091   7.359 -0.5340  0.6095 -0.8854
   78CHL1  H11B 8214   0.926   3.230   7.301 -0.6843 -0.9923 -1.9438
   78CHL1    C9 8215   1.141   3.258   7.269  0.4603  0.4839 -0.9911
   78CHL1    H9 8216   1.108   3.364   7.263 -1.2654  0.0568  0.1536
   78CHL1   C10 8217   1.145   3.206   7.123  0.3008  0.4313 -0.0209
   78CHL1   C19 8218   1.122   3.058   7.119  0.5206  0.0537 -0.1910
   78CHL1  H19A 8219   1.143   3.012   7.020 -2.7639  2.2737 -2.1255
   78CHL1  H19B 8220   1.176   3.001   7.197  0.0261 -0.5292 -0.2644
   78CHL1  H19C 8221   1.012   3.046   7.130  0.4235  2.0569  1.4601
   78CHL1    C1 8222   1.033   3.275   7.038 -1.0248  0.2303  0.3048
   78CHL1   H1A 8223   0.931   3.251   7.075 -0.4171 -1.3262  1.0835
   78CHL1   H1B 8224   1.046   3.383   7.060  1.1475  0.2379 -0.7611
   78CHL1    C2 8225   1.047   3.249   6.886  0.6832 -0.5589  0.4625
   78CHL1   H2A 8226   0.973   3.306   6.826  2.8902  1.3403 -0.6062
   78CHL1   H2B 8227   1.032   3.142   6.861  0.1675 -0.4271  0.2105
   78CHL1   C20 8228   1.097   3.248   7.829  0.6672  0.2991 -0.2720
   78CHL1   H20 8229   1.158   3.159   7.856 -2.6681 -2.0791 -0.0256
   78CHL1   C21 8230   0.953   3.199   7.820  0.1368 -0.4039 -0.3454
   78CHL1  H21A 8231   0.929   3.134   7.906 -0.7196 -0.0317 -0.2896
   78CHL1  H21B 8232   0.943   3.143   7.725  0.2024  2.6713 -2.3330
   78CHL1  H21C 8233   0.884   3.287   7.822  0.6884  0.0324  1.9211
   78CHL1   C22 8234   1.115   3.338   7.952  0.9420  0.5627  0.3565
   78CHL1  H22A 8235   1.163   3.431   7.915  0.0583  0.3622 -1.4163
   78CHL1  H22B 8236   1.014   3.362   7.989  0.6726 -1.6965  1.2645
   78CHL1   C23 8237   1.179   3.262   8.064  0.1986  0.3572 -0.4409
   78CHL1  H23A 8238   1.127   3.164   8.067 -0.5085  0.7569  1.2124
   78CHL1  H23B 8239   1.284   3.230   8.049 -0.7344 -3.6663  0.3327
   78CHL1   C24 8240   1.148   3.334   8.201  0.5684 -0.0054  0.5203
   78CHL1  H24A 8241   1.204   3.429   8.211  0.9436 -0.2867  1.1704
   78CHL1  H24B 8242   1.040   3.358   8.196  0.7944  0.7953 -1.4147
   78CHL1   C25 8243   1.180   3.252   8.322 -0.0103  0.1284  0.0225
   78CHL1   H25 8244   1.288   3.229   8.338  0.0284  0.9161  0.9579
   78CHL1   C26 8245   1.130   3.336   8.444 -0.1919  0.3955 -0.1628
   78CHL1  H26A 8246   1.030   3.369   8.408  0.0037  1.0016 -0.1594
   78CHL1  H26B 8247   1.136   3.268   8.532  0.8792 -0.8339 -1.1443
   78CHL1  H26C 8248   1.182   3.433   8.454 -1.7608  1.1211  1.6757
   78CHL1   C27 8249   1.100   3.123   8.314 -0.4308  0.0508  0.0333
   78CHL1  H27A 8250   0.991   3.137   8.297 -0.2211 -0.5126 -2.1501
   78CHL1  H27B 8251   1.142   3.074   8.223  1.1976  0.2702  0.6371
   78CHL1  H27C 8252   1.122   3.058   8.401 -1.0515  1.1091  0.9939
   79CHL1    C3 8253   4.815   3.074   7.208  0.3665 -0.7423 -0.2826
   79CHL1    H3 8254   4.926   3.075   7.220  0.4037 -0.3530 -0.6612
   79CHL1    O3 8255   4.782   3.054   7.079  0.5781  0.0405  0.5130
   79CHL1   H3' 8256   4.840   2.985   7.045  0.2328 -1.1473  2.1975
   79CHL1    C4 8257   4.762   2.961   7.303 -0.3547 -1.2108  0.0065
   79CHL1   H4A 8258   4.652   2.953   7.288 -0.4335  0.6502 -0.6292
   79CHL1   H4B 8259   4.820   2.870   7.275  1.3950  0.2697 -1.4406
   79CHL1    C5 8260   4.784   2.985   7.448 -0.6658  0.2737 -0.7184
   79CHL1    C6 8261   4.837   2.894   7.531  0.5872 -0.2248 -0.9267
   79CHL1    H6 8262   4.876   2.798   7.496  0.7084 -0.3932 -0.3418
   79CHL1    C7 8263   4.864   2.921   7.677  0.1865  0.5186  0.1179
   79CHL1   H7A 8264   4.829   2.826   7.724  0.1985 -0.3357 -1.4814
   79CHL1   H7B 8265   4.974   2.924   7.691  0.9430 -0.8645 -4.0547
   79CHL1    C8 8266   4.800   3.044   7.738  0.5133  1.0158  0.0838
   79CHL1    H8 8267   4.697   3.011   7.763  0.4674 -0.4330 -1.8271
   79CHL1   C14 8268   4.868   3.083   7.871 -0.7399  0.6094  0.3251
   79CHL1   H14 8269   4.970   3.116   7.841  1.0486 -4.3979 -0.0780
   79CHL1   C15 8270   4.901   2.970   7.970  0.0114  0.7887  1.1855
   79CHL1  H15A 8271   4.827   2.889   7.953  1.2366 -0.2741  0.7393
   79CHL1  H15B 8272   4.997   2.917   7.955  0.0139  0.8673  0.9210
   79CHL1   C16 8273   4.898   3.040   8.111 -0.0505 -0.0636  0.9734
   79CHL1  H16A 8274   4.816   2.988   8.166 -0.7819  0.9721  0.8962
   79CHL1  H16B 8275   4.994   3.018   8.162  0.4041 -2.2169 -0.7028
   79CHL1   C17 8276   4.868   3.187   8.085  0.5838 -0.2863  0.1627
   79CHL1   H17 8277   4.967   3.231   8.063  0.6660 -0.5500  0.0080
   79CHL1   C13 8278   4.793   3.188   7.949 -0.2625 -0.0245 -0.2582
   79CHL1   C18 8279   4.648   3.137   7.973 -1.0632  0.0952  0.4297
   79CHL1  H18A 8280   4.640   3.028   7.989  0.6287 -0.2309 -0.7168
   79CHL1  H18B 8281   4.608   3.193   8.061  1.1949  0.9474  0.9981
   79CHL1  H18C 8282   4.579   3.169   7.892 -0.4267  2.7196  0.8060
   79CHL1   C12 8283   4.799   3.313   7.865  0.8555 -0.3171  0.4394
   79CHL1  H12A 8284   4.745   3.400   7.907  0.3984  0.0206 -0.7972
   79CHL1  H12B 8285   4.903   3.341   7.842  0.2854 -0.2691 -2.5081
   79CHL1   C11 8286   4.752   3.289   7.719  0.2631  0.6468  0.5530
   79CHL1  H11A 8287   4.642   3.290   7.728  0.0349  2.0177 -1.7144
   79CHL1  H11B 8288   4.771   3.378   7.656 -2.7797  0.8392 -0.2425
   79CHL1    C9 8289   4.798   3.158   7.642 -1.1671  0.2107  0.0817
   79CHL1    H9 8290   4.906   3.177   7.624 -0.7728  0.7024  2.5901
   79CHL1   C10 8291   4.738   3.123   7.502 -0.6539 -0.7995 -0.0077
   79CHL1   C19 8292   4.588   3.136   7.508  0.1761 -0.0599  0.2987
   79CHL1  H19A 8293   4.555   3.070   7.591  1.5768 -2.0576 -0.6480
   79CHL1  H19B 8294   4.553   3.236   7.540 -0.1163 -0.6065  1.7581
   79CHL1  H19C 8295   4.546   3.106   7.409 -1.4011 -0.7872  1.1604
   79CHL1    C1 8296   4.804   3.235   7.406  0.1668 -0.5661 -0.1220
   79CHL1   H1A 8297   4.760   3.334   7.434  0.5714 -0.6136  0.7311
   79CHL1   H1B 8298   4.915   3.245   7.416  0.0552 -0.1212  0.8968
   79CHL1    C2 8299   4.774   3.209   7.259  0.2995  0.5949  0.3186
   79CHL1   H2A 8300   4.823   3.292   7.204  2.0407 -0.5017  0.1167
   79CHL1   H2B 8301   4.665   3.208   7.239 -0.0134 -0.7540  1.9052
   79CHL1   C20 8302   4.807   3.271   8.201  0.1350  0.1763  0.9334
   79CHL1   H20 8303   4.706   3.235   8.230 -0.7268  1.7123 -0.0508
   79CHL1   C21 8304   4.812   3.419   8.167 -0.5193  0.1610 -0.1736
   79CHL1  H21A 8305   4.910   3.445   8.123 -0.1106  0.2516  0.7622
   79CHL1  H21B 8306   4.800   3.479   8.260 -1.2434  2.2130 -1.5039
   79CHL1  H21C 8307   4.730   3.428   8.093 -0.0107 -0.7803 -0.8661
   79CHL1   C22 8308   4.888   3.237   8.333  0.1571  0.4136  0.8809
   79CHL1  H22A 8309   4.885   3.128   8.354 -3.7103  0.0876 -0.5467
   79CHL1  H22B 8310   4.987   3.279   8.305 -0.4043  0.8346 -0.5887
   79CHL1   C23 8311   4.841   3.307   8.464 -0.2559  0.5677 -0.4832
   79CHL1  H23A 8312   4.845   3.417   8.461 -0.6402  0.5972 -0.1174
   79CHL1  H23B 8313   4.742   3.263   8.490  0.4316 -0.9879 -0.3462
   79CHL1   C24 8314   4.934   3.255   8.578 -0.1894  0.2040  0.3433
   79CHL1  H24A 8315   4.872   3.262   8.670  0.6123  0.4829  0.8783
   79CHL1  H24B 8316   4.962   3.149   8.563  0.4427  0.3278  0.6130
   79CHL1   C25 8317   5.067   3.332   8.603  0.2461  0.2291  0.9030
   79CHL1   H25 8318   5.132   3.307   8.516 -0.5405  1.4253 -0.0543
   79CHL1   C26 8319   5.060   3.485   8.619 -0.5222  0.4033  0.4309
   79CHL1  H26A 8320   5.166   3.517   8.635  0.1458 -1.3172 -0.3454
   79CHL1  H26B 8321   5.025   3.537   8.527  2.9511 -0.2259 -1.4323
   79CHL1  H26C 8322   5.009   3.512   8.714 -0.4425  0.4409  0.4629
   79CHL1   C27 8323   5.131   3.267   8.717 -0.4720 -0.2742 -0.5332
   79CHL1  H27A 8324   5.235   3.305   8.733  0.1351 -2.4713  1.2447
   79CHL1  H27B 8325   5.072   3.276   8.810  0.2446  1.0432 -0.1673
   79CHL1  H27C 8326   5.135   3.157   8.704 -1.7176 -0.3480 -0.3372
   80CHL1    C3 8327   3.106   6.745   6.962  0.6329  0.8461  0.1950
   80CHL1    H3 8328   3.085   6.852   6.984  2.7034  1.6859 -1.5827
   80CHL1    O3 8329   3.096   6.725   6.822  0.2568  0.6849  0.1817
   80CHL1   H3' 8330   3.103   6.629   6.817  3.9447  0.7556  0.9929
   80CHL1    C4 8331   3.243   6.703   7.000  0.2732 -0.2287 -0.6256
   80CHL1   H4A 8332   3.266   6.605   6.953  1.0990  0.5971 -2.0156
   80CHL1   H4B 8333   3.312   6.780   6.959  1.4309 -0.0077  1.6053
   80CHL1    C5 8334   3.246   6.699   7.156 -0.8844  0.3558 -0.0358
   80CHL1    C6 8335   3.345   6.765   7.221  1.1998  0.0821  0.1747
   80CHL1    H6 8336   3.416   6.826   7.162  0.2713  0.9897 -0.0175
   80CHL1    C7 8337   3.380   6.749   7.367 -0.3358 -0.6533  0.3050
   80CHL1   H7A 8338   3.476   6.697   7.385  1.5951  2.0909 -1.2480
   80CHL1   H7B 8339   3.383   6.839   7.432  0.1591 -0.9520  0.6980
   80CHL1    C8 8340   3.290   6.650   7.439 -0.7348  0.1309 -0.0218
   80CHL1    H8 8341   3.334   6.550   7.417  2.1288  1.9137 -3.5461
   80CHL1   C14 8342   3.275   6.686   7.588  0.5121 -0.1437  1.1654
   80CHL1   H14 8343   3.220   6.782   7.591 -1.7454 -1.3673  1.0520
   80CHL1   C15 8344   3.403   6.699   7.669 -1.1767  0.6990 -0.3777
   80CHL1  H15A 8345   3.466   6.615   7.634  1.8432  3.0351 -1.0018
   80CHL1  H15B 8346   3.467   6.786   7.642  0.0027 -0.6366 -2.1516
   80CHL1   C16 8347   3.364   6.673   7.814 -0.1753 -0.7131  1.0444
   80CHL1  H16A 8348   3.421   6.586   7.854  1.9765 -0.1815 -0.6938
   80CHL1  H16B 8349   3.379   6.758   7.884  2.4874 -0.0177 -0.2516
   80CHL1   C17 8350   3.215   6.639   7.810 -0.6594 -0.9127  0.0849
   80CHL1   H17 8351   3.163   6.737   7.809  0.1006 -0.4890  0.9481
   80CHL1   C13 8352   3.190   6.587   7.670 -0.3180 -1.0594 -0.1221
   80CHL1   C18 8353   3.245   6.445   7.662 -0.3562 -0.4177  0.0672
   80CHL1  H18A 8354   3.338   6.439   7.722 -0.5556 -1.4486  0.3005
   80CHL1  H18B 8355   3.166   6.386   7.714 -1.1970  0.7995  0.1941
   80CHL1  H18C 8356   3.254   6.405   7.558 -0.5343  0.7230 -0.3957
   80CHL1   C12 8357   3.051   6.597   7.609  0.3991 -0.3649 -0.3913
   80CHL1  H12A 8358   2.980   6.527   7.657  0.3380  0.3544  0.5933
   80CHL1  H12B 8359   3.016   6.702   7.626  1.8205 -0.0048  0.4719
   80CHL1   C11 8360   3.040   6.564   7.460  0.0834  0.1457  0.9695
   80CHL1  H11A 8361   3.070   6.457   7.449  2.0036  0.6262  1.1251
   80CHL1  H11B 8362   2.940   6.572   7.412  0.0893 -1.8028  0.5241
   80CHL1    C9 8363   3.146   6.647   7.379  1.0709  0.0381  0.0747
   80CHL1    H9 8364   3.114   6.753   7.394  2.6309  0.4384  0.7092
   80CHL1   C10 8365   3.144   6.617   7.226 -0.5290 -0.1789 -0.2944
   80CHL1   C19 8366   3.160   6.462   7.200  0.0499  0.0554 -0.0148
   80CHL1  H19A 8367   3.175   6.432   7.094 -1.5389 -0.4795 -0.1241
   80CHL1  H19B 8368   3.249   6.433   7.260 -0.8041  0.7993  1.7017
   80CHL1  H19C 8369   3.070   6.410   7.241  0.3311 -0.7227 -0.3697
   80CHL1    C1 8370   3.002   6.665   7.176  0.7012 -0.1914 -0.3468
   80CHL1   H1A 8371   2.918   6.610   7.222  1.1782  1.0496  2.2368
   80CHL1   H1B 8372   3.000   6.770   7.212  1.0690  0.0573 -1.0394
   80CHL1    C2 8373   2.999   6.664   7.027  0.0341 -0.1915 -0.0626
   80CHL1   H2A 8374   2.905   6.708   6.987  0.1169 -0.0480 -0.1012
   80CHL1   H2B 8375   3.011   6.562   6.984  2.0470  0.7742 -1.9643
   80CHL1   C20 8376   3.153   6.580   7.942 -0.7835 -0.2182  0.1893
   80CHL1   H20 8377   3.208   6.484   7.947 -0.1294  0.1860  0.9129
   80CHL1   C21 8378   3.008   6.540   7.917  0.6324  0.1144  0.0460
   80CHL1  H21A 8379   2.942   6.622   7.882 -3.0214 -2.4252  0.4027
   80CHL1  H21B 8380   2.959   6.500   8.008  1.7953  0.1156  0.6864
   80CHL1  H21C 8381   2.994   6.460   7.841 -0.0418  1.3445 -1.1664
   80CHL1   C22 8382   3.175   6.665   8.070  0.1372  1.1925 -0.0148
   80CHL1  H22A 8383   3.133   6.623   8.163 -0.9087  0.5096 -0.7750
   80CHL1  H22B 8384   3.285   6.662   8.088  0.3816  0.5435 -1.4927
   80CHL1   C23 8385   3.126   6.808   8.056  0.5290 -0.2582 -0.5531
   80CHL1  H23A 8386   3.178   6.878   7.988 -0.6095  1.3897  0.2161
   80CHL1  H23B 8387   3.016   6.810   8.041  0.3133  2.1046  0.8562
   80CHL1   C24 8388   3.144   6.894   8.184  0.2328 -0.0637  0.2062
   80CHL1  H24A 8389   3.114   6.840   8.276  2.3531  2.1674  2.3629
   80CHL1  H24B 8390   3.251   6.912   8.207 -0.1763  2.6784  0.2899
   80CHL1   C25 8391   3.072   7.026   8.195  0.5900 -0.1634  0.0519
   80CHL1   H25 8392   2.962   7.012   8.196  0.1238  2.4587 -1.8712
   80CHL1   C26 8393   3.104   7.104   8.322 -0.2004 -0.4284  0.1135
   80CHL1  H26A 8394   3.215   7.109   8.328 -0.2780  0.2882  1.2854
   80CHL1  H26B 8395   3.065   7.208   8.318  0.5040 -0.1480  0.3645
   80CHL1  H26C 8396   3.052   7.051   8.405  1.4815 -1.2589  0.6921
   80CHL1   C27 8397   3.106   7.126   8.083  0.0667  0.1834  0.2454
   80CHL1  H27A 8398   3.076   7.230   8.109  0.8018  0.1124  1.4552
   80CHL1  H27B 8399   3.216   7.140   8.078 -0.0976  1.3798 -0.3455
   80CHL1  H27C 8400   3.073   7.081   7.987  1.8732  0.1594 -0.4075
   81CHL1    C3 8401   1.945   1.286   6.885 -0.5856  0.4862  0.5884
   81CHL1    H3 8402   1.923   1.392   6.912 -0.1068  0.4689  1.0721
   81CHL1    O3 8403   1.920   1.257   6.747  0.1095  0.5857  0.0348
   81CHL1   H3' 8404   1.990   1.298   6.695  2.2187 -1.5498  0.9812
   81CHL1    C4 8405   2.096   1.271   6.915  0.2264  0.1047  0.2094
   81CHL1   H4A 8406   2.115   1.164   6.890 -2.2046 -0.6952  1.3806
   81CHL1   H4B 8407   2.158   1.330   6.844 -1.9595 -0.2224 -2.1345
   81CHL1    C5 8408   2.130   1.312   7.050  0.4156 -1.0128 -0.2498
   81CHL1    C6 8409   2.225   1.407   7.069 -0.1314 -0.4694  0.1257
   81CHL1    H6 8410   2.274   1.455   6.983 -0.2983  1.2626  0.9565
   81CHL1    C7 8411   2.262   1.453   7.209  0.0339 -0.0714  0.8527
   81CHL1   H7A 8412   2.372   1.441   7.218  0.0449 -0.9407 -0.1638
   81CHL1   H7B 8413   2.249   1.562   7.224  1.2962  0.3408 -0.7424
   81CHL1    C8 8414   2.201   1.370   7.326 -0.0921 -0.1197 -0.4372
   81CHL1    H8 8415   2.250   1.271   7.337  2.4946  1.1460  0.1964
   81CHL1   C14 8416   2.216   1.443   7.463 -0.0714  0.4705  0.3355
   81CHL1   H14 8417   2.162   1.540   7.459 -2.3177 -0.7333 -3.6577
   81CHL1   C15 8418   2.362   1.495   7.503  0.3802  0.2114  0.4533
   81CHL1  H15A 8419   2.424   1.405   7.484  0.9852  0.5032  1.0201
   81CHL1  H15B 8420   2.400   1.579   7.441  0.7092  0.1094  0.5141
   81CHL1   C16 8421   2.347   1.519   7.647  0.2241  0.2850 -1.0267
   81CHL1  H16A 8422   2.431   1.467   7.698  0.4603  2.7130  1.2326
   81CHL1  H16B 8423   2.366   1.626   7.665 -0.7959  0.4074 -0.6178
   81CHL1   C17 8424   2.203   1.462   7.693 -0.1823 -0.3501 -0.1451
   81CHL1   H17 8425   2.138   1.551   7.683 -0.0033 -0.1091  0.7063
   81CHL1   C13 8426   2.158   1.372   7.581 -0.0779  0.5470  0.5929
   81CHL1   C18 8427   2.229   1.235   7.603  0.3729  0.0313 -0.4970
   81CHL1  H18A 8428   2.332   1.258   7.639  0.1066  0.4087  0.0277
   81CHL1  H18B 8429   2.176   1.185   7.687 -1.4129  2.8188  0.1564
   81CHL1  H18C 8430   2.235   1.161   7.520 -1.0291 -2.5143  1.5335
   81CHL1   C12 8431   2.004   1.345   7.555 -0.0060 -0.3424  0.3840
   81CHL1  H12A 8432   1.969   1.285   7.641  0.2567 -0.8928  0.1113
   81CHL1  H12B 8433   1.942   1.437   7.546  2.1711  1.1424 -0.3615
   81CHL1   C11 8434   1.988   1.269   7.426 -0.1215  0.0403 -0.6714
   81CHL1  H11A 8435   2.032   1.168   7.444 -0.3769  0.0767  0.2134
   81CHL1  H11B 8436   1.879   1.257   7.406 -0.0225 -0.8342 -0.7357
   81CHL1    C9 8437   2.054   1.334   7.307  0.1284  0.0619  0.1460
   81CHL1    H9 8438   2.001   1.429   7.284  1.5014  0.9507  0.5003
   81CHL1   C10 8439   2.035   1.265   7.168  0.4379 -0.5007 -1.2508
   81CHL1   C19 8440   2.091   1.117   7.179  0.1316  0.3880 -0.6501
   81CHL1  H19A 8441   2.092   1.061   7.082  0.3408 -1.6014  0.4453
   81CHL1  H19B 8442   2.197   1.113   7.214 -0.6539 -1.8482  1.7726
   81CHL1  H19C 8443   2.037   1.051   7.249  1.2038  0.6380  0.4564
   81CHL1    C1 8444   1.884   1.267   7.126  0.0065 -0.2830 -0.1011
   81CHL1   H1A 8445   1.832   1.202   7.199  0.0695 -2.4355 -1.8667
   81CHL1   H1B 8446   1.843   1.370   7.120  0.2547 -0.0744  1.4808
   81CHL1    C2 8447   1.862   1.202   6.986  0.2196 -0.1540  0.3084
   81CHL1   H2A 8448   1.758   1.220   6.952  0.2212  1.6239  1.1194
   81CHL1   H2B 8449   1.881   1.097   6.956 -1.3852  0.8126 -5.2495
   81CHL1   C20 8450   2.183   1.414   7.839  0.1143 -0.0755 -0.4913
   81CHL1   H20 8451   2.222   1.310   7.841 -1.7228 -0.8107 -1.2619
   81CHL1   C21 8452   2.034   1.423   7.884  0.5935 -0.9351  0.0884
   81CHL1  H21A 8453   1.979   1.343   7.832 -1.2815 -0.3233  1.0467
   81CHL1  H21B 8454   1.996   1.521   7.848  1.3195 -1.1983 -1.4646
   81CHL1  H21C 8455   2.005   1.431   7.991 -0.2101  0.9371 -0.2331
   81CHL1   C22 8456   2.269   1.488   7.954  1.0226  0.4294  0.0617
   81CHL1  H22A 8457   2.377   1.504   7.933  1.2277  0.8195  1.3669
   81CHL1  H22B 8458   2.223   1.588   7.973 -1.0299 -0.3973 -0.3033
   81CHL1   C23 8459   2.276   1.399   8.079 -0.0263  0.5402  0.7018
   81CHL1  H23A 8460   2.173   1.367   8.105  0.1861 -1.0225 -0.2351
   81CHL1  H23B 8461   2.322   1.306   8.038  0.8755  1.9948 -1.8159
   81CHL1   C24 8462   2.354   1.476   8.192  0.4370 -0.1066  1.1956
   81CHL1  H24A 8463   2.383   1.404   8.272  3.6594  0.1293  0.3797
   81CHL1  H24B 8464   2.440   1.533   8.151 -0.5386  1.1734  0.8554
   81CHL1   C25 8465   2.270   1.580   8.265  0.4185 -0.0593  0.3506
   81CHL1   H25 8466   2.221   1.642   8.187 -1.2349 -0.5683  0.9415
   81CHL1   C26 8467   2.153   1.518   8.349  0.3367 -1.0394 -0.2111
   81CHL1  H26A 8468   2.194   1.470   8.440 -0.6781 -0.1949  0.7138
   81CHL1  H26B 8469   2.090   1.601   8.389 -0.1270 -0.3993 -2.1303
   81CHL1  H26C 8470   2.091   1.440   8.301 -0.3660 -0.2260 -0.6588
   81CHL1   C27 8471   2.355   1.661   8.358  0.0340  0.0218  0.2323
   81CHL1  H27A 8472   2.433   1.615   8.422  0.2541  1.0245  0.7029
   81CHL1  H27B 8473   2.403   1.734   8.289  0.6755 -0.2252  0.4147
   81CHL1  H27C 8474   2.286   1.724   8.418 -0.8362 -0.5300 -0.1761
   82CHL1    C3 8475   2.307   5.885   6.964 -0.4945  0.6353  0.6517
   82CHL1    H3 8476   2.199   5.912   6.960  0.0419  2.9505 -0.0177
   82CHL1    O3 8477   2.367   5.844   6.843  0.3643 -0.1555  0.1018
   82CHL1   H3' 8478   2.453   5.814   6.872  0.8363  0.6941 -0.3762
   82CHL1    C4 8479   2.374   6.020   7.010 -0.1765 -0.6936 -0.9695
   82CHL1   H4A 8480   2.484   6.010   7.022  0.1241  2.0034 -1.0040
   82CHL1   H4B 8481   2.365   6.100   6.933 -1.9109  0.5701  0.4626
   82CHL1    C5 8482   2.326   6.057   7.153 -0.4840  0.4110 -0.5365
   82CHL1    C6 8483   2.270   6.180   7.181 -0.1293  0.0194  0.6057
   82CHL1    H6 8484   2.254   6.249   7.097 -0.5951  0.2551  0.8846
   82CHL1    C7 8485   2.214   6.223   7.314 -0.6454 -0.4895  0.1792
   82CHL1   H7A 8486   2.249   6.324   7.345 -0.2711 -0.3582 -0.6360
   82CHL1   H7B 8487   2.106   6.246   7.305 -0.0820  3.9604  1.9033
   82CHL1    C8 8488   2.266   6.134   7.430  0.3094  0.2150  0.4182
   82CHL1    H8 8489   2.368   6.169   7.456 -0.3905  1.8933  1.0250
   82CHL1   C14 8490   2.175   6.159   7.550  0.6060 -0.1089  0.1426
   82CHL1   H14 8491   2.077   6.120   7.517  0.1057 -0.0978  1.5560
   82CHL1   C15 8492   2.143   6.309   7.592 -0.5480  0.0700  0.2747
   82CHL1  H15A 8493   2.239   6.365   7.588  0.6946 -1.9230  0.8930
   82CHL1  H15B 8494   2.065   6.351   7.525  0.9816 -0.6947 -2.0833
   82CHL1   C16 8495   2.099   6.293   7.738  0.0477 -0.2945 -0.1098
   82CHL1  H16A 8496   2.166   6.357   7.800  0.4400 -0.4217 -0.3973
   82CHL1  H16B 8497   1.996   6.334   7.743 -0.1422 -0.7111 -0.4697
   82CHL1   C17 8498   2.105   6.135   7.777  0.0642 -1.0195  0.2219
   82CHL1   H17 8499   2.013   6.089   7.737 -0.1003 -1.6002  1.2462
   82CHL1   C13 8500   2.214   6.076   7.671  0.6124 -0.7798  0.1807
   82CHL1   C18 8501   2.354   6.121   7.724  0.3805 -0.0509  0.1336
   82CHL1  H18A 8502   2.435   6.080   7.660 -0.8125  0.0679 -1.5222
   82CHL1  H18B 8503   2.370   6.231   7.720  3.8720 -0.4814 -2.8514
   82CHL1  H18C 8504   2.371   6.095   7.831  2.0655  1.3151  0.2370
   82CHL1   C12 8505   2.196   5.920   7.635 -0.1422 -1.2844  0.4725
   82CHL1  H12A 8506   2.227   5.862   7.725  0.3697  0.2519  1.3315
   82CHL1  H12B 8507   2.088   5.904   7.614 -0.6242 -0.9231  2.5392
   82CHL1   C11 8508   2.290   5.887   7.514 -0.1042 -0.4365 -0.3096
   82CHL1  H11A 8509   2.395   5.891   7.552 -1.0715 -2.9927  3.0911
   82CHL1  H11B 8510   2.270   5.781   7.488 -2.4026  0.1232 -1.0772
   82CHL1    C9 8511   2.271   5.985   7.398  0.3153 -0.3139  0.5230
   82CHL1    H9 8512   2.166   5.966   7.368  0.8289 -0.1979 -1.5367
   82CHL1   C10 8513   2.351   5.948   7.265 -0.2920 -0.2371  0.4215
   82CHL1   C19 8514   2.500   5.947   7.308 -0.5048  0.1302  0.5501
   82CHL1  H19A 8515   2.572   5.945   7.224 -0.8634 -0.4918  0.2502
   82CHL1  H19B 8516   2.522   6.036   7.371 -1.3077  1.7484 -1.3628
   82CHL1  H19C 8517   2.533   5.854   7.360  2.7971 -0.8671 -2.8611
   82CHL1    C1 8518   2.296   5.814   7.205 -0.7321 -0.3751 -0.7715
   82CHL1   H1A 8519   2.324   5.731   7.273 -0.3459  0.1139 -0.3272
   82CHL1   H1B 8520   2.186   5.815   7.191 -0.4163 -0.9005 -4.4433
   82CHL1    C2 8521   2.343   5.769   7.063  0.4611 -0.4111  0.1578
   82CHL1   H2A 8522   2.300   5.671   7.031  0.4174  0.3012 -2.1012
   82CHL1   H2B 8523   2.453   5.753   7.071  0.6333  0.2035 -0.8557
   82CHL1   C20 8524   2.108   6.081   7.920  0.0525 -0.8466 -0.7445
   82CHL1   H20 8525   2.215   6.064   7.943  0.5015  2.9744  0.8418
   82CHL1   C21 8526   2.019   5.956   7.935  0.2166 -0.6443 -0.5055
   82CHL1  H21A 8527   2.011   5.915   8.038  0.4478 -2.2953 -1.1107
   82CHL1  H21B 8528   2.056   5.867   7.880 -1.8285 -1.6707 -0.3319
   82CHL1  H21C 8529   1.916   5.975   7.896  0.0399 -0.9090 -0.1757
   82CHL1   C22 8530   2.080   6.186   8.037 -0.4254 -0.1800 -0.0177
   82CHL1  H22A 8531   2.097   6.141   8.137  0.9810  0.3841  0.0164
   82CHL1  H22B 8532   2.156   6.267   8.027 -0.3443 -0.4441 -1.7347
   82CHL1   C23 8533   1.943   6.247   8.036 -0.3094  0.5489  0.4051
   82CHL1  H23A 8534   1.922   6.269   7.929 -0.3527 -0.1619  0.2598
   82CHL1  H23B 8535   1.869   6.170   8.067 -0.5286  0.4827 -0.2590
   82CHL1   C24 8536   1.930   6.366   8.134  0.2846 -0.4628  0.3234
   82CHL1  H24A 8537   1.997   6.451   8.106 -0.4172 -0.7671 -2.5366
   82CHL1  H24B 8538   1.829   6.412   8.132 -0.0918 -1.2705 -1.5733
   82CHL1   C25 8539   1.958   6.343   8.286  0.4328  0.1716 -0.4196
   82CHL1   H25 8540   2.054   6.287   8.286  0.7008  0.6043 -1.2823
   82CHL1   C26 8541   1.970   6.475   8.365 -0.4829  0.4401 -0.3355
   82CHL1  H26A 8542   1.876   6.533   8.371 -2.0434 -1.6551 -2.5609
   82CHL1  H26B 8543   1.997   6.447   8.469  1.6701  0.8661 -0.7327
   82CHL1  H26C 8544   2.049   6.543   8.326  0.8574 -1.7112 -1.5848
   82CHL1   C27 8545   1.855   6.254   8.354 -0.5394 -1.0990  0.2565
   82CHL1  H27A 8546   1.888   6.227   8.457 -0.6519 -2.5883 -0.0669
   82CHL1  H27B 8547   1.758   6.307   8.361  0.5427  1.0921 -0.3924
   82CHL1  H27C 8548   1.844   6.162   8.292  0.5035 -2.1586  1.5864
   83CHL1    C3 8549   5.640   2.922   6.973  0.9774 -0.6498  0.4131
   83CHL1    H3 8550   5.532   2.898   6.978  0.9410 -0.3139  1.4103
   83CHL1    O3 8551   5.668   2.963   6.840 -0.0504  0.0551  0.5112
   83CHL1   H3' 8552   5.763   2.980   6.841  0.5792 -2.8282 -0.9650
   83CHL1    C4 8553   5.674   3.053   7.044 -0.0046 -0.3807  0.1941
   83CHL1   H4A 8554   5.774   3.079   7.004  0.6298 -2.6249  0.1897
   83CHL1   H4B 8555   5.603   3.131   7.009 -0.2068 -0.1256  1.1294
   83CHL1    C5 8556   5.676   3.042   7.196 -0.0369 -0.5070  0.9437
   83CHL1    C6 8557   5.607   3.127   7.279  0.3188 -0.1673  0.5286
   83CHL1    H6 8558   5.542   3.207   7.240  0.5034  0.3744  1.3152
   83CHL1    C7 8559   5.627   3.118   7.424  0.1981 -1.0826  0.1017
   83CHL1   H7A 8560   5.637   3.221   7.465 -3.6031 -1.5477  2.7710
   83CHL1   H7B 8561   5.531   3.090   7.473  0.3635  1.3713  2.0411
   83CHL1    C8 8562   5.751   3.038   7.474  0.1729  0.1028 -0.3565
   83CHL1    H8 8563   5.843   3.101   7.467  0.2682  0.1957  1.2960
   83CHL1   C14 8564   5.738   2.999   7.618  0.1112 -0.6412 -0.5004
   83CHL1   H14 8565   5.652   2.931   7.631  0.8652 -1.3984  0.6816
   83CHL1   C15 8566   5.724   3.119   7.713 -0.1159  0.1954 -0.7447
   83CHL1  H15A 8567   5.795   3.204   7.714  2.1287 -1.5238  1.5739
   83CHL1  H15B 8568   5.618   3.152   7.724  0.5086  2.4061 -0.8450
   83CHL1   C16 8569   5.749   3.052   7.855 -0.1988  0.1687  0.1557
   83CHL1  H16A 8570   5.824   3.111   7.911 -0.3678  0.9306 -0.3991
   83CHL1  H16B 8571   5.661   3.038   7.922 -0.6028 -0.8898 -0.5719
   83CHL1   C17 8572   5.806   2.910   7.821 -0.3416 -0.2053  0.1338
   83CHL1   H17 8573   5.710   2.855   7.814 -0.7607  0.7003 -2.2369
   83CHL1   C13 8574   5.858   2.918   7.675 -0.4956 -0.8398 -0.1650
   83CHL1   C18 8575   5.991   3.006   7.676 -0.3632  0.1798 -0.8665
   83CHL1  H18A 8576   6.040   3.010   7.576 -0.5245 -2.0558 -1.0821
   83CHL1  H18B 8577   5.969   3.111   7.707 -1.3178  0.6313 -2.9134
   83CHL1  H18C 8578   6.061   2.957   7.747 -1.3042  0.1046  0.0299
   83CHL1   C12 8579   5.878   2.784   7.590  0.1300 -0.0148 -0.1363
   83CHL1  H12A 8580   5.978   2.739   7.610  1.9151  4.0063  1.1781
   83CHL1  H12B 8581   5.801   2.711   7.623  0.7830  0.3813  2.5052
   83CHL1   C11 8582   5.890   2.820   7.443  0.4117 -0.3626  0.2765
   83CHL1  H11A 8583   5.989   2.871   7.431  0.8842 -1.5412 -1.1548
   83CHL1  H11B 8584   5.901   2.732   7.377 -0.8147 -0.4524  0.1739
   83CHL1    C9 8585   5.772   2.907   7.388 -1.4545 -0.2763 -0.9745
   83CHL1    H9 8586   5.682   2.844   7.407 -0.9421 -0.3609  1.5918
   83CHL1   C10 8587   5.782   2.934   7.237 -0.0527  0.1893 -0.3661
   83CHL1   C19 8588   5.936   2.976   7.210  0.3083 -0.0169  0.2601
   83CHL1  H19A 8589   5.951   3.012   7.106 -0.1776 -0.7933 -0.0936
   83CHL1  H19B 8590   5.975   3.061   7.269  1.5696 -0.6628  0.3880
   83CHL1  H19C 8591   6.002   2.886   7.212 -0.4686 -0.6003  0.5640
   83CHL1    C1 8592   5.742   2.798   7.164  0.7311 -0.2190  0.2755
   83CHL1   H1A 8593   5.804   2.709   7.186 -1.6953 -2.1099 -0.0386
   83CHL1   H1B 8594   5.642   2.770   7.204  1.0650 -0.0203  1.2830
   83CHL1    C2 8595   5.730   2.809   7.010  0.5660  0.2681 -0.8946
   83CHL1   H2A 8596   5.696   2.712   6.970 -1.0923  0.0521  0.9334
   83CHL1   H2B 8597   5.830   2.827   6.964  1.8350  1.1151  1.9621
   83CHL1   C20 8598   5.896   2.843   7.929  0.1817  0.9171 -0.5604
   83CHL1   H20 8599   5.983   2.906   7.955  1.2313  0.0349 -1.8011
   83CHL1   C21 8600   5.946   2.704   7.884 -0.7688  0.1519 -0.3329
   83CHL1  H21A 8601   5.874   2.644   7.823 -1.0250 -1.0113  1.0740
   83CHL1  H21B 8602   5.976   2.645   7.973 -1.3839 -0.1409 -0.3129
   83CHL1  H21C 8603   6.037   2.714   7.821 -0.3311  0.2632  0.3096
   83CHL1   C22 8604   5.819   2.828   8.061  0.5295  0.6223 -1.5743
   83CHL1  H22A 8605   5.759   2.920   8.076 -0.5999 -0.3635  0.3216
   83CHL1  H22B 8606   5.755   2.737   8.056 -2.7917  2.7573 -1.0707
   83CHL1   C23 8607   5.907   2.821   8.180 -0.8556 -0.0367 -0.4101
   83CHL1  H23A 8608   5.983   2.743   8.160 -0.0586  0.8220 -0.8005
   83CHL1  H23B 8609   5.954   2.917   8.210 -0.7087 -0.5986  1.2508
   83CHL1   C24 8610   5.830   2.761   8.306 -0.1129 -0.3471 -0.4519
   83CHL1  H24A 8611   5.730   2.809   8.311  0.2555  0.3243  1.2378
   83CHL1  H24B 8612   5.812   2.652   8.295  0.5755 -0.2995 -2.5246
   83CHL1   C25 8613   5.912   2.792   8.430 -0.7578 -0.7217 -0.2469
   83CHL1   H25 8614   6.017   2.775   8.398 -0.6884 -1.7089  0.4700
   83CHL1   C26 8615   5.904   2.940   8.471  0.4770  0.3563 -0.2659
   83CHL1  H26A 8616   5.921   3.010   8.387  0.1192  2.5032  1.3613
   83CHL1  H26B 8617   5.811   2.964   8.526  1.3449 -0.2451  1.5343
   83CHL1  H26C 8618   5.985   2.954   8.546  0.4945 -1.7181  0.1675
   83CHL1   C27 8619   5.872   2.707   8.550 -0.1558 -0.1839 -0.3266
   83CHL1  H27A 8620   5.930   2.736   8.640 -1.2022  1.4056 -0.1366
   83CHL1  H27B 8621   5.764   2.715   8.575 -0.4275 -1.4194 -1.0158
   83CHL1  H27C 8622   5.876   2.599   8.523 -1.0917 -0.9407  2.2235
   84CHL1    C3 8623   6.677   4.425   6.982 -0.0701 -0.1960  0.0271
   84CHL1    H3 8624   6.736   4.518   7.001  2.1507 -0.9111 -2.8560
   84CHL1    O3 8625   6.642   4.407   6.842 -0.3218 -0.4005  0.5475
   84CHL1   H3' 8626   6.729   4.416   6.802 -0.3514  0.1864  0.6077
   84CHL1    C4 8627   6.742   4.296   7.052 -0.4108  0.4109 -0.4508
   84CHL1   H4A 8628   6.679   4.206   7.042  1.0431 -0.6772 -0.1327
   84CHL1   H4B 8629   6.834   4.270   6.996 -0.3618  1.3060 -0.8164
   84CHL1    C5 8630   6.771   4.325   7.202 -0.1317 -0.5782  0.3517
   84CHL1    C6 8631   6.893   4.317   7.254  0.3027  0.6418  0.4267
   84CHL1    H6 8632   6.974   4.278   7.191 -0.3997 -2.4203  1.2322
   84CHL1    C7 8633   6.926   4.325   7.400  0.2218  0.7735  0.0098
   84CHL1   H7A 8634   6.995   4.240   7.423  0.7458  0.8780 -1.0687
   84CHL1   H7B 8635   6.987   4.414   7.426  1.7059 -0.6487  1.6381
   84CHL1    C8 8636   6.801   4.324   7.493 -0.5404 -0.3467 -0.6066
   84CHL1    H8 8637   6.777   4.218   7.515 -0.8782 -0.1117  0.2023
   84CHL1   C14 8638   6.830   4.393   7.624  0.2665  0.7692  0.2895
   84CHL1   H14 8639   6.839   4.501   7.599 -1.7368  0.9085  0.0222
   84CHL1   C15 8640   6.945   4.338   7.713 -0.3414 -0.3407  0.1011
   84CHL1  H15A 8641   6.930   4.229   7.724 -1.1960 -0.5273 -2.2304
   84CHL1  H15B 8642   7.049   4.362   7.682 -0.5503  0.9066  0.3052
   84CHL1   C16 8643   6.918   4.400   7.853  0.1957  0.1170  0.7752
   84CHL1  H16A 8644   6.909   4.312   7.920 -1.5353  1.3206  2.2216
   84CHL1  H16B 8645   6.984   4.485   7.877 -0.8916  1.4078 -0.5841
   84CHL1   C17 8646   6.770   4.450   7.845 -0.6580 -0.2239  0.1416
   84CHL1   H17 8647   6.792   4.556   7.818 -0.8743 -0.3763 -0.6458
   84CHL1   C13 8648   6.709   4.394   7.716 -0.3761  0.0164  0.1636
   84CHL1   C18 8649   6.655   4.248   7.743  0.6290 -0.0446  0.7970
   84CHL1  H18A 8650   6.569   4.260   7.813 -1.8958 -1.5178 -1.8332
   84CHL1  H18B 8651   6.614   4.213   7.646  0.4826  4.1519 -0.8713
   84CHL1  H18C 8652   6.734   4.176   7.774  2.4497  2.5016  2.5217
   84CHL1   C12 8653   6.603   4.483   7.663  0.2274 -0.5168 -0.2909
   84CHL1  H12A 8654   6.515   4.461   7.728  1.7423 -0.0035  2.0576
   84CHL1  H12B 8655   6.633   4.590   7.657  0.9136 -0.5419  1.7066
   84CHL1   C11 8656   6.561   4.437   7.524 -0.3989 -0.1029  0.0792
   84CHL1  H11A 8657   6.496   4.348   7.532  4.2105 -3.7812  1.4376
   84CHL1  H11B 8658   6.491   4.510   7.477  1.7898  0.6920 -2.2281
   84CHL1    C9 8659   6.681   4.405   7.423 -0.4429 -0.6809 -0.7082
   84CHL1    H9 8660   6.728   4.504   7.404  1.8913 -2.1577 -3.3893
   84CHL1   C10 8661   6.640   4.352   7.280 -0.3490 -0.8158 -0.5608
   84CHL1   C19 8662   6.550   4.229   7.300 -0.0840 -0.3217 -0.4752
   84CHL1  H19A 8663   6.532   4.176   7.204  0.0203 -1.8494  0.3167
   84CHL1  H19B 8664   6.602   4.154   7.364 -0.4529  0.4533  0.7629
   84CHL1  H19C 8665   6.453   4.255   7.347  1.2440  1.1305  1.6677
   84CHL1    C1 8666   6.569   4.461   7.197 -0.2836 -0.1978 -0.1724
   84CHL1   H1A 8667   6.468   4.475   7.243  0.6450  0.1294  1.9041
   84CHL1   H1B 8668   6.629   4.554   7.210  0.6105 -0.3491 -2.6524
   84CHL1    C2 8669   6.539   4.440   7.056  0.7885  0.1702  0.3235
   84CHL1   H2A 8670   6.486   4.521   7.002 -0.3098 -1.5694 -1.3488
   84CHL1   H2B 8671   6.474   4.351   7.040 -0.6789  1.2319  0.2655
   84CHL1   C20 8672   6.699   4.465   7.982 -0.2010  0.8884  0.1757
   84CHL1   H20 8673   6.635   4.375   7.993  0.8192  0.2570  1.2244
   84CHL1   C21 8674   6.594   4.586   7.992 -0.3937 -0.5797  0.6532
   84CHL1  H21A 8675   6.524   4.592   7.905  2.2023  1.0554 -1.4586
   84CHL1  H21B 8676   6.640   4.685   8.007 -1.3147  0.3796 -2.1237
   84CHL1  H21C 8677   6.531   4.567   8.082 -1.3236 -0.6846 -0.0012
   84CHL1   C22 8678   6.806   4.478   8.094  0.5661 -0.5640 -0.3537
   84CHL1  H22A 8679   6.862   4.383   8.109  2.0694  0.5391  1.5680
   84CHL1  H22B 8680   6.872   4.564   8.068 -1.1356  0.4522 -1.6022
   84CHL1   C23 8681   6.737   4.493   8.235 -0.0920 -0.0191 -0.8294
   84CHL1  H23A 8682   6.692   4.595   8.243  1.6553  0.7299  0.1788
   84CHL1  H23B 8683   6.665   4.410   8.250  0.6792 -0.7842 -1.2686
   84CHL1   C24 8684   6.837   4.465   8.349 -0.1194 -0.5261 -1.1342
   84CHL1  H24A 8685   6.889   4.368   8.328  1.9856 -0.2108  1.9957
   84CHL1  H24B 8686   6.916   4.543   8.353  0.7762 -1.3351 -2.1165
   84CHL1   C25 8687   6.787   4.441   8.489 -0.0004  0.8862  0.2627
   84CHL1   H25 8688   6.696   4.378   8.477 -0.8869  2.1839 -0.0109
   84CHL1   C26 8689   6.884   4.361   8.582 -0.5183  0.1561 -0.2653
   84CHL1  H26A 8690   6.983   4.404   8.556 -2.1474  2.8246 -2.6614
   84CHL1  H26B 8691   6.867   4.365   8.692 -1.7448 -0.4558 -0.4120
   84CHL1  H26C 8692   6.877   4.256   8.547  1.1270  0.2061 -0.8476
   84CHL1   C27 8693   6.732   4.572   8.558 -0.5805  0.1070 -0.4604
   84CHL1  H27A 8694   6.819   4.622   8.606  1.5193 -1.8125 -2.0424
   84CHL1  H27B 8695   6.682   4.649   8.496  2.8252  0.7570 -2.6451
   84CHL1  H27C 8696   6.672   4.540   8.646 -1.1541 -1.3481 -1.3337
   85CHL1    C3 8697   1.345   2.436   6.803 -0.4910  0.1172 -0.3250
   85CHL1    H3 8698   1.415   2.355   6.832 -2.0538 -1.0787  0.2606
   85CHL1    O3 8699   1.304   2.420   6.668  0.4100 -0.7424 -0.0271
   85CHL1   H3' 8700   1.252   2.499   6.648  0.4869 -0.4516  0.8633
   85CHL1    C4 8701   1.225   2.430   6.891 -0.6232  0.1824  0.1481
   85CHL1   H4A 8702   1.147   2.498   6.851  0.0898  0.3216 -1.0453
   85CHL1   H4B 8703   1.176   2.330   6.882  2.2162 -1.3224  0.4068
   85CHL1    C5 8704   1.258   2.465   7.038 -0.4026  0.0523  0.4342
   85CHL1    C6 8705   1.219   2.379   7.130 -0.2950  0.1624  0.0348
   85CHL1    H6 8706   1.159   2.291   7.102  0.3741 -0.5218  0.6899
   85CHL1    C7 8707   1.250   2.398   7.279 -1.0156  0.3807  0.1302
   85CHL1   H7A 8708   1.160   2.368   7.335 -1.1038  0.0332 -0.1934
   85CHL1   H7B 8709   1.332   2.332   7.312 -2.8583 -1.4285  1.3079
   85CHL1    C8 8710   1.297   2.538   7.308 -0.2420  0.8750  0.4551
   85CHL1    H8 8711   1.212   2.607   7.294 -0.8223  0.1749  0.5073
   85CHL1   C14 8712   1.355   2.553   7.452 -0.2348  0.5144  0.7546
   85CHL1   H14 8713   1.438   2.480   7.458 -1.0164 -0.2937  2.6433
   85CHL1   C15 8714   1.265   2.513   7.563 -0.1305  0.1980 -0.0825
   85CHL1  H15A 8715   1.162   2.544   7.535  0.5679  1.9908 -0.7649
   85CHL1  H15B 8716   1.259   2.402   7.570 -1.0972  0.2455 -0.0134
   85CHL1   C16 8717   1.323   2.586   7.685 -0.9014  0.5431 -0.3965
   85CHL1  H16A 8718   1.242   2.632   7.746  0.3852  2.1791  0.1591
   85CHL1  H16B 8719   1.376   2.509   7.746 -0.0244 -0.9727 -2.9380
   85CHL1   C17 8720   1.436   2.687   7.635  0.1450  0.1958  0.7193
   85CHL1   H17 8721   1.534   2.634   7.638  0.6558  1.1265  0.9666
   85CHL1   C13 8722   1.415   2.694   7.482  0.3280  0.7286  0.5392
   85CHL1   C18 8723   1.306   2.798   7.455 -0.3682 -0.0306 -0.3524
   85CHL1  H18A 8724   1.279   2.813   7.348 -1.9739  1.3942  0.2028
   85CHL1  H18B 8725   1.215   2.791   7.519 -0.0452  2.2012  0.4481
   85CHL1  H18C 8726   1.345   2.900   7.477  0.3014 -0.6712  1.6641
   85CHL1   C12 8727   1.538   2.712   7.390 -0.5762 -0.2000 -0.0578
   85CHL1  H12A 8728   1.594   2.806   7.411  0.0814 -0.0045 -2.3744
   85CHL1  H12B 8729   1.604   2.624   7.406  1.9398  1.4631 -0.6846
   85CHL1   C11 8730   1.491   2.713   7.242  0.0812  0.2852 -0.6481
   85CHL1  H11A 8731   1.437   2.807   7.217 -0.7289 -0.7271 -3.1269
   85CHL1  H11B 8732   1.584   2.708   7.182  0.8099 -1.8783  0.5443
   85CHL1    C9 8733   1.404   2.589   7.206 -0.4664 -0.1964  1.1264
   85CHL1    H9 8734   1.477   2.505   7.215  0.6513  0.8675  2.1896
   85CHL1   C10 8735   1.352   2.590   7.061  0.0228  0.1414  0.0586
   85CHL1   C19 8736   1.249   2.708   7.035  0.6889  0.3877 -0.6390
   85CHL1  H19A 8737   1.200   2.713   6.936  0.8456 -1.6624 -0.8661
   85CHL1  H19B 8738   1.160   2.694   7.099 -0.2232 -0.0934 -1.9740
   85CHL1  H19C 8739   1.304   2.802   7.054  2.0616 -0.5480  0.2354
   85CHL1    C1 8740   1.468   2.599   6.960 -0.0253  0.3694 -0.0867
   85CHL1   H1A 8741   1.499   2.705   6.958 -0.7563  0.5932  0.1153
   85CHL1   H1B 8742   1.562   2.544   6.982  0.9164  1.0641 -2.0819
   85CHL1    C2 8743   1.420   2.566   6.815  0.1379  0.3549  0.2706
   85CHL1   H2A 8744   1.503   2.560   6.742 -0.4833  0.8312 -0.4886
   85CHL1   H2B 8745   1.356   2.651   6.784 -0.5394  0.4013  1.6890
   85CHL1   C20 8746   1.449   2.808   7.716 -0.0620  0.4590 -0.1887
   85CHL1   H20 8747   1.352   2.859   7.732 -1.7455 -2.2110 -1.2659
   85CHL1   C21 8748   1.540   2.917   7.660 -0.6050  0.6271  0.6646
   85CHL1  H21A 8749   1.645   2.881   7.663 -0.1054  1.5512 -2.2797
   85CHL1  H21B 8750   1.540   3.001   7.733  0.0245  1.8984 -0.7436
   85CHL1  H21C 8751   1.514   2.956   7.560 -2.5862  1.0789  1.3054
   85CHL1   C22 8752   1.498   2.780   7.856  0.2441  0.5316  0.0092
   85CHL1  H22A 8753   1.441   2.693   7.894  1.3908 -1.2049 -2.0559
   85CHL1  H22B 8754   1.603   2.745   7.857  0.0772  0.0290  1.2008
   85CHL1   C23 8755   1.464   2.897   7.956  0.0169 -0.1753 -0.3177
   85CHL1  H23A 8756   1.539   2.978   7.961 -1.3694  1.2332 -1.1698
   85CHL1  H23B 8757   1.361   2.935   7.938  0.0384  0.9531  1.6897
   85CHL1   C24 8758   1.458   2.842   8.101 -0.6356  0.1665 -0.2356
   85CHL1  H24A 8759   1.404   2.745   8.104  0.5991 -0.5244  2.3409
   85CHL1  H24B 8760   1.563   2.815   8.124 -0.5519  0.2123 -0.5601
   85CHL1   C25 8761   1.418   2.938   8.202  0.2012  0.1709  0.8092
   85CHL1   H25 8762   1.322   2.977   8.159 -0.1191 -0.9260  0.5089
   85CHL1   C26 8763   1.372   2.888   8.333  0.4272  0.5168  0.6681
   85CHL1  H26A 8764   1.350   2.980   8.391 -2.6220  1.5245 -1.8383
   85CHL1  H26B 8765   1.284   2.821   8.329  1.0244 -0.2025 -1.3362
   85CHL1  H26C 8766   1.444   2.824   8.389 -3.3743 -2.6196  2.4617
   85CHL1   C27 8767   1.517   3.049   8.218  0.2254  0.0955 -1.0314
   85CHL1  H27A 8768   1.474   3.139   8.267 -3.6651 -0.3127 -3.2432
   85CHL1  H27B 8769   1.604   3.028   8.283 -0.7022  1.2406  0.6401
   85CHL1  H27C 8770   1.539   3.096   8.120 -2.1263 -0.2529 -1.8071
   86CHL1    C3 8771   3.637   6.335   6.914 -0.4083 -0.1782  0.1507
   86CHL1    H3 8772   3.623   6.225   6.926 -1.2636 -0.0839  0.1127
   86CHL1    O3 8773   3.628   6.370   6.777 -0.1212  0.0642  0.3002
   86CHL1   H3' 8774   3.642   6.463   6.761 -0.0117 -0.1577 -1.0498
   86CHL1    C4 8775   3.529   6.394   7.012 -0.2699 -0.9575  0.3742
   86CHL1   H4A 8776   3.536   6.504   7.000  0.0591 -1.0473 -0.3081
   86CHL1   H4B 8777   3.431   6.370   6.966  0.3268 -1.2980 -0.7619
   86CHL1    C5 8778   3.542   6.329   7.148 -1.3185 -0.1910  0.5091
   86CHL1    C6 8779   3.442   6.260   7.203 -0.2243  0.5053 -0.2030
   86CHL1    H6 8780   3.345   6.255   7.152  0.0270 -0.0058 -0.6381
   86CHL1    C7 8781   3.448   6.198   7.341  0.0786  0.6530  0.2423
   86CHL1   H7A 8782   3.355   6.213   7.399 -0.1633 -0.0140  0.0289
   86CHL1   H7B 8783   3.472   6.092   7.321  0.1530  1.0928 -2.3395
   86CHL1    C8 8784   3.568   6.250   7.423 -0.6302 -0.3575  0.3519
   86CHL1    H8 8785   3.535   6.347   7.466 -1.4776 -1.5228  2.4662
   86CHL1   C14 8786   3.595   6.161   7.533 -0.5303 -0.0025 -0.6258
   86CHL1   H14 8787   3.645   6.075   7.483 -0.4945  0.4117 -1.3166
   86CHL1   C15 8788   3.490   6.101   7.621  0.0971  0.2492  0.2914
   86CHL1  H15A 8789   3.417   6.178   7.656 -1.1008 -0.5076 -0.4657
   86CHL1  H15B 8790   3.428   6.033   7.558  0.0150 -0.3885  1.0337
   86CHL1   C16 8791   3.556   6.035   7.745  0.1832  0.4055  0.2316
   86CHL1  H16A 8792   3.499   6.066   7.835 -0.1767  2.8101 -0.7516
   86CHL1  H16B 8793   3.550   5.926   7.726 -0.4338  0.5937 -0.7098
   86CHL1   C17 8794   3.706   6.088   7.741  0.2466  0.6508 -0.9178
   86CHL1   H17 8795   3.770   6.009   7.697  0.5917  1.0575 -1.1578
   86CHL1   C13 8796   3.706   6.200   7.635  0.9111  0.3688 -0.3746
   86CHL1   C18 8797   3.656   6.331   7.710 -0.2260  0.2877 -0.2755
   86CHL1  H18A 8798   3.658   6.422   7.645  2.0326  0.0910 -0.5660
   86CHL1  H18B 8799   3.560   6.316   7.763  0.8358 -1.7156  1.2013
   86CHL1  H18C 8800   3.732   6.338   7.791  0.8676  2.1868 -1.3836
   86CHL1   C12 8801   3.834   6.229   7.558  0.2814 -0.1526 -0.2569
   86CHL1  H12A 8802   3.898   6.286   7.629  0.1613  2.4927 -2.1145
   86CHL1  H12B 8803   3.889   6.135   7.534 -0.0805 -0.1561 -1.1104
   86CHL1   C11 8804   3.812   6.322   7.436  0.1310  0.4860 -0.1167
   86CHL1  H11A 8805   3.798   6.426   7.473 -2.5627 -0.4457  1.7964
   86CHL1  H11B 8806   3.902   6.325   7.372  2.2225 -0.7012  2.5826
   86CHL1    C9 8807   3.698   6.270   7.350 -1.2856  0.6556  1.1625
   86CHL1    H9 8808   3.731   6.168   7.322 -0.2966  0.8809  1.4933
   86CHL1   C10 8809   3.683   6.352   7.219 -0.0855 -0.1650 -0.2898
   86CHL1   C19 8810   3.685   6.504   7.262 -0.1682 -0.5595 -0.3501
   86CHL1  H19A 8811   3.616   6.525   7.346  2.3187  0.6921  1.5357
   86CHL1  H19B 8812   3.789   6.540   7.283 -0.3666 -0.5945  0.7684
   86CHL1  H19C 8813   3.650   6.573   7.182  2.0269 -1.8378 -2.5436
   86CHL1    C1 8814   3.795   6.327   7.114 -0.9464 -0.8778  0.6058
   86CHL1   H1A 8815   3.894   6.362   7.152 -0.2400 -3.1395  0.9910
   86CHL1   H1B 8816   3.817   6.219   7.101 -1.5392 -0.9878  0.5273
   86CHL1    C2 8817   3.773   6.376   6.971  0.0900 -0.3307 -0.2246
   86CHL1   H2A 8818   3.855   6.338   6.905 -0.8792  0.6188 -2.0769
   86CHL1   H2B 8819   3.777   6.487   6.965  0.0086 -0.2557  0.9353
   86CHL1   C20 8820   3.771   6.098   7.883 -0.0723 -0.1061  0.7443
   86CHL1   H20 8821   3.714   6.185   7.924 -0.7445 -0.4611  0.5802
   86CHL1   C21 8822   3.922   6.125   7.866  0.4136  0.6275 -0.3916
   86CHL1  H21A 8823   3.933   6.226   7.820  5.0583  0.2587 -0.5725
   86CHL1  H21B 8824   3.956   6.044   7.798 -1.7581 -1.3632  0.7221
   86CHL1  H21C 8825   3.980   6.132   7.961  1.2533  0.3599 -0.8752
   86CHL1   C22 8826   3.741   5.970   7.977 -0.5268 -1.1358  0.0651
   86CHL1  H22A 8827   3.630   5.969   7.985 -0.7335  0.7072 -1.8229
   86CHL1  H22B 8828   3.777   5.880   7.922  1.4587 -0.3807  0.0347
   86CHL1   C23 8829   3.795   5.985   8.120 -0.3637 -0.0624  0.5281
   86CHL1  H23A 8830   3.906   5.979   8.117 -0.3784 -0.6593  1.0133
   86CHL1  H23B 8831   3.747   6.075   8.164  1.4776  1.2448 -0.0479
   86CHL1   C24 8832   3.741   5.886   8.218 -0.1273 -0.1304  0.2327
   86CHL1  H24A 8833   3.630   5.890   8.213 -0.1572 -1.6008 -0.6793
   86CHL1  H24B 8834   3.766   5.782   8.191 -2.9265 -1.3751  1.9839
   86CHL1   C25 8835   3.777   5.913   8.361 -0.5579  0.0302  0.1525
   86CHL1   H25 8836   3.750   6.019   8.383 -1.4702 -0.7165  3.0389
   86CHL1   C26 8837   3.681   5.827   8.454 -1.2955 -0.2879  0.9267
   86CHL1  H26A 8838   3.682   5.868   8.557  0.8042 -1.3765  1.3800
   86CHL1  H26B 8839   3.576   5.837   8.418 -1.1295 -1.4255  0.0689
   86CHL1  H26C 8840   3.712   5.721   8.464 -1.4510 -0.5631 -1.0813
   86CHL1   C27 8841   3.925   5.885   8.388 -0.4443  0.3933  0.4434
   86CHL1  H27A 8842   3.989   5.959   8.336 -0.3313  0.7012  1.0132
   86CHL1  H27B 8843   3.947   5.882   8.497  2.1576 -2.6078  0.0036
   86CHL1  H27C 8844   3.941   5.781   8.352 -1.7151  0.0544  0.7968
   87CHL1    C3 8845   1.692   4.810   6.867  0.2201  0.0177  0.1851
   87CHL1    H3 8846   1.591   4.855   6.859  0.2040 -0.0155  0.1983
   87CHL1    O3 8847   1.732   4.767   6.735 -0.2703  0.4804 -0.0281
   87CHL1   H3' 8848   1.813   4.719   6.752 -1.1081 -1.0376 -0.1593
   87CHL1    C4 8849   1.790   4.906   6.919  0.1291 -0.5013 -0.5877
   87CHL1   H4A 8850   1.891   4.859   6.918  1.3478  1.9216 -0.1465
   87CHL1   H4B 8851   1.790   4.986   6.842 -0.7494 -0.4649 -0.5512
   87CHL1    C5 8852   1.755   4.957   7.059 -0.6704  0.3396  0.7038
   87CHL1    C6 8853   1.733   5.085   7.082  0.6003  0.2091  0.7117
   87CHL1    H6 8854   1.744   5.166   7.009  2.2197  1.0129  1.7822
   87CHL1    C7 8855   1.695   5.147   7.211 -0.1667  0.1579 -1.0290
   87CHL1   H7A 8856   1.749   5.241   7.234  0.0970 -0.4908  1.2146
   87CHL1   H7B 8857   1.587   5.174   7.213 -0.0685  0.5025  0.4385
   87CHL1    C8 8858   1.714   5.039   7.325  0.0177 -0.3142  0.8604
   87CHL1    H8 8859   1.823   5.048   7.345  0.2063  3.3026 -0.9650
   87CHL1   C14 8860   1.630   5.081   7.440  0.2196  0.4471  0.0696
   87CHL1   H14 8861   1.524   5.067   7.409  0.5237 -2.0382 -0.1043
   87CHL1   C15 8862   1.641   5.226   7.490  0.7321  0.3579  0.2856
   87CHL1  H15A 8863   1.747   5.258   7.478  0.2615  2.3654  1.0004
   87CHL1  H15B 8864   1.586   5.308   7.438  0.8934 -0.6484 -1.5553
   87CHL1   C16 8865   1.591   5.220   7.637 -0.0377 -0.6201 -0.3080
   87CHL1  H16A 8866   1.671   5.250   7.708  0.8680 -0.5408 -1.3557
   87CHL1  H16B 8867   1.499   5.282   7.644  1.8781  2.3428  0.8590
   87CHL1   C17 8868   1.567   5.068   7.672  0.0104  0.2513 -0.0959
   87CHL1   H17 8869   1.463   5.036   7.649  0.5827 -1.7226 -0.0578
   87CHL1   C13 8870   1.644   4.992   7.562 -0.4627 -0.0211 -0.2055
   87CHL1   C18 8871   1.799   4.984   7.605  0.6650  0.0877 -0.4444
   87CHL1  H18A 8872   1.865   4.944   7.526 -0.9124 -2.2300 -0.6867
   87CHL1  H18B 8873   1.832   5.077   7.656 -1.2808 -0.0770  1.3086
   87CHL1  H18C 8874   1.796   4.909   7.688  0.3280 -0.0149 -0.5455
   87CHL1   C12 8875   1.594   4.857   7.529  0.3334 -0.0616  0.5995
   87CHL1  H12A 8876   1.615   4.791   7.616 -0.5017 -0.1100  0.7793
   87CHL1  H12B 8877   1.484   4.856   7.511  0.5413  1.5229 -0.9814
   87CHL1   C11 8878   1.663   4.800   7.406  0.2492 -0.1105 -0.0321
   87CHL1  H11A 8879   1.765   4.771   7.441  1.5011  3.0973 -0.6698
   87CHL1  H11B 8880   1.609   4.708   7.376  0.4633  0.6673 -3.1708
   87CHL1    C9 8881   1.667   4.896   7.285 -0.4246 -0.1800 -0.9629
   87CHL1    H9 8882   1.560   4.909   7.258 -0.6324 -2.6771 -1.5851
   87CHL1   C10 8883   1.735   4.844   7.157 -0.2032  0.0316 -0.4377
   87CHL1   C19 8884   1.867   4.772   7.196  0.4379 -0.2803  0.6365
   87CHL1  H19A 8885   1.851   4.688   7.268  0.7409 -2.0403 -1.2415
   87CHL1  H19B 8886   1.917   4.716   7.114 -0.5971  0.5807 -0.6347
   87CHL1  H19C 8887   1.939   4.842   7.242  0.1580  0.7552 -0.4676
   87CHL1    C1 8888   1.644   4.735   7.094 -0.4944  0.5727  0.6257
   87CHL1   H1A 8889   1.621   4.651   7.162 -2.1360 -1.0060 -1.7236
   87CHL1   H1B 8890   1.548   4.786   7.073  0.4474  0.9077 -3.8999
   87CHL1    C2 8891   1.688   4.683   6.956 -0.0040 -0.1947  0.0550
   87CHL1   H2A 8892   1.614   4.611   6.914 -2.2543  0.1593  3.0364
   87CHL1   H2B 8893   1.792   4.646   6.949  0.0047  0.0231 -1.2615
   87CHL1   C20 8894   1.586   5.053   7.822  0.0064  0.1987  0.3216
   87CHL1   H20 8895   1.688   5.087   7.853  0.0374  0.7475 -0.3420
   87CHL1   C21 8896   1.586   4.899   7.853  0.5584  0.2861 -0.4452
   87CHL1  H21A 8897   1.504   4.855   7.792 -1.3611  2.4354  0.4515
   87CHL1  H21B 8898   1.560   4.866   7.956 -0.4949  1.0741 -0.4477
   87CHL1  H21C 8899   1.691   4.868   7.829  0.4032 -0.5462 -0.0925
   87CHL1   C22 8900   1.481   5.125   7.907 -0.9059 -0.1759 -0.0568
   87CHL1  H22A 8901   1.470   5.228   7.865 -2.3569  1.1095  3.1473
   87CHL1  H22B 8902   1.387   5.068   7.889 -1.7036  0.1143  2.6278
   87CHL1   C23 8903   1.525   5.140   8.053 -0.3732  0.9470 -0.2702
   87CHL1  H23A 8904   1.543   5.037   8.092 -0.1472  1.1512  0.1769
   87CHL1  H23B 8905   1.623   5.192   8.067  1.4292 -2.2165 -0.0448
   87CHL1   C24 8906   1.431   5.228   8.135 -0.1906 -0.6592 -0.4624
   87CHL1  H24A 8907   1.469   5.331   8.117  0.0321 -0.2509  1.9094
   87CHL1  H24B 8908   1.324   5.221   8.105 -0.8680 -1.8657  2.0039
   87CHL1   C25 8909   1.434   5.221   8.288 -0.1753 -0.7531 -0.1279
   87CHL1   H25 8910   1.404   5.115   8.307  1.2444 -1.5200 -1.8085
   87CHL1   C26 8911   1.571   5.259   8.348 -0.2249  0.0727 -1.0875
   87CHL1  H26A 8912   1.659   5.201   8.313  0.5256 -0.6821  1.7725
   87CHL1  H26B 8913   1.575   5.368   8.327 -1.4837  0.2418 -0.5367
   87CHL1  H26C 8914   1.564   5.246   8.458 -3.3134 -4.5228 -1.5747
   87CHL1   C27 8915   1.331   5.319   8.341 -0.2306  0.1232 -0.1840
   87CHL1  H27A 8916   1.350   5.422   8.305 -0.3324  0.2562  0.1348
   87CHL1  H27B 8917   1.226   5.288   8.320  0.1192 -0.9144 -0.4383
   87CHL1  H27C 8918   1.333   5.330   8.452 -1.6136  1.0801 -0.2242
   88CHL1    C3 8919   0.424   4.123   6.910 -0.1434 -0.1944 -0.9516
   88CHL1    H3 8920   0.323   4.152   6.945  0.0597 -1.0713  0.4128
   88CHL1    O3 8921   0.441   4.148   6.771 -0.0952  0.0554  0.2413
   88CHL1   H3' 8922   0.534   4.122   6.765 -0.0128  0.1767  0.9222
   88CHL1    C4 8923   0.523   4.217   6.984 -0.1712  0.3548  0.5758
   88CHL1   H4A 8924   0.622   4.201   6.935 -0.4896 -0.6142  0.2429
   88CHL1   H4B 8925   0.501   4.322   6.955 -3.0425  0.1298  1.6357
   88CHL1    C5 8926   0.514   4.197   7.132  0.2636 -0.0612  0.0616
   88CHL1    C6 8927   0.497   4.301   7.209  0.3286  0.1269 -0.2612
   88CHL1    H6 8928   0.506   4.406   7.177 -0.6432  0.0454 -0.8283
   88CHL1    C7 8929   0.496   4.293   7.359  0.3971  0.8703 -0.1625
   88CHL1   H7A 8930   0.550   4.375   7.411  1.3993 -0.6338  1.2687
   88CHL1   H7B 8931   0.391   4.308   7.393  0.4418 -1.2577  1.0260
   88CHL1    C8 8932   0.534   4.152   7.416 -0.2502  0.0289 -0.0522
   88CHL1    H8 8933   0.644   4.169   7.414 -0.3034  0.3215 -0.4681
   88CHL1   C14 8934   0.472   4.137   7.560 -0.3035 -0.8936  0.4759
   88CHL1   H14 8935   0.362   4.131   7.544  0.0900 -2.1013 -2.4401
   88CHL1   C15 8936   0.494   4.243   7.667  0.6536  0.9209  0.4378
   88CHL1  H15A 8937   0.598   4.282   7.674  0.9652  0.3306 -0.6522
   88CHL1  H15B 8938   0.437   4.338   7.659 -0.3979  0.3554  1.0670
   88CHL1   C16 8939   0.463   4.177   7.807 -0.2639  0.1945 -0.0361
   88CHL1  H16A 8940   0.550   4.203   7.872 -1.2345 -1.1132  1.8746
   88CHL1  H16B 8941   0.367   4.218   7.845  0.3617  0.5790  1.1857
   88CHL1   C17 8942   0.448   4.026   7.768  0.5991  0.8658 -1.3262
   88CHL1   H17 8943   0.340   4.012   7.750  0.4861 -0.4817  0.1692
   88CHL1   C13 8944   0.511   4.004   7.627  0.2609 -0.3068 -0.2000
   88CHL1   C18 8945   0.665   4.001   7.643  0.0851  0.2424 -0.3895
   88CHL1  H18A 8946   0.695   4.065   7.728 -1.1791 -3.9329  3.6329
   88CHL1  H18B 8947   0.695   3.901   7.682  1.4978  0.9043  0.2867
   88CHL1  H18C 8948   0.724   4.029   7.553 -0.3012  2.5120  0.0225
   88CHL1   C12 8949   0.462   3.888   7.538  1.0579 -0.0670  0.5347
   88CHL1  H12A 8950   0.507   3.794   7.577  3.3392  0.6367 -0.2587
   88CHL1  H12B 8951   0.352   3.877   7.525  0.9385  1.0145  0.5826
   88CHL1   C11 8952   0.514   3.900   7.402 -0.1553 -0.1481  0.1919
   88CHL1  H11A 8953   0.623   3.883   7.411 -0.4724 -1.8031  1.2412
   88CHL1  H11B 8954   0.480   3.816   7.338  1.8753 -1.1114  0.3167
   88CHL1    C9 8955   0.482   4.033   7.335 -0.0322  0.1237 -0.0127
   88CHL1    H9 8956   0.371   4.046   7.333  0.0712  1.0332 -1.2175
   88CHL1   C10 8957   0.518   4.048   7.186  0.3804  0.4460 -0.2769
   88CHL1   C19 8958   0.662   3.985   7.164 -0.7672  0.4737 -0.1718
   88CHL1  H19A 8959   0.709   4.022   7.071  1.1899 -0.6977  0.2990
   88CHL1  H19B 8960   0.728   4.011   7.250 -0.8749  0.4406 -0.0781
   88CHL1  H19C 8961   0.645   3.876   7.160 -1.7442  0.6238 -0.4682
   88CHL1    C1 8962   0.416   3.962   7.099  0.5206 -0.0583 -0.7773
   88CHL1   H1A 8963   0.405   3.858   7.138 -3.7390  0.9746  1.3169
   88CHL1   H1B 8964   0.312   3.994   7.115 -0.0082 -1.2916 -1.5459
   88CHL1    C2 8965   0.446   3.974   6.951  0.5569  1.2299 -0.2706
   88CHL1   H2A 8966   0.379   3.908   6.892 -0.2893  0.6962  1.2156
   88CHL1   H2B 8967   0.546   3.952   6.907  0.5010 -1.7752  0.8434
   88CHL1   C20 8968   0.478   3.925   7.878 -0.8496  0.3562  0.1343
   88CHL1   H20 8969   0.567   3.866   7.848 -0.5047  1.8349 -2.0258
   88CHL1   C21 8970   0.368   3.826   7.879  0.2315  0.2094 -0.8415
   88CHL1  H21A 8971   0.272   3.877   7.899  0.4611  0.6926 -0.9630
   88CHL1  H21B 8972   0.380   3.755   7.963 -1.8645 -0.2247 -0.8590
   88CHL1  H21C 8973   0.351   3.774   7.782 -2.2309  1.1246 -0.9592
   88CHL1   C22 8974   0.497   3.987   8.017  0.2222 -0.0889  0.0925
   88CHL1  H22A 8975   0.578   4.063   8.017  0.0421  0.1054  0.1408
   88CHL1  H22B 8976   0.406   4.040   8.052  1.3555  1.2371  1.1960
   88CHL1   C23 8977   0.549   3.891   8.121  0.0580  0.1300 -0.4864
   88CHL1  H23A 8978   0.484   3.803   8.139  2.0313 -1.5231 -1.1155
   88CHL1  H23B 8979   0.646   3.856   8.080  1.5836  2.2329  1.0974
   88CHL1   C24 8980   0.576   3.957   8.262 -0.5515  0.1294 -0.5358
   88CHL1  H24A 8981   0.615   3.876   8.328 -1.5485  0.2040  0.1844
   88CHL1  H24B 8982   0.659   4.029   8.245  0.4834 -1.2236 -1.4309
   88CHL1   C25 8983   0.449   4.025   8.322 -0.2580 -0.4192  0.2382
   88CHL1   H25 8984   0.412   4.093   8.242  0.8779 -0.5053 -0.3771
   88CHL1   C26 8985   0.339   3.920   8.343  0.4022  0.0907  0.4015
   88CHL1  H26A 8986   0.249   3.956   8.396 -0.8724 -1.8532 -0.3251
   88CHL1  H26B 8987   0.300   3.882   8.246 -0.0061 -1.0763  0.9961
   88CHL1  H26C 8988   0.378   3.830   8.395  1.3295  0.5933  0.6003
   88CHL1   C27 8989   0.478   4.108   8.444 -0.0236  0.0164 -0.2492
   88CHL1  H27A 8990   0.382   4.155   8.475 -1.1523 -1.5717 -1.2210
   88CHL1  H27B 8991   0.527   4.043   8.519 -0.6902  0.6322  0.7413
   88CHL1  H27C 8992   0.553   4.186   8.415  0.1876 -0.2642 -0.4646
   89CHL1    C3 8993   3.754   5.802   6.973 -0.2406 -0.1920  1.0094
   89CHL1    H3 8994   3.861   5.777   6.952  0.2445  1.1642  1.7552
   89CHL1    O3 8995   3.684   5.847   6.861 -0.0616 -0.6278 -0.3516
   89CHL1   H3' 8996   3.620   5.780   6.838 -0.9208  0.8687 -2.7297
   89CHL1    C4 8997   3.693   5.669   7.023  0.4402  1.2392  0.5997
   89CHL1   H4A 8998   3.583   5.670   7.032  0.3082  0.4122 -0.6778
   89CHL1   H4B 8999   3.717   5.596   6.942 -0.3181 -0.1087  1.5368
   89CHL1    C5 9000   3.757   5.618   7.153  0.6305 -0.2722 -0.1497
   89CHL1    C6 9001   3.809   5.495   7.173  0.0326 -0.0198 -0.3785
   89CHL1    H6 9002   3.795   5.432   7.084 -1.3771  2.0366 -1.7232
   89CHL1    C7 9003   3.867   5.453   7.307  0.2617 -0.1821  0.5512
   89CHL1   H7A 9004   3.821   5.354   7.328  0.2790 -0.3706 -0.2732
   89CHL1   H7B 9005   3.974   5.427   7.301 -0.2144 -2.0958 -0.8107
   89CHL1    C8 9006   3.838   5.545   7.431  0.4389  0.2282 -0.4043
   89CHL1    H8 9007   3.733   5.518   7.458 -0.5448  3.0313 -1.0321
   89CHL1   C14 9008   3.937   5.516   7.542  0.7182  0.0687 -0.6043
   89CHL1   H14 9009   4.038   5.550   7.512  1.2628 -1.6963 -0.8757
   89CHL1   C15 9010   3.951   5.366   7.573 -0.4358  0.3699 -0.0073
   89CHL1  H15A 9011   3.858   5.306   7.565  0.6161 -1.4050  0.3555
   89CHL1  H15B 9012   4.018   5.320   7.496  1.6527 -1.3745  2.6755
   89CHL1   C16 9013   4.002   5.365   7.720 -0.7083  0.9144 -0.2647
   89CHL1  H16A 9014   3.926   5.312   7.782  0.3723  0.3236  0.5881
   89CHL1  H16B 9015   4.105   5.323   7.725 -0.6957  1.0528  1.4472
   89CHL1   C17 9016   4.000   5.518   7.762  0.7993  0.3935  0.3486
   89CHL1   H17 9017   4.102   5.557   7.741  0.2030  1.3219 -0.9479
   89CHL1   C13 9018   3.906   5.593   7.667 -0.3531 -0.8578 -0.5958
   89CHL1   C18 9019   3.759   5.568   7.705  0.5859  0.5282  0.2023
   89CHL1  H18A 9020   3.733   5.610   7.805 -1.7333  2.3083 -1.0471
   89CHL1  H18B 9021   3.690   5.610   7.628 -0.7092 -3.3379 -0.9400
   89CHL1  H18C 9022   3.745   5.459   7.715  1.5808  0.4491  0.8078
   89CHL1   C12 9023   3.940   5.740   7.635  0.2673  0.3764  0.3617
   89CHL1  H12A 9024   3.921   5.816   7.714  0.7753  0.6835  0.1988
   89CHL1  H12B 9025   4.051   5.739   7.626  0.2765 -3.2634 -0.5039
   89CHL1   C11 9026   3.857   5.791   7.508  0.3201  0.1138  0.4725
   89CHL1  H11A 9027   3.756   5.823   7.541  0.5996  0.6520  0.8210
   89CHL1  H11B 9028   3.903   5.890   7.487 -0.1768  0.7461  2.1934
   89CHL1    C9 9029   3.855   5.690   7.394 -0.2521 -0.3625 -0.3365
   89CHL1    H9 9030   3.959   5.681   7.356 -1.0329 -0.0605 -2.6930
   89CHL1   C10 9031   3.771   5.728   7.271 -0.2832  0.4490  0.0988
   89CHL1   C19 9032   3.620   5.746   7.308 -0.3572 -0.6710 -0.2853
   89CHL1  H19A 9033   3.608   5.835   7.374  1.3161  0.7503 -1.7809
   89CHL1  H19B 9034   3.545   5.766   7.228 -1.7492  0.0711  1.1493
   89CHL1  H19C 9035   3.578   5.663   7.369 -0.1222  0.0311  0.8768
   89CHL1    C1 9036   3.818   5.862   7.210 -0.4358  0.6362 -0.3752
   89CHL1   H1A 9037   3.804   5.944   7.284 -0.4792  0.6909 -0.4432
   89CHL1   H1B 9038   3.928   5.853   7.197 -0.4612 -0.5584  0.1146
   89CHL1    C2 9039   3.742   5.909   7.084  0.0271 -0.3306  0.0051
   89CHL1   H2A 9040   3.774   6.007   7.044 -5.0504  1.3316 -0.6825
   89CHL1   H2B 9041   3.633   5.925   7.097 -0.4003 -0.5606 -2.7625
   89CHL1   C20 9042   3.976   5.535   7.909 -0.4715 -0.6173 -0.4928
   89CHL1   H20 9043   3.869   5.511   7.926 -0.2431 -3.3425 -2.3184
   89CHL1   C21 9044   4.013   5.677   7.959 -0.0331  0.0103 -0.9639
   89CHL1  H21A 9045   3.942   5.750   7.915 -0.0983  0.5538  0.0298
   89CHL1  H21B 9046   4.113   5.713   7.929 -0.0683 -0.3354 -1.5171
   89CHL1  H21C 9047   4.002   5.689   8.069  0.9918  0.9952 -0.9543
   89CHL1   C22 9048   4.067   5.430   7.983  0.1723  0.4702 -0.4129
   89CHL1  H22A 9049   4.041   5.327   7.950  0.1700  0.5661 -0.7139
   89CHL1  H22B 9050   4.176   5.450   7.974  0.3100 -0.7507 -1.8696
   89CHL1   C23 9051   4.046   5.430   8.141 -0.7787 -0.4791 -0.1040
   89CHL1  H23A 9052   4.116   5.356   8.185  1.8546 -0.3879 -3.7309
   89CHL1  H23B 9053   4.073   5.528   8.184 -0.3836 -1.3267  1.6994
   89CHL1   C24 9054   3.898   5.396   8.185 -0.8108 -0.0391 -0.3652
   89CHL1  H24A 9055   3.826   5.456   8.125  1.0125  1.8569 -0.7547
   89CHL1  H24B 9056   3.860   5.297   8.149 -0.7948 -0.3621  0.4810
   89CHL1   C25 9057   3.865   5.413   8.329 -0.7222 -0.7063  0.7075
   89CHL1   H25 9058   3.923   5.505   8.352  1.3915 -1.9977  0.8039
   89CHL1   C26 9059   3.710   5.429   8.347  0.1507 -0.0049  0.5500
   89CHL1  H26A 9060   3.665   5.512   8.288 -1.8925 -2.1074 -1.0766
   89CHL1  H26B 9061   3.666   5.336   8.304 -3.5144  1.2996  1.1391
   89CHL1  H26C 9062   3.675   5.429   8.452 -1.5150 -3.3273  0.1687
   89CHL1   C27 9063   3.928   5.305   8.409 -0.1994 -0.1364  0.2612
   89CHL1  H27A 9064   3.907   5.328   8.516 -1.0027  0.6051 -0.0401
   89CHL1  H27B 9065   3.887   5.204   8.387  1.1322 -0.6116 -0.1236
   89CHL1  H27C 9066   4.037   5.290   8.395 -0.4527 -0.2941 -1.8482
   90CHL1    C3 9067   3.294   0.312   6.891 -1.0361 -0.5165  0.5309
   90CHL1    H3 9068   3.328   0.207   6.906  0.6861 -0.1104 -0.3019
   90CHL1    O3 9069   3.246   0.325   6.758  0.6094 -0.0466  0.3261
   90CHL1   H3' 9070   3.157   0.291   6.758  0.2847  0.7577 -0.8329
   90CHL1    C4 9071   3.179   0.343   6.982  0.1001  0.2575  0.8349
   90CHL1   H4A 9072   3.140   0.446   6.961 -0.3292  0.1786  1.2171
   90CHL1   H4B 9073   3.091   0.278   6.960  0.5484 -1.1676  2.9750
   90CHL1    C5 9074   3.210   0.347   7.127 -0.2861 -0.4698 -0.8087
   90CHL1    C6 9075   3.139   0.283   7.218 -0.1477  0.4422 -0.1058
   90CHL1    H6 9076   3.057   0.226   7.172  0.7075 -0.7374 -0.2283
   90CHL1    C7 9077   3.165   0.279   7.368  0.6521  0.1525 -1.1703
   90CHL1   H7A 9078   3.072   0.288   7.428  1.6623  0.9690  0.3304
   90CHL1   H7B 9079   3.206   0.182   7.403  0.1339  0.4086  0.1992
   90CHL1    C8 9080   3.273   0.383   7.411 -0.2473  0.4727  0.2054
   90CHL1    H8 9081   3.212   0.475   7.422  0.5402  0.8549  1.7434
   90CHL1   C14 9082   3.320   0.342   7.547 -0.2473  0.4802 -0.2100
   90CHL1   H14 9083   3.363   0.241   7.532  0.3158  0.7303 -0.3208
   90CHL1   C15 9084   3.213   0.326   7.659  0.2320 -0.5561 -0.0047
   90CHL1  H15A 9085   3.149   0.417   7.654  3.3300  1.7240 -1.7978
   90CHL1  H15B 9086   3.158   0.229   7.660 -0.7115 -0.0556 -0.8860
   90CHL1   C16 9087   3.300   0.337   7.784 -0.6130 -0.1588 -1.5041
   90CHL1  H16A 9088   3.263   0.423   7.843  0.1093  0.4485 -1.9220
   90CHL1  H16B 9089   3.298   0.243   7.844 -0.8502 -0.0709 -1.3754
   90CHL1   C17 9090   3.452   0.362   7.744 -0.6732 -0.2708 -0.4917
   90CHL1   H17 9091   3.503   0.269   7.714  0.0657 -0.1247  0.2735
   90CHL1   C13 9092   3.435   0.437   7.607  0.1530 -0.3415  0.7043
   90CHL1   C18 9093   3.394   0.585   7.624  0.4935  0.8607  0.4068
   90CHL1  H18A 9094   3.334   0.620   7.537  0.2459  1.3763  0.7828
   90CHL1  H18B 9095   3.346   0.598   7.723 -1.3309  0.4116 -0.3880
   90CHL1  H18C 9096   3.479   0.656   7.628  1.1928  0.0396  0.4362
   90CHL1   C12 9097   3.545   0.426   7.502  0.1581 -0.5509  0.0693
   90CHL1  H12A 9098   3.630   0.489   7.537 -0.1918  0.4737 -0.8735
   90CHL1  H12B 9099   3.578   0.320   7.496 -2.8405 -1.5326 -0.8727
   90CHL1   C11 9100   3.503   0.473   7.360 -0.0429  0.1193  0.3927
   90CHL1  H11A 9101   3.478   0.581   7.365  2.6274  0.9144 -1.0270
   90CHL1  H11B 9102   3.594   0.459   7.297  0.1301  3.3086 -0.2056
   90CHL1    C9 9103   3.383   0.392   7.304 -0.1610  0.0686 -0.1601
   90CHL1    H9 9104   3.407   0.285   7.291 -2.7009 -0.2825 -2.9766
   90CHL1   C10 9105   3.335   0.426   7.164 -0.1957  0.1049  0.8630
   90CHL1   C19 9106   3.297   0.575   7.163 -0.3757  0.4793  0.0716
   90CHL1  H19A 9107   3.389   0.636   7.173  1.3165 -2.0172  0.8102
   90CHL1  H19B 9108   3.235   0.604   7.075  0.6643  0.6660 -0.6253
   90CHL1  H19C 9109   3.227   0.603   7.244  2.5848  0.1222  2.9528
   90CHL1    C1 9110   3.452   0.387   7.065 -0.3222 -0.1909  0.0959
   90CHL1   H1A 9111   3.542   0.447   7.090 -0.8434  0.7291 -0.2077
   90CHL1   H1B 9112   3.484   0.280   7.071 -0.9738 -0.3583  0.6994
   90CHL1    C2 9113   3.420   0.408   6.917 -0.2542  0.6249  0.1784
   90CHL1   H2A 9114   3.506   0.380   6.854  0.1828 -0.4187  1.1925
   90CHL1   H2B 9115   3.387   0.508   6.883 -0.2472  0.7224  0.4498
   90CHL1   C20 9116   3.537   0.427   7.856 -1.2348 -0.5417  0.2474
   90CHL1   H20 9117   3.477   0.513   7.892 -2.4290 -1.0388 -0.4972
   90CHL1   C21 9118   3.674   0.476   7.809 -0.1325  0.2367 -0.0412
   90CHL1  H21A 9119   3.662   0.571   7.754  0.9426 -0.0879 -0.8882
   90CHL1  H21B 9120   3.726   0.407   7.738  2.2575  1.2875  0.5741
   90CHL1  H21C 9121   3.729   0.500   7.903 -0.0805 -0.4719  0.1175
   90CHL1   C22 9122   3.552   0.341   7.981  0.1936  0.5022  0.2320
   90CHL1  H22A 9123   3.609   0.397   8.058  2.8944  1.7892 -2.4872
   90CHL1  H22B 9124   3.450   0.311   8.013  0.0527  1.8564  1.0748
   90CHL1   C23 9125   3.625   0.204   7.953  0.1835  0.8237 -0.3200
   90CHL1  H23A 9126   3.558   0.138   7.894 -0.3227 -0.1493  1.2743
   90CHL1  H23B 9127   3.708   0.224   7.881  0.2585 -0.1929 -0.5328
   90CHL1   C24 9128   3.662   0.125   8.086  0.2130  0.4411 -0.3878
   90CHL1  H24A 9129   3.723   0.189   8.152  0.8250 -1.5226  1.0379
   90CHL1  H24B 9130   3.568   0.101   8.139  2.2470 -0.5576  3.0615
   90CHL1   C25 9131   3.736  -0.010   8.067  0.0483 -0.7109  0.2799
   90CHL1   H25 9132   3.828   0.012   8.009 -0.1484 -2.5646 -0.8128
   90CHL1   C26 9133   3.780  -0.063   8.209  1.4472 -0.0513  0.1026
   90CHL1  H26A 9134   3.847  -0.150   8.193  2.6547  0.6738  1.0652
   90CHL1  H26B 9135   3.849   0.015   8.248 -0.1184  1.4905 -0.0443
   90CHL1  H26C 9136   3.696  -0.094   8.275 -0.5366  0.2799 -2.0986
   90CHL1   C27 9137   3.673  -0.110   7.976 -0.2496  0.1595 -0.3083
   90CHL1  H27A 9138   3.666  -0.062   7.876  1.7020 -0.5676 -0.8403
   90CHL1  H27B 9139   3.722  -0.209   7.969  1.7090  1.1713 -2.1999
   90CHL1  H27C 9140   3.569  -0.131   8.009  0.0781 -2.1520 -0.5687
   91CHL1    C3 9141   5.314   2.445   7.114  0.6907 -0.0601 -0.1419
   91CHL1    H3 9142   5.320   2.554   7.135 -4.2431  0.7936 -1.9333
   91CHL1    O3 9143   5.238   2.440   6.999 -0.3224  0.1654  0.2035
   91CHL1   H3' 9144   5.235   2.347   6.978  2.2055 -0.5051  2.2963
   91CHL1    C4 9145   5.462   2.385   7.086 -0.0042 -0.4330 -0.5056
   91CHL1   H4A 9146   5.452   2.277   7.061 -0.9259 -0.3041 -0.7113
   91CHL1   H4B 9147   5.488   2.441   6.994 -0.0979 -0.2370 -0.4117
   91CHL1    C5 9148   5.552   2.396   7.205  0.3341  1.5544 -0.1552
   91CHL1    C6 9149   5.659   2.469   7.198 -0.3986  0.3603  0.6084
   91CHL1    H6 9150   5.688   2.519   7.105 -0.8417  0.6600  0.6278
   91CHL1    C7 9151   5.758   2.477   7.309  0.0243  0.0487 -0.0362
   91CHL1   H7A 9152   5.859   2.465   7.264  0.6611  0.6450  1.1891
   91CHL1   H7B 9153   5.744   2.575   7.359  1.3205 -0.0140  0.4812
   91CHL1    C8 9154   5.733   2.375   7.423 -0.0878  0.4979 -0.3629
   91CHL1    H8 9155   5.765   2.276   7.384  1.7399  0.9245 -0.0390
   91CHL1   C14 9156   5.828   2.404   7.541  0.4742  0.4500  0.2834
   91CHL1   H14 9157   5.794   2.504   7.577 -1.0847  0.0558 -0.0027
   91CHL1   C15 9158   5.976   2.411   7.522  0.4057  0.0333 -0.6825
   91CHL1  H15A 9159   6.016   2.328   7.460  0.8101 -0.6936  0.5162
   91CHL1  H15B 9160   5.996   2.509   7.475  0.7745  0.1760 -0.2375
   91CHL1   C16 9161   6.042   2.397   7.657  1.0356  0.8127  0.4034
   91CHL1  H16A 9162   6.115   2.313   7.650 -3.2988 -3.4476  1.0920
   91CHL1  H16B 9163   6.079   2.494   7.697  1.9177  1.4252 -1.7590
   91CHL1   C17 9164   5.924   2.350   7.750  0.2597 -1.0663  0.0678
   91CHL1   H17 9165   5.881   2.441   7.798  0.2082 -0.4226 -1.1624
   91CHL1   C13 9166   5.806   2.306   7.662  0.2227  0.4254  0.3166
   91CHL1   C18 9167   5.837   2.166   7.613  0.2042  0.1867 -0.6091
   91CHL1  H18A 9168   5.936   2.164   7.562  1.1409 -1.1878  1.1540
   91CHL1  H18B 9169   5.841   2.103   7.703 -0.4211  0.7529 -0.1741
   91CHL1  H18C 9170   5.757   2.132   7.543  0.9293 -0.0186 -1.3571
   91CHL1   C12 9171   5.662   2.331   7.716 -0.1523 -0.3612  0.2800
   91CHL1  H12A 9172   5.639   2.262   7.800 -0.4191  0.7630  1.1432
   91CHL1  H12B 9173   5.649   2.437   7.746 -3.6161 -0.5085 -0.2841
   91CHL1   C11 9174   5.551   2.311   7.602  0.5342  0.2030  0.1071
   91CHL1  H11A 9175   5.527   2.203   7.595 -1.8549  0.6816  0.2165
   91CHL1  H11B 9176   5.456   2.360   7.631  0.3439 -0.3563  0.4508
   91CHL1    C9 9177   5.588   2.371   7.464  0.2800  0.2033 -0.3108
   91CHL1    H9 9178   5.570   2.478   7.485  0.0953 -0.2992  2.3379
   91CHL1   C10 9179   5.501   2.333   7.333  0.1359  0.0924 -0.1750
   91CHL1   C19 9180   5.483   2.180   7.323  0.3658 -0.2511 -0.5536
   91CHL1  H19A 9181   5.437   2.146   7.228  0.5276 -1.2483 -0.2869
   91CHL1  H19B 9182   5.583   2.132   7.323  0.3520 -0.3205  1.2277
   91CHL1  H19C 9183   5.421   2.140   7.405  0.9508  2.5011  1.3922
   91CHL1    C1 9184   5.357   2.397   7.353  0.9173 -0.1204 -0.0749
   91CHL1   H1A 9185   5.298   2.344   7.431  1.3049 -0.6833 -0.1625
   91CHL1   H1B 9186   5.359   2.500   7.394  0.1011 -0.1667  0.1067
   91CHL1    C2 9187   5.261   2.371   7.235  0.3824 -0.4362 -0.3855
   91CHL1   H2A 9188   5.165   2.427   7.247  0.7881  0.5726 -1.5586
   91CHL1   H2B 9189   5.250   2.262   7.216 -1.8344 -0.9338  2.8708
   91CHL1   C20 9190   5.976   2.262   7.869  0.1449 -0.0114  0.2575
   91CHL1   H20 9191   5.992   2.165   7.816 -2.5992 -0.8785  0.8307
   91CHL1   C21 9192   5.854   2.238   7.970 -0.0766  0.4014  0.3495
   91CHL1  H21A 9193   5.902   2.208   8.066  0.4859 -1.2723 -0.4339
   91CHL1  H21B 9194   5.788   2.153   7.942  1.7852 -1.4413  1.3384
   91CHL1  H21C 9195   5.797   2.334   7.976 -2.5388 -0.6865 -2.6897
   91CHL1   C22 9196   6.096   2.330   7.940  0.1249 -0.2730 -0.1293
   91CHL1  H22A 9197   6.183   2.344   7.872  1.3234 -1.6185  1.0608
   91CHL1  H22B 9198   6.068   2.422   7.996  0.2458 -1.0849  1.2990
   91CHL1   C23 9199   6.159   2.249   8.047  0.4302 -0.3369  0.3092
   91CHL1  H23A 9200   6.082   2.241   8.126 -0.2516  1.2360 -0.1588
   91CHL1  H23B 9201   6.179   2.152   7.997 -0.1712  0.2080 -1.0102
   91CHL1   C24 9202   6.289   2.301   8.105 -0.3320  0.3945  0.1614
   91CHL1  H24A 9203   6.368   2.314   8.028  1.1016  1.2466  1.7052
   91CHL1  H24B 9204   6.276   2.400   8.154 -2.8502 -0.0626  0.5021
   91CHL1   C25 9205   6.347   2.211   8.210 -0.6934  0.1064 -0.3424
   91CHL1   H25 9206   6.357   2.110   8.165 -0.9409 -0.2183  0.3256
   91CHL1   C26 9207   6.482   2.259   8.259 -0.4830 -0.6882  0.7758
   91CHL1  H26A 9208   6.479   2.362   8.300 -1.7567 -0.3236 -0.1730
   91CHL1  H26B 9209   6.525   2.192   8.337  2.5380 -0.0653 -0.2065
   91CHL1  H26C 9210   6.558   2.246   8.178 -1.2303 -3.0925  0.3950
   91CHL1   C27 9211   6.246   2.203   8.333 -0.1845 -0.2892  0.3187
   91CHL1  H27A 9212   6.165   2.130   8.311  0.6282 -0.5452 -2.0699
   91CHL1  H27B 9213   6.289   2.175   8.432  1.4465  1.6720  0.2121
   91CHL1  H27C 9214   6.210   2.307   8.346 -0.0127 -0.3387  1.3105
   92CHL1    C3 9215   1.309   3.838   6.758 -0.5516 -0.2647 -0.1514
   92CHL1    H3 9216   1.416   3.829   6.788 -0.3034 -0.5358 -1.0587
   92CHL1    O3 9217   1.326   3.827   6.622  0.0010  0.6288 -0.0577
   92CHL1   H3' 9218   1.238   3.811   6.586  0.4686 -0.2555 -0.8624
   92CHL1    C4 9219   1.213   3.725   6.812 -0.4239 -0.2472 -0.3715
   92CHL1   H4A 9220   1.120   3.737   6.752  0.2258  4.5726 -0.7698
   92CHL1   H4B 9221   1.249   3.623   6.788 -2.4392 -1.5485  1.7258
   92CHL1    C5 9222   1.206   3.735   6.962 -0.3385 -0.5066 -0.3762
   92CHL1    C6 9223   1.247   3.640   7.050  0.1436 -0.1248  0.0928
   92CHL1    H6 9224   1.281   3.542   7.013 -1.6067 -0.9593  0.5782
   92CHL1    C7 9225   1.244   3.643   7.201  0.4711 -0.1208 -0.2964
   92CHL1   H7A 9226   1.203   3.545   7.234  2.0471 -0.0832  2.0287
   92CHL1   H7B 9227   1.346   3.666   7.241 -0.0292  1.9148 -0.0515
   92CHL1    C8 9228   1.155   3.757   7.258  0.3883 -0.1419  0.3513
   92CHL1    H8 9229   1.050   3.724   7.241  0.2936  0.7884 -0.9890
   92CHL1   C14 9230   1.184   3.782   7.401  0.2572 -0.1681 -0.3910
   92CHL1   H14 9231   1.289   3.819   7.409 -0.3145  1.2615  0.9583
   92CHL1   C15 9232   1.190   3.662   7.494  0.2366  0.0382  0.2542
   92CHL1  H15A 9233   1.105   3.593   7.478 -0.0509  0.1668  1.1707
   92CHL1  H15B 9234   1.287   3.609   7.480  0.0344 -1.5673  3.8868
   92CHL1   C16 9235   1.188   3.719   7.637  0.3440  0.7965  0.1412
   92CHL1  H16A 9236   1.096   3.673   7.679 -0.2844 -0.3858 -2.3876
   92CHL1  H16B 9237   1.272   3.686   7.702 -1.3270 -0.9610  1.5110
   92CHL1   C17 9238   1.175   3.871   7.618 -0.5216  0.6467  0.1486
   92CHL1   H17 9239   1.280   3.903   7.608  0.0465 -1.6657 -2.5127
   92CHL1   C13 9240   1.114   3.896   7.477 -0.7011  0.8035 -0.6036
   92CHL1   C18 9241   0.961   3.859   7.495  0.0935 -0.3702  0.2798
   92CHL1  H18A 9242   0.916   3.930   7.567 -0.9473 -0.6211 -0.1041
   92CHL1  H18B 9243   0.909   3.872   7.398 -0.8283 -2.1190  0.4973
   92CHL1  H18C 9244   0.948   3.750   7.513 -0.3560  0.0425  2.9965
   92CHL1   C12 9245   1.132   4.025   7.400 -0.4202  0.2862 -0.4054
   92CHL1  H12A 9246   1.076   4.115   7.435  1.0792  0.1388  2.7719
   92CHL1  H12B 9247   1.237   4.049   7.426 -1.0794 -0.3786  3.5343
   92CHL1   C11 9248   1.109   4.010   7.254 -0.1623 -0.3649  0.3080
   92CHL1  H11A 9249   0.998   3.999   7.254 -0.0241 -2.0492 -0.9205
   92CHL1  H11B 9250   1.135   4.103   7.199 -4.9605  0.2469 -1.3918
   92CHL1    C9 9251   1.172   3.885   7.176  0.6083 -0.1345 -0.5509
   92CHL1    H9 9252   1.280   3.910   7.185  1.0888 -1.5581 -1.7444
   92CHL1   C10 9253   1.157   3.868   7.025 -0.0182  0.2598  0.0038
   92CHL1   C19 9254   1.008   3.880   6.995 -0.5530  0.4515 -0.6266
   92CHL1  H19A 9255   0.946   3.806   7.048 -2.9126  2.3734 -0.5099
   92CHL1  H19B 9256   0.981   3.987   7.009 -0.3651  0.3487  0.6062
   92CHL1  H19C 9257   0.995   3.854   6.888  2.2351 -2.5659 -0.3818
   92CHL1    C1 9258   1.236   3.989   6.948 -0.2950 -0.6709 -0.1848
   92CHL1   H1A 9259   1.184   4.086   6.960  0.2942 -0.3696 -0.0590
   92CHL1   H1B 9260   1.335   4.008   6.994 -0.0099  0.4069 -1.2065
   92CHL1    C2 9261   1.265   3.979   6.797  0.1242  0.5123 -0.6894
   92CHL1   H2A 9262   1.337   4.058   6.767  1.5439 -0.4000  0.2084
   92CHL1   H2B 9263   1.172   4.004   6.742 -0.7010 -0.3358  0.2721
   92CHL1   C20 9264   1.115   3.926   7.745  0.0366 -0.4751 -0.4186
   92CHL1   H20 9265   1.012   3.888   7.761 -0.6787  1.2436 -0.7063
   92CHL1   C21 9266   1.089   4.077   7.718 -0.2471 -0.6791 -0.0292
   92CHL1  H21A 9267   1.061   4.126   7.814  2.7825  0.6177  0.3106
   92CHL1  H21B 9268   1.013   4.097   7.639 -0.4636 -0.2986  0.2741
   92CHL1  H21C 9269   1.187   4.125   7.696 -0.4260 -1.1035 -1.8865
   92CHL1   C22 9270   1.201   3.893   7.866 -0.4647  0.3982 -0.6736
   92CHL1  H22A 9271   1.206   3.783   7.879 -0.6367  0.4329 -0.3192
   92CHL1  H22B 9272   1.305   3.928   7.844 -0.3841  0.9705  0.5512
   92CHL1   C23 9273   1.138   3.942   7.997 -0.2224  0.6018 -0.2619
   92CHL1  H23A 9274   1.188   4.035   8.033 -0.3759  0.5127  0.1825
   92CHL1  H23B 9275   1.030   3.962   7.980 -0.1971 -0.1957 -1.4487
   92CHL1   C24 9276   1.153   3.838   8.118  0.5609  0.3518  0.1345
   92CHL1  H24A 9277   1.110   3.741   8.085  2.5503  0.1861 -2.2281
   92CHL1  H24B 9278   1.264   3.831   8.121  0.7408  2.6049  0.6300
   92CHL1   C25 9279   1.100   3.903   8.258 -0.1664  0.3953  1.1389
   92CHL1   H25 9280   1.087   3.824   8.334 -1.1101 -1.4183 -0.8174
   92CHL1   C26 9281   1.201   4.008   8.306 -0.4737  0.1111 -0.1527
   92CHL1  H26A 9282   1.295   3.983   8.253 -0.0197 -0.0663  0.7018
   92CHL1  H26B 9283   1.175   4.114   8.286  0.0978  0.5205  1.1325
   92CHL1  H26C 9284   1.218   3.982   8.413 -1.2269 -0.0632 -0.0668
   92CHL1   C27 9285   0.957   3.975   8.262 -0.1583  0.5520  0.1170
   92CHL1  H27A 9286   0.959   4.033   8.357 -0.8477 -0.1007  0.5366
   92CHL1  H27B 9287   0.947   4.052   8.183  1.4364 -0.3831 -1.0790
   92CHL1  H27C 9288   0.871   3.905   8.257 -2.0404  2.8083 -1.8875
   93CHL1    C3 9289   6.292   2.704   6.971 -0.2612 -0.0815 -0.3035
   93CHL1    H3 9290   6.324   2.810   6.967  1.7665 -0.5668  1.0564
   93CHL1    O3 9291   6.266   2.662   6.838  0.3876 -0.6856  0.6446
   93CHL1   H3' 9292   6.253   2.567   6.842 -3.1041 -0.3990 -0.5617
   93CHL1    C4 9293   6.415   2.626   7.027  0.6953  0.3208 -0.1478
   93CHL1   H4A 9294   6.404   2.518   7.001  1.8874  0.1415  0.0371
   93CHL1   H4B 9295   6.502   2.648   6.961  0.4307 -1.3007 -1.0907
   93CHL1    C5 9296   6.447   2.634   7.173 -0.3837  0.5829 -0.2037
   93CHL1    C6 9297   6.574   2.652   7.211 -0.1707  1.0994  0.7980
   93CHL1    H6 9298   6.652   2.660   7.134  0.0363 -0.1339  0.8511
   93CHL1    C7 9299   6.613   2.661   7.356 -0.1123 -0.4492 -0.5415
   93CHL1   H7A 9300   6.706   2.607   7.382 -1.5341 -3.6615 -1.7101
   93CHL1   H7B 9301   6.627   2.768   7.385  2.5666 -1.5410  2.8990
   93CHL1    C8 9302   6.503   2.614   7.463 -0.3534  0.4968 -0.0852
   93CHL1    H8 9303   6.502   2.503   7.459 -3.6458  0.4415 -1.0215
   93CHL1   C14 9304   6.529   2.668   7.607 -0.9886 -0.2272  0.8586
   93CHL1   H14 9305   6.520   2.778   7.598 -2.1447 -0.2752  1.2640
   93CHL1   C15 9306   6.667   2.636   7.662  0.1730 -0.1113 -0.2242
   93CHL1  H15A 9307   6.690   2.530   7.642  1.6524  0.0241  0.6730
   93CHL1  H15B 9308   6.755   2.692   7.624  1.8859 -1.9458  0.9011
   93CHL1   C16 9309   6.640   2.658   7.811  0.1536  0.7532 -0.0103
   93CHL1  H16A 9310   6.662   2.562   7.862 -1.3212  0.6350  0.4412
   93CHL1  H16B 9311   6.695   2.740   7.863 -1.4376  0.6144  2.0138
   93CHL1   C17 9312   6.493   2.693   7.834  0.2395 -0.0648  0.0738
   93CHL1   H17 9313   6.464   2.799   7.816 -2.1426 -0.7715 -0.6148
   93CHL1   C13 9314   6.430   2.622   7.712  0.4694  0.0422  0.3850
   93CHL1   C18 9315   6.421   2.472   7.729 -0.2191  0.0732 -0.4649
   93CHL1  H18A 9316   6.339   2.452   7.801 -0.2266  1.9527  0.1058
   93CHL1  H18B 9317   6.395   2.417   7.636 -0.6395  0.4594 -0.5833
   93CHL1  H18C 9318   6.517   2.425   7.757 -0.0509 -0.0004 -1.1451
   93CHL1   C12 9319   6.296   2.683   7.666  0.2062 -0.4208  0.5665
   93CHL1  H12A 9320   6.220   2.651   7.742 -1.9459 -0.0642 -1.3261
   93CHL1  H12B 9321   6.294   2.794   7.663  1.4190 -0.4051 -0.3193
   93CHL1   C11 9322   6.257   2.638   7.522 -0.0639 -0.3704 -0.5888
   93CHL1  H11A 9323   6.236   2.529   7.532 -0.9089 -0.0136  3.8645
   93CHL1  H11B 9324   6.160   2.677   7.486  1.2381  1.9625 -1.7878
   93CHL1    C9 9325   6.370   2.662   7.414  0.8458  0.4034 -0.1612
   93CHL1    H9 9326   6.379   2.772   7.406  3.1002  0.3279  0.6539
   93CHL1   C10 9327   6.329   2.618   7.272 -0.6175  0.4767  0.5437
   93CHL1   C19 9328   6.300   2.464   7.272  0.1264  0.0745 -0.4533
   93CHL1  H19A 9329   6.213   2.434   7.335  0.7148 -1.0973 -0.1778
   93CHL1  H19B 9330   6.282   2.426   7.169  0.3869 -0.7856 -0.1890
   93CHL1  H19C 9331   6.379   2.409   7.327  0.2876 -0.2736 -1.0182
   93CHL1    C1 9332   6.219   2.712   7.215 -0.1646  0.2713 -0.2718
   93CHL1   H1A 9333   6.136   2.700   7.288 -0.2362  1.4147 -0.1517
   93CHL1   H1B 9334   6.258   2.816   7.215 -1.1812  0.6684 -1.2031
   93CHL1    C2 9335   6.174   2.682   7.071 -0.2246  1.0536  0.6840
   93CHL1   H2A 9336   6.085   2.739   7.037 -0.8692 -1.2084 -1.7008
   93CHL1   H2B 9337   6.143   2.576   7.069 -0.1368  1.0453 -0.5789
   93CHL1   C20 9338   6.448   2.653   7.977  0.3828  0.6399 -0.2952
   93CHL1   H20 9339   6.450   2.543   7.991 -1.7192  0.5515 -0.3892
   93CHL1   C21 9340   6.300   2.686   8.003  0.0499 -0.0617  0.1524
   93CHL1  H21A 9341   6.259   2.680   8.106 -0.1776  1.8535  0.2050
   93CHL1  H21B 9342   6.242   2.615   7.940  1.1973 -1.8242  1.0241
   93CHL1  H21C 9343   6.294   2.791   7.967  1.0986 -0.4361 -1.1744
   93CHL1   C22 9344   6.533   2.714   8.087 -0.2165 -0.9066 -1.1076
   93CHL1  H22A 9345   6.641   2.691   8.070 -0.3453 -0.5190 -2.6425
   93CHL1  H22B 9346   6.514   2.823   8.088 -0.3210 -0.9111 -1.8699
   93CHL1   C23 9347   6.511   2.652   8.229  0.6020 -0.2587 -1.2176
   93CHL1  H23A 9348   6.404   2.660   8.257  0.0172 -2.3928 -2.5933
   93CHL1  H23B 9349   6.529   2.543   8.215  0.6923 -0.3088 -0.7362
   93CHL1   C24 9350   6.600   2.717   8.333 -0.2054  0.0408 -0.2336
   93CHL1  H24A 9351   6.702   2.733   8.294  0.4681 -1.7397  0.7065
   93CHL1  H24B 9352   6.557   2.811   8.374  0.3435 -0.1392  0.7918
   93CHL1   C25 9353   6.609   2.637   8.464 -0.1877  0.1965 -0.4966
   93CHL1   H25 9354   6.621   2.530   8.440 -0.3220  0.3102 -1.0808
   93CHL1   C26 9355   6.727   2.672   8.557  0.1526 -0.3310 -0.9404
   93CHL1  H26A 9356   6.736   2.607   8.647  3.2005  0.2934 -0.7107
   93CHL1  H26B 9357   6.827   2.662   8.510  1.6002  0.0885  1.8579
   93CHL1  H26C 9358   6.726   2.775   8.598  0.2051  0.1588 -2.1392
   93CHL1   C27 9359   6.482   2.649   8.552  0.3672  0.5198  0.1483
   93CHL1  H27A 9360   6.484   2.578   8.637  1.8705 -0.3463 -0.5567
   93CHL1  H27B 9361   6.473   2.751   8.595  1.2724 -0.1736  2.1216
   93CHL1  H27C 9362   6.392   2.619   8.494 -0.2017 -0.6710  1.6007
   94CHL1    C3 9363   1.271   4.997   6.936  0.3090 -0.0837  0.8519
   94CHL1    H3 9364   1.370   4.956   6.966 -0.5725 -0.9844  2.6926
   94CHL1    O3 9365   1.266   5.025   6.793 -0.0593  0.5247 -0.5531
   94CHL1   H3' 9366   1.218   5.107   6.780  0.5722  0.6718 -2.1184
   94CHL1    C4 9367   1.161   4.885   6.972  0.0636 -0.7008  0.0019
   94CHL1   H4A 9368   1.058   4.905   6.937  0.6205 -0.6876 -1.7272
   94CHL1   H4B 9369   1.211   4.798   6.924  1.1403 -0.5964  0.8981
   94CHL1    C5 9370   1.173   4.868   7.121 -0.3600 -0.0300 -0.2866
   94CHL1    C6 9371   1.208   4.749   7.177 -0.5887 -0.0594  0.5595
   94CHL1    H6 9372   1.240   4.668   7.110  2.4937  0.7651  0.8727
   94CHL1    C7 9373   1.200   4.724   7.316 -0.0856  0.0166  0.4346
   94CHL1   H7A 9374   1.156   4.625   7.340 -0.8122  0.1614 -0.2824
   94CHL1   H7B 9375   1.301   4.703   7.359  0.1467 -0.7504 -0.4511
   94CHL1    C8 9376   1.130   4.840   7.400 -0.2021  0.2722 -0.3659
   94CHL1    H8 9377   1.023   4.828   7.374 -0.2225  1.1910 -0.7435
   94CHL1   C14 9378   1.161   4.835   7.551 -0.2955  0.1339 -0.4224
   94CHL1   H14 9379   1.272   4.847   7.554 -0.4252  1.2309  1.4304
   94CHL1   C15 9380   1.141   4.701   7.624 -0.3528  0.9219 -0.4027
   94CHL1  H15A 9381   1.052   4.647   7.585 -0.4898  1.4683 -0.8594
   94CHL1  H15B 9382   1.231   4.636   7.617  1.1779  2.9988 -0.9521
   94CHL1   C16 9383   1.123   4.734   7.774 -0.0712  0.8375  0.2691
   94CHL1  H16A 9384   1.019   4.704   7.800 -0.3044  0.0412 -1.4444
   94CHL1  H16B 9385   1.198   4.684   7.838  0.1011  1.5888  0.6694
   94CHL1   C17 9386   1.138   4.890   7.790  0.4510 -0.6575  0.1904
   94CHL1   H17 9387   1.247   4.907   7.804  0.4962 -0.7656 -0.0415
   94CHL1   C13 9388   1.097   4.932   7.648 -0.1179 -1.0191 -0.0768
   94CHL1   C18 9389   0.943   4.924   7.628  0.0036 -0.5863 -0.5499
   94CHL1  H18A 9390   0.894   4.833   7.669  0.3806  0.0685  1.4965
   94CHL1  H18B 9391   0.908   5.011   7.687  0.7488 -0.2538 -0.5861
   94CHL1  H18C 9392   0.915   4.946   7.523 -1.4711  0.1939 -0.0296
   94CHL1   C12 9393   1.142   5.076   7.600  0.1856 -0.0424 -0.3817
   94CHL1  H12A 9394   1.075   5.144   7.656 -1.7561 -2.1485  0.0038
   94CHL1  H12B 9395   1.249   5.096   7.622  0.5005  0.2857 -2.0451
   94CHL1   C11 9396   1.124   5.099   7.448 -0.0210  0.3460 -0.3826
   94CHL1  H11A 9397   1.016   5.108   7.422 -0.1546  3.0884  0.7718
   94CHL1  H11B 9398   1.167   5.196   7.414 -2.4794  1.4914 -0.4709
   94CHL1    C9 9399   1.176   4.979   7.355 -0.2603  0.2040 -0.2113
   94CHL1    H9 9400   1.286   4.975   7.374 -0.1996 -1.3050 -0.7153
   94CHL1   C10 9401   1.155   4.991   7.201  0.2528 -1.3445 -0.1023
   94CHL1   C19 9402   1.004   5.039   7.181  0.0180  0.0458 -0.2261
   94CHL1  H19A 9403   0.970   5.031   7.075  0.4997  0.3640 -0.4085
   94CHL1  H19B 9404   0.949   4.960   7.236  1.1289  1.1105  2.6169
   94CHL1  H19C 9405   0.983   5.141   7.219  2.2067  0.5035 -0.0866
   94CHL1    C1 9406   1.256   5.102   7.156 -0.0133  0.7049 -0.3277
   94CHL1   H1A 9407   1.236   5.187   7.224  2.3616 -0.0242  1.4403
   94CHL1   H1B 9408   1.359   5.067   7.177 -0.9145 -2.8968 -1.1860
   94CHL1    C2 9409   1.253   5.127   7.007 -0.5562  0.4079 -0.0837
   94CHL1   H2A 9410   1.337   5.192   6.974  0.5768 -0.4345  1.0420
   94CHL1   H2B 9411   1.152   5.171   6.996 -0.9790 -0.3308  0.7885
   94CHL1   C20 9412   1.065   4.946   7.913 -0.0880  0.0620  0.1372
   94CHL1   H20 9413   0.963   4.903   7.904 -0.4819  1.3544 -2.6557
   94CHL1   C21 9414   1.072   5.095   7.922  0.1550  0.4785  0.4593
   94CHL1  H21A 9415   0.998   5.133   7.849 -1.6876 -1.4986  1.1697
   94CHL1  H21B 9416   1.173   5.134   7.895  0.2414  0.5845  0.9230
   94CHL1  H21C 9417   1.039   5.139   8.018  0.7720  0.4694  0.6812
   94CHL1   C22 9418   1.127   4.888   8.039 -0.1000 -0.0572  0.7409
   94CHL1  H22A 9419   1.136   4.778   8.032 -2.8570 -0.2232 -3.6736
   94CHL1  H22B 9420   1.231   4.926   8.047  0.3751 -0.8683 -1.2491
   94CHL1   C23 9421   1.055   4.918   8.178  0.0306  0.0130  1.0059
   94CHL1  H23A 9422   1.051   5.029   8.175  0.9507  0.0451  0.2218
   94CHL1  H23B 9423   0.954   4.873   8.186 -0.8104  2.0688  3.5017
   94CHL1   C24 9424   1.151   4.872   8.286 -0.4268  0.4683 -0.0586
   94CHL1  H24A 9425   1.149   4.761   8.285 -2.1730  0.4675  0.4374
   94CHL1  H24B 9426   1.252   4.913   8.265  0.0616 -0.0994  1.0940
   94CHL1   C25 9427   1.115   4.911   8.422 -0.0089 -0.1807  0.0887
   94CHL1   H25 9428   1.103   5.022   8.425 -0.6937 -0.2570  2.4375
   94CHL1   C26 9429   0.980   4.844   8.472  0.5484 -0.0731  0.0279
   94CHL1  H26A 9430   0.954   4.877   8.575  1.4869  0.2355  0.1704
   94CHL1  H26B 9431   0.905   4.881   8.399  1.3739  2.4368  0.3646
   94CHL1  H26C 9432   0.993   4.734   8.478  0.9378  0.0490  2.0049
   94CHL1   C27 9433   1.222   4.874   8.525  0.5599 -0.7355 -0.3495
   94CHL1  H27A 9434   1.205   4.911   8.628 -1.2906 -1.4040 -0.3782
   94CHL1  H27B 9435   1.211   4.767   8.551 -2.1069  0.0657  2.4343
   94CHL1  H27C 9436   1.323   4.903   8.490  1.2830 -3.2212 -0.5045
   95CHL1    C3 9437   1.652   4.079   6.707  0.4361 -0.1052 -0.1153
   95CHL1    H3 9438   1.565   4.010   6.704 -0.1668  0.6704 -1.9795
   95CHL1    O3 9439   1.710   4.066   6.576  0.6278 -0.2122  0.5110
   95CHL1   H3' 9440   1.791   4.119   6.571 -0.1074  0.8863 -0.3336
   95CHL1    C4 9441   1.624   4.224   6.733  0.2300 -0.3757  0.6758
   95CHL1   H4A 9442   1.717   4.283   6.716 -1.3772  1.9479 -0.6934
   95CHL1   H4B 9443   1.554   4.269   6.659 -0.4349  0.2487  1.6471
   95CHL1    C5 9444   1.584   4.244   6.879  0.3996 -0.0149 -0.5326
   95CHL1    C6 9445   1.461   4.294   6.898  0.0291  0.3422 -0.5939
   95CHL1    H6 9446   1.390   4.329   6.822  1.5545  1.7235 -1.4617
   95CHL1    C7 9447   1.419   4.308   7.046 -0.6052  0.8076 -0.1392
   95CHL1   H7A 9448   1.368   4.404   7.068  1.3504  1.5999  1.1201
   95CHL1   H7B 9449   1.342   4.230   7.067  0.1562  0.2167  0.4812
   95CHL1    C8 9450   1.532   4.303   7.153  0.0456  0.5374 -0.4208
   95CHL1    H8 9451   1.595   4.394   7.148  0.7641  0.0586 -0.2014
   95CHL1   C14 9452   1.473   4.297   7.292 -0.2438  0.3967 -0.1583
   95CHL1   H14 9453   1.410   4.206   7.299  2.2513 -1.3764  0.5034
   95CHL1   C15 9454   1.388   4.420   7.336 -0.7288  1.0745  0.2010
   95CHL1  H15A 9455   1.438   4.517   7.313  0.1390  0.4966 -0.4257
   95CHL1  H15B 9456   1.287   4.427   7.291 -3.5951 -1.6394  5.3705
   95CHL1   C16 9457   1.379   4.399   7.489 -0.0424  0.4093  0.2444
   95CHL1  H16A 9458   1.395   4.501   7.530 -1.3019  0.5918  0.3222
   95CHL1  H16B 9459   1.277   4.376   7.526  0.4429 -1.9952  0.2586
   95CHL1   C17 9460   1.479   4.284   7.533  0.2143 -0.0252 -0.5377
   95CHL1   H17 9461   1.423   4.189   7.532  0.3320 -0.3367  3.4362
   95CHL1   C13 9462   1.576   4.273   7.409 -0.0011  0.2536  0.3639
   95CHL1   C18 9463   1.673   4.397   7.420 -0.6751 -0.3582 -0.4083
   95CHL1  H18A 9464   1.750   4.365   7.493  1.1191 -0.2783 -2.1778
   95CHL1  H18B 9465   1.727   4.420   7.326  0.6956 -2.7259 -0.2591
   95CHL1  H18C 9466   1.619   4.488   7.454 -2.5326 -1.3639 -0.5156
   95CHL1   C12 9467   1.653   4.140   7.380 -0.0233  0.1454  0.2279
   95CHL1  H12A 9468   1.725   4.115   7.461 -1.9291 -3.7118  0.9311
   95CHL1  H12B 9469   1.576   4.061   7.383  0.9586 -0.8157  2.7991
   95CHL1   C11 9470   1.724   4.149   7.244  0.7112 -0.0032 -0.7563
   95CHL1  H11A 9471   1.815   4.212   7.247  0.0957  0.9307 -0.9492
   95CHL1  H11B 9472   1.751   4.046   7.215  2.8413 -0.7569  3.2039
   95CHL1    C9 9473   1.624   4.184   7.123  0.0642  0.1959 -0.5051
   95CHL1    H9 9474   1.555   4.097   7.119 -0.5279  0.6815 -1.2614
   95CHL1   C10 9475   1.682   4.193   6.982  0.1297 -0.8500 -0.6117
   95CHL1   C19 9476   1.799   4.297   6.991 -0.4161 -0.1655 -0.0890
   95CHL1  H19A 9477   1.755   4.397   7.012 -0.3466 -0.1663  0.0634
   95CHL1  H19B 9478   1.871   4.281   7.074 -1.3349  1.3946  1.0747
   95CHL1  H19C 9479   1.860   4.299   6.898  1.0136 -1.0843  0.7971
   95CHL1    C1 9480   1.725   4.054   6.953 -0.9477  0.2776  0.2175
   95CHL1   H1A 9481   1.801   4.013   7.022 -2.3191 -1.2104  0.9294
   95CHL1   H1B 9482   1.640   3.984   6.967 -1.1748  0.7608  1.3698
   95CHL1    C2 9483   1.759   4.031   6.803 -0.1804 -0.0525 -0.8200
   95CHL1   H2A 9484   1.778   3.922   6.793 -4.1124 -1.0552  0.7318
   95CHL1   H2B 9485   1.851   4.089   6.782  0.5682 -0.5415  0.8966
   95CHL1   C20 9486   1.522   4.311   7.680  0.0448  0.6687  0.1572
   95CHL1   H20 9487   1.568   4.411   7.699  1.3741  0.2777 -0.8862
   95CHL1   C21 9488   1.638   4.211   7.705 -0.2745  0.3469  0.1786
   95CHL1  H21A 9489   1.672   4.192   7.809  3.4493  1.2894 -0.7147
   95CHL1  H21B 9490   1.729   4.248   7.655 -0.0401  0.7879  0.9179
   95CHL1  H21C 9491   1.611   4.110   7.666 -0.8368  0.0935  1.1881
   95CHL1   C22 9492   1.405   4.306   7.780 -0.0421 -0.3212 -0.0061
   95CHL1  H22A 9493   1.327   4.371   7.733 -0.9155 -0.5681  1.0600
   95CHL1  H22B 9494   1.359   4.206   7.793  0.2474 -0.3934  0.4542
   95CHL1   C23 9495   1.433   4.371   7.922  0.5922  1.3055  0.5528
   95CHL1  H23A 9496   1.502   4.305   7.979 -1.1116 -0.9642  0.1500
   95CHL1  H23B 9497   1.470   4.475   7.911 -0.1941  1.4844 -0.6523
   95CHL1   C24 9498   1.311   4.366   8.019  0.4790 -0.5266  0.4829
   95CHL1  H24A 9499   1.229   4.416   7.962 -0.2737 -1.2150  0.9376
   95CHL1  H24B 9500   1.272   4.264   8.040  0.8343 -1.0322 -1.1379
   95CHL1   C25 9501   1.333   4.453   8.145  0.2055  0.1571 -0.0466
   95CHL1   H25 9502   1.357   4.560   8.125 -1.1902  0.1739 -1.9077
   95CHL1   C26 9503   1.196   4.466   8.213 -0.3153 -0.1592  0.1496
   95CHL1  H26A 9504   1.130   4.506   8.133  0.6788  2.5070  0.5739
   95CHL1  H26B 9505   1.166   4.373   8.266  0.1988 -0.9302 -0.8692
   95CHL1  H26C 9506   1.206   4.543   8.292 -2.0981 -1.2231  1.5055
   95CHL1   C27 9507   1.429   4.392   8.243  0.4528 -0.8409 -0.3452
   95CHL1  H27A 9508   1.420   4.281   8.239  0.5318 -0.9330  1.3871
   95CHL1  H27B 9509   1.534   4.408   8.211  0.2733 -0.2130 -0.6430
   95CHL1  H27C 9510   1.434   4.438   8.344  0.9428  1.5802 -1.3955
   96CHL1    C3 9511   2.474   3.421   6.696 -0.3644  0.1703  0.1306
   96CHL1    H3 9512   2.392   3.347   6.694  0.0669 -0.6333  4.1431
   96CHL1    O3 9513   2.530   3.452   6.573  0.3874  0.2390 -0.8452
   96CHL1   H3' 9514   2.460   3.434   6.510 -1.5690 -3.5312  1.9741
   96CHL1    C4 9515   2.413   3.550   6.746 -0.3480  0.3583  1.0422
   96CHL1   H4A 9516   2.484   3.636   6.748 -0.1359  0.3160 -1.3512
   96CHL1   H4B 9517   2.338   3.578   6.669  3.0770 -2.3724 -3.8949
   96CHL1    C5 9518   2.357   3.538   6.885 -0.2058  0.5150 -0.2985
   96CHL1    C6 9519   2.227   3.552   6.912 -0.0021  0.4295 -0.2074
   96CHL1    H6 9520   2.152   3.588   6.840 -0.9503  1.6404  1.3385
   96CHL1    C7 9521   2.172   3.548   7.050 -0.2104 -0.3990  0.3900
   96CHL1   H7A 9522   2.093   3.624   7.070 -0.6180 -1.5044  3.5359
   96CHL1   H7B 9523   2.121   3.451   7.070 -1.0933  0.2240  1.2633
   96CHL1    C8 9524   2.288   3.564   7.157 -0.1373 -0.2888 -0.7781
   96CHL1    H8 9525   2.326   3.667   7.149 -2.2588  0.6434  0.2530
   96CHL1   C14 9526   2.230   3.546   7.301  1.1778  0.5592 -0.2598
   96CHL1   H14 9527   2.193   3.442   7.294 -0.0860  1.0613 -1.3939
   96CHL1   C15 9528   2.096   3.615   7.341  0.3758 -0.1595 -0.6082
   96CHL1  H15A 9529   2.098   3.716   7.296 -3.3266 -0.0764 -0.9256
   96CHL1  H15B 9530   2.005   3.560   7.308  1.3025 -1.2992 -1.3086
   96CHL1   C16 9531   2.114   3.608   7.494  0.3665 -0.9196  0.1228
   96CHL1  H16A 9532   2.113   3.715   7.526  1.7332 -0.7083 -0.4532
   96CHL1  H16B 9533   2.028   3.560   7.544 -0.3617 -0.4190 -0.6141
   96CHL1   C17 9534   2.245   3.529   7.527 -0.5451 -0.3031  0.0060
   96CHL1   H17 9535   2.218   3.422   7.518  0.5916 -0.6080  0.0408
   96CHL1   C13 9536   2.334   3.557   7.411  0.8744 -0.7876  0.5993
   96CHL1   C18 9537   2.404   3.703   7.414  0.3571 -0.6756  0.2944
   96CHL1  H18A 9538   2.500   3.701   7.468  0.7830  1.7073 -0.2831
   96CHL1  H18B 9539   2.436   3.735   7.312  0.2391 -1.0537  0.1358
   96CHL1  H18C 9540   2.347   3.778   7.473  0.5831 -1.9794  2.2464
   96CHL1   C12 9541   2.450   3.452   7.390  0.4075  0.3923  0.2909
   96CHL1  H12A 9542   2.525   3.465   7.471 -0.2588 -1.1724  1.2135
   96CHL1  H12B 9543   2.411   3.348   7.383  1.2207  0.0308  0.9710
   96CHL1   C11 9544   2.508   3.479   7.251  0.0594 -0.5553  0.1217
   96CHL1  H11A 9545   2.565   3.575   7.249  0.8327 -1.0177 -1.3350
   96CHL1  H11B 9546   2.583   3.399   7.235 -1.2289 -2.0442  1.2651
   96CHL1    C9 9547   2.403   3.471   7.132  0.7320  0.0192  0.1704
   96CHL1    H9 9548   2.373   3.364   7.132  1.3976 -0.1760 -0.6360
   96CHL1   C10 9549   2.470   3.487   6.987 -0.5671 -0.1752 -0.3989
   96CHL1   C19 9550   2.571   3.601   7.003 -0.1981 -1.1488  0.4970
   96CHL1  H19A 9551   2.532   3.696   7.046 -1.9133 -1.0791 -1.1188
   96CHL1  H19B 9552   2.663   3.572   7.058  1.5128 -0.5952 -1.9149
   96CHL1  H19C 9553   2.619   3.619   6.905 -2.5753  0.6219 -0.4351
   96CHL1    C1 9554   2.541   3.361   6.934 -0.2145 -1.1706  0.1009
   96CHL1   H1A 9555   2.621   3.347   7.009 -0.3981 -1.1613  0.3008
   96CHL1   H1B 9556   2.464   3.283   6.947 -0.9172 -0.6113 -0.5735
   96CHL1    C2 9557   2.590   3.376   6.784  1.0891 -0.3949  0.3263
   96CHL1   H2A 9558   2.622   3.274   6.753  1.7151 -0.5775  1.5370
   96CHL1   H2B 9559   2.675   3.447   6.794 -1.1794  2.1691  3.1982
   96CHL1   C20 9560   2.316   3.558   7.663 -0.5826  0.1305  0.7149
   96CHL1   H20 9561   2.414   3.607   7.646 -1.1919  0.7998 -1.1130
   96CHL1   C21 9562   2.345   3.419   7.724  0.0391 -0.1898 -0.5788
   96CHL1  H21A 9563   2.251   3.360   7.719  0.4222 -1.2291  2.4086
   96CHL1  H21B 9564   2.385   3.426   7.828  1.7835  2.0578 -1.3111
   96CHL1  H21C 9565   2.416   3.359   7.664 -0.0965 -0.2662 -0.6627
   96CHL1   C22 9566   2.227   3.642   7.759 -0.0773 -0.4963 -0.3623
   96CHL1  H22A 9567   2.206   3.741   7.713 -0.7962 -0.5484 -0.1494
   96CHL1  H22B 9568   2.125   3.599   7.761 -0.8821  1.3340 -0.4432
   96CHL1   C23 9569   2.287   3.662   7.907 -0.0778 -0.1230  0.6878
   96CHL1  H23A 9570   2.303   3.569   7.965 -0.6166 -0.5934  0.0915
   96CHL1  H23B 9571   2.388   3.709   7.902 -0.2846  0.4950  1.9128
   96CHL1   C24 9572   2.187   3.759   7.986  0.0734 -0.7883  0.0741
   96CHL1  H24A 9573   2.190   3.848   7.919  1.4779 -1.3241 -0.6149
   96CHL1  H24B 9574   2.081   3.728   7.983 -0.4899  0.7382  2.2289
   96CHL1   C25 9575   2.225   3.797   8.134 -0.2473 -0.0525 -0.0691
   96CHL1   H25 9576   2.236   3.702   8.191 -1.2731 -0.8752 -1.1916
   96CHL1   C26 9577   2.348   3.893   8.130  0.9902  0.0262 -0.4342
   96CHL1  H26A 9578   2.386   3.900   8.234 -1.9046  0.5998  0.7054
   96CHL1  H26B 9579   2.431   3.840   8.079 -0.6642 -2.0916 -1.0673
   96CHL1  H26C 9580   2.316   3.994   8.095 -0.5880 -0.2013  0.2452
   96CHL1   C27 9581   2.094   3.864   8.181 -0.6451  0.0435  0.2758
   96CHL1  H27A 9582   2.063   3.957   8.129 -0.5563 -0.9648 -1.6442
   96CHL1  H27B 9583   2.008   3.796   8.164 -1.9367  2.1394 -2.2409
   96CHL1  H27C 9584   2.105   3.894   8.288 -0.3731 -0.1120  0.2939
   97OSM      N 9585   6.358   6.450  10.862  0.4192 -0.1117 -0.2101
   97OSM    C15 9586   6.377   6.537  10.745 -0.0549 -0.2404 -0.7320
   97OSM   H15A 9587   6.422   6.484  10.661  1.7953 -1.1913  0.7852
   97OSM   H15B 9588   6.439   6.619  10.776  0.8360 -1.4476  0.7827
   97OSM   H15C 9589   6.296   6.604  10.719 -0.9442 -0.7352  0.6850
   97OSM    C14 9590   6.481   6.368  10.879  0.0404  0.0071  0.3276
   97OSM   H14A 9591   6.466   6.301  10.962  1.7463 -2.0882 -0.9644
   97OSM   H14B 9592   6.578   6.414  10.882  0.1354  0.0382 -1.8264
   97OSM   H14C 9593   6.481   6.301  10.794 -0.0545 -0.9581  1.0747
   97OSM    C13 9594   6.354   6.534  10.984  0.2107 -0.3975  0.1829
   97OSM   H13A 9595   6.359   6.481  11.078  0.9246  0.0684  0.4101
   97OSM   H13B 9596   6.253   6.573  10.981 -0.0032 -0.7723  1.7226
   97OSM   H13C 9597   6.431   6.609  10.975  0.4332 -0.6223  0.2140
   97OSM    C12 9598   6.233   6.366  10.845 -0.3179  0.4817 -0.5970
   97OSM   H12A 9599   6.240   6.323  10.746  2.0765 -2.5256  0.7024
   97OSM   H12B 9600   6.149   6.432  10.859 -0.7548 -0.5456  2.2734
   97OSM    C11 9601   6.213   6.252  10.946  0.1809 -0.4552  0.7500
   97OSM   H11A 9602   6.108   6.225  10.922 -0.1934  3.0439 -2.3851
   97OSM   H11B 9603   6.219   6.287  11.051 -1.2502  0.0138  0.7047
   97OSM      P 9604   6.354   6.042  11.036  0.1454  0.1009  0.0594
   97OSM    O13 9605   6.437   6.104  11.141 -0.6041 -0.2219 -0.0432
   97OSM    O14 9606   6.235   5.961  11.071 -0.5090 -0.2115  0.5337
   97OSM    O11 9607   6.443   5.958  10.951 -0.3891  0.2819  0.1213
   97OSM    O12 9608   6.306   6.143  10.932  0.0726 -0.5394 -0.0666
   97OSM    C1S 9609   6.393   5.883  10.841 -0.7098  0.3349  0.4396
   97OSM    H1S 9610   6.290   5.847  10.861 -0.9699  1.4761  1.2918
   97OSM    H1T 9611   6.456   5.792  10.830  0.0001  0.9721 -1.0376
   97OSM     NF 9612   6.360   5.856  10.602  0.3489  0.3370 -0.0673
   97OSM    HNF 9613   6.423   5.791  10.559  2.2041  0.0683  2.7781
   97OSM    C2S 9614   6.413   5.950  10.702  0.4798  0.0827  0.0230
   97OSM    H2S 9615   6.348   6.041  10.698 -0.3436 -0.5157 -0.5820
   97OSM    C3S 9616   6.562   5.994  10.673  0.8305  0.2422  0.1743
   97OSM    H3S 9617   6.627   5.904  10.674 -1.7404 -1.8716 -3.0441
   97OSM     O3 9618   6.609   6.082  10.769  0.5997 -0.5258 -0.1428
   97OSM    HO3 9619   6.544   6.080  10.840 -2.9653  0.5495 -3.0731
   97OSM    C4S 9620   6.562   6.066  10.543  0.2520 -0.3744  0.0759
   97OSM    H4S 9621   6.517   6.167  10.544  1.1290  0.0341  0.9493
   97OSM    C5S 9622   6.614   6.025  10.431  0.4196  0.5085  0.3816
   97OSM    H5S 9623   6.654   5.922  10.432 -3.0066 -0.9521 -0.0351
   97OSM    C6S 9624   6.621   6.102  10.301  0.3317 -0.6737  0.3471
   97OSM    H6S 9625   6.720   6.101  10.250 -1.4902  1.3605 -3.7074
   97OSM    H6T 9626   6.602   6.211  10.314  2.8214  0.0123 -0.9961
   97OSM    C7S 9627   6.525   6.048  10.191 -0.3083 -0.7240  0.0230
   97OSM    H7S 9628   6.422   6.046  10.233  0.3438  2.7935  2.2841
   97OSM    H7T 9629   6.543   5.943  10.160  2.6924 -0.6817  1.2844
   97OSM    C8S 9630   6.520   6.152  10.079 -0.4600  0.2006 -0.3602
   97OSM    H8S 9631   6.613   6.163  10.019 -1.4334  2.7641 -1.5485
   97OSM    H8T 9632   6.515   6.255  10.121 -1.9359  0.4261 -1.0312
   97OSM    C9S 9633   6.415   6.116   9.964 -0.3764 -0.0435 -0.2831
   97OSM    H9S 9634   6.308   6.123   9.993 -0.4190  0.1321 -0.4764
   97OSM    H9T 9635   6.427   6.011   9.927  0.4641  0.1467 -0.5837
   97OSM   C10S 9636   6.445   6.205   9.841  0.1728 -0.2766 -0.0903
   97OSM   H10S 9637   6.553   6.204   9.815  0.4148 -1.5034  0.8378
   97OSM   H10T 9638   6.415   6.307   9.872 -1.8705 -0.8935  0.1332
   97OSM   C11S 9639   6.363   6.172   9.713 -0.5691 -0.1607 -0.4181
   97OSM   H11S 9640   6.295   6.258   9.702  1.0439  1.1958 -0.1760
   97OSM   H11T 9641   6.307   6.077   9.702  1.3903 -1.3794 -0.4197
   97OSM   C12S 9642   6.453   6.183   9.589  0.0057  0.6204 -0.0742
   97OSM   H12S 9643   6.526   6.099   9.596  1.1184  1.6722  1.4875
   97OSM   H12T 9644   6.512   6.277   9.595 -1.9364  1.9073 -0.2717
   97OSM   C13S 9645   6.379   6.188   9.457  0.2759  0.3480  0.3292
   97OSM   H13S 9646   6.290   6.254   9.465 -0.1889  0.0750 -1.8280
   97OSM   H13T 9647   6.345   6.085   9.436 -1.2950  1.1936 -1.6938
   97OSM   C14S 9648   6.460   6.232   9.334 -0.3197  0.0101 -0.1511
   97OSM   H14S 9649   6.539   6.158   9.308 -1.0331  0.3580 -3.9023
   97OSM   H14T 9650   6.523   6.322   9.347 -0.1274  0.3926 -3.0096
   97OSM   C15S 9651   6.374   6.239   9.204  0.4419  0.2804 -0.0746
   97OSM   H15S 9652   6.309   6.329   9.207 -1.5693 -0.9211 -3.3145
   97OSM   H15T 9653   6.301   6.156   9.194  1.2748 -0.2501 -2.2291
   97OSM   C16S 9654   6.461   6.216   9.069 -0.6376 -0.2263 -0.0232
   97OSM   H16S 9655   6.532   6.134   9.091  1.1256  1.2737  0.0577
   97OSM   H16T 9656   6.524   6.306   9.057 -0.2417 -0.3629  0.9829
   97OSM   C17S 9657   6.393   6.191   8.929 -0.0663  0.1184 -0.4127
   97OSM   H17S 9658   6.330   6.102   8.948 -4.1830  2.5503 -1.2490
   97OSM   H17T 9659   6.468   6.166   8.850  0.1057  2.8779 -1.2272
   97OSM   C18S 9660   6.282   6.280   8.868 -0.8308  0.0014 -0.3249
   97OSM   H18S 9661   6.202   6.311   8.938 -1.4792 -0.2276 -0.9515
   97OSM   H18T 9662   6.229   6.211   8.798  0.0748 -1.3810  0.2958
   97OSM   H18U 9663   6.324   6.371   8.819  1.2786 -0.5455  0.3564
   97OSM    C1F 9664   6.234   5.844  10.575  0.4296 -0.5995 -0.0144
   97OSM     OF 9665   6.153   5.913  10.638  0.4209  0.3478  0.4246
   97OSM    C2F 9666   6.183   5.748  10.477 -0.5023  0.1904  0.4495
   97OSM    H2F 9667   6.072   5.744  10.487 -0.3798  0.1871  2.3066
   97OSM    H2G 9668   6.229   5.652  10.507  1.1612  1.1022  0.9727
   97OSM    C3F 9669   6.245   5.792  10.343 -0.4966 -0.6647  0.5254
   97OSM    H3F 9670   6.356   5.793  10.346 -0.2346  1.1153 -3.4527
   97OSM    H3G 9671   6.214   5.898  10.326 -1.4005 -0.9630  0.2655
   97OSM    C4F 9672   6.187   5.718  10.225 -0.6433 -0.7712 -0.3541
   97OSM    H4F 9673   6.079   5.699  10.241 -1.5253  0.6473 -3.7984
   97OSM    H4G 9674   6.224   5.613  10.220 -0.4096 -0.6656 -0.9460
   97OSM    C5F 9675   6.203   5.800  10.094  0.6082  0.5399 -0.2196
   97OSM    H5F 9676   6.309   5.829  10.080  0.8441  0.3051  0.9854
   97OSM    H5G 9677   6.151   5.898  10.090  0.1823  0.2977 -0.8435
   97OSM    C6F 9678   6.167   5.713   9.973 -0.3253 -0.0402 -0.0274
   97OSM    H6F 9679   6.065   5.669   9.970 -0.2188 -0.2478 -1.8880
   97OSM    H6G 9680   6.246   5.635   9.962  0.9523  1.3700 -1.3604
   97OSM    C7F 9681   6.169   5.793   9.841  0.1935 -0.6891 -0.1587
   97OSM    H7F 9682   6.265   5.847   9.826  0.8460 -2.2332 -1.9604
   97OSM    H7G 9683   6.089   5.871   9.849  0.0876 -0.7138 -0.9387
   97OSM    C8F 9684   6.136   5.705   9.723  0.0092 -0.0613  0.9839
   97OSM    H8F 9685   6.046   5.649   9.759  0.6145 -1.6728  0.0872
   97OSM    H8G 9686   6.218   5.631   9.707  1.1385  0.8973  2.1178
   97OSM    C9F 9687   6.106   5.789   9.600  0.1939 -0.1741 -0.6632
   97OSM    H9F 9688   5.999   5.814   9.596  0.3266  1.1654  1.7616
   97OSM   C10F 9689   6.195   5.835   9.509 -0.4107  0.8617 -0.0017
   97OSM   H10F 9690   6.150   5.882   9.421 -2.0393 -0.2399  0.2037
   97OSM   C11F 9691   6.346   5.823   9.508  0.8410  0.2941  0.0448
   97OSM   H11F 9692   6.377   5.742   9.577  0.5550 -0.6918 -0.9591
   97OSM   H11G 9693   6.386   5.917   9.551  0.7400  0.2885  0.1531
   97OSM   C12F 9694   6.392   5.788   9.370 -0.2294  0.7089 -0.9206
   97OSM   H12F 9695   6.328   5.826   9.288 -0.3738 -0.1777 -1.2241
   97OSM   H12G 9696   6.384   5.680   9.348 -0.2561  0.5587 -0.1923
   97OSM   C13F 9697   6.535   5.830   9.343 -1.2713  0.6778  0.0205
   97OSM   H13F 9698   6.615   5.774   9.395 -2.3232 -1.1006 -0.1996
   97OSM   H13G 9699   6.542   5.938   9.366 -0.2171  0.6354 -0.0398
   97OSM   C14F 9700   6.559   5.827   9.187 -0.7726  0.2658  0.4241
   97OSM   H14F 9701   6.472   5.884   9.150 -1.6643 -1.5799 -0.4756
   97OSM   H14G 9702   6.556   5.722   9.151  1.6275 -0.5760  2.3308
   97OSM   C15F 9703   6.693   5.886   9.140  0.1116  0.0885  0.2481
   97OSM   H15F 9704   6.770   5.816   9.178 -0.0732 -0.8512 -1.0455
   97OSM   H15G 9705   6.700   5.988   9.185 -2.8590 -0.0196  1.1300
   97OSM   C16F 9706   6.703   5.893   8.984  0.9318  0.0329  0.1925
   97OSM   H16F 9707   6.631   5.974   8.963  0.9214 -0.3001 -1.1197
   97OSM   H16G 9708   6.676   5.796   8.937  0.9763  0.0721  0.0856
   97OSM   C17F 9709   6.843   5.944   8.942 -0.0174  0.0427 -0.3968
   97OSM   H17F 9710   6.921   5.875   8.981  0.1000 -0.1401 -0.9400
   97OSM   H17G 9711   6.860   6.049   8.972  1.3082  0.4642 -2.4235
   97OSM   C18F 9712   6.850   5.951   8.793  0.8805 -0.9369  0.7855
   97OSM   H18F 9713   6.815   6.051   8.759  2.1901 -0.0653  1.8812
   97OSM   H18G 9714   6.801   5.864   8.744  0.6635 -0.8648  0.8708
   97OSM   H18H 9715   6.949   5.938   8.745  0.9983  1.8258  0.0871
   98OSM      N 9716   6.765   4.663  11.091  0.1153  0.4702  0.0275
   98OSM    C15 9717   6.671   4.759  11.159  0.0895  0.3901 -0.5228
   98OSM   H15A 9718   6.606   4.710  11.229 -0.2207  2.4108  0.6890
   98OSM   H15B 9719   6.612   4.817  11.089 -0.0795 -1.1448 -1.6982
   98OSM   H15C 9720   6.727   4.837  11.208  0.5555  0.6863 -1.4824
   98OSM    C14 9721   6.858   4.739  11.000  0.0563  0.3503  0.2180
   98OSM   H14A 9722   6.803   4.792  10.924 -1.4594  1.8982  2.2739
   98OSM   H14B 9723   6.916   4.670  10.941 -1.9938 -1.7063  0.4611
   98OSM   H14C 9724   6.931   4.799  11.053  0.5568 -0.9630  1.0505
   98OSM    C13 9725   6.846   4.584  11.186  0.1657 -0.0547  0.2323
   98OSM   H13A 9726   6.911   4.504  11.153  0.9303  1.0389 -1.0203
   98OSM   H13B 9727   6.779   4.536  11.255 -2.1369  1.1199 -1.0885
   98OSM   H13C 9728   6.915   4.646  11.243 -0.4747  1.7964 -0.9232
   98OSM    C12 9729   6.675   4.571  11.001  0.4201 -0.1581  0.6262
   98OSM   H12A 9730   6.619   4.506  11.067 -1.2329  0.3131 -0.2462
   98OSM   H12B 9731   6.737   4.501  10.949 -3.0969 -3.0012 -0.1835
   98OSM    C11 9732   6.589   4.647  10.886  0.1793  0.1843 -0.2377
   98OSM   H11A 9733   6.547   4.572  10.816 -0.5223  0.0104  0.3660
   98OSM   H11B 9734   6.655   4.716  10.828 -1.6474  1.8166 -0.4922
   98OSM      P 9735   6.342   4.656  10.970 -0.4527 -0.6530 -0.0841
   98OSM    O13 9736   6.362   4.517  11.014 -0.6045 -0.6389  0.7501
   98OSM    O14 9737   6.265   4.733  11.069  0.2361 -0.3812 -0.2269
   98OSM    O11 9738   6.261   4.655  10.839  0.3020 -0.3215 -0.1021
   98OSM    O12 9739   6.483   4.727  10.937  0.6831  0.3391  0.2550
   98OSM    C1S 9740   6.221   4.779  10.781 -0.0386 -0.3988  0.7619
   98OSM    H1S 9741   6.314   4.838  10.768 -0.2677 -0.1199  0.3948
   98OSM    H1T 9742   6.156   4.838  10.848  2.0276 -0.2332  2.7497
   98OSM     NF 9743   6.083   4.880  10.607  0.2116 -0.0235 -0.2849
   98OSM    HNF 9744   5.985   4.865  10.601  0.2950 -1.5795  1.5587
   98OSM    C2S 9745   6.155   4.759  10.642 -0.4487 -0.1291 -0.1182
   98OSM    H2S 9746   6.229   4.749  10.559 -0.9838 -0.5940 -0.5441
   98OSM    C3S 9747   6.064   4.630  10.626  0.1011  0.7594  0.0297
   98OSM    H3S 9748   5.987   4.627  10.706  0.2092  0.6156  0.1308
   98OSM     O3 9749   6.138   4.507  10.649  0.3520 -0.5068 -0.1552
   98OSM    HO3 9750   6.212   4.530  10.705  0.2685 -0.6291  0.0037
   98OSM    C4S 9751   5.996   4.635  10.494  0.6345  0.8922 -1.0752
   98OSM    H4S 9752   5.896   4.681  10.484  0.3954  0.4801 -0.6013
   98OSM    C5S 9753   6.045   4.589  10.376 -0.5499  0.1492  0.0304
   98OSM    H5S 9754   6.142   4.538  10.383 -0.4947  0.4325  1.9602
   98OSM    C6S 9755   5.978   4.597  10.236  0.1427 -0.5941  0.0943
   98OSM    H6S 9756   5.985   4.493  10.198 -1.4703 -1.3150  1.6106
   98OSM    H6T 9757   6.036   4.659  10.165  0.0113 -1.9617 -1.2450
   98OSM    C7S 9758   5.823   4.620  10.243  0.1902 -0.2235  0.3425
   98OSM    H7S 9759   5.789   4.725  10.260  1.1781  0.4358 -1.4891
   98OSM    H7T 9760   5.767   4.564  10.320 -2.3717  1.3939 -0.2017
   98OSM    C8S 9761   5.749   4.584  10.111  0.7069  0.0884  0.2748
   98OSM    H8S 9762   5.805   4.610  10.018  0.2619 -1.4299 -0.4476
   98OSM    H8T 9763   5.647   4.627  10.107 -1.2100 -3.7003  2.8278
   98OSM    C9S 9764   5.725   4.424  10.086  0.1588 -0.8939 -0.7900
   98OSM    H9S 9765   5.685   4.391  10.184  1.7800  1.2097  0.6965
   98OSM    H9T 9766   5.825   4.380  10.064  1.4356  2.3407 -2.0757
   98OSM   C10S 9767   5.637   4.394   9.970  0.7005 -0.0699  0.8357
   98OSM   H10S 9768   5.532   4.424   9.990  0.1183 -0.9961 -0.5890
   98OSM   H10T 9769   5.631   4.284   9.950  1.3854  0.3840 -2.5152
   98OSM   C11S 9770   5.679   4.459   9.832 -0.0083  0.7315 -1.0256
   98OSM   H11S 9771   5.782   4.423   9.811 -0.3721 -2.3211  1.5762
   98OSM   H11T 9772   5.670   4.569   9.838 -1.0381  0.5826  1.7836
   98OSM   C12S 9773   5.590   4.427   9.714  0.5001  0.4481  0.5521
   98OSM   H12S 9774   5.488   4.458   9.746  0.1818 -1.9479  2.1293
   98OSM   H12T 9775   5.589   4.317   9.694  0.9180  0.6880 -0.9440
   98OSM   C13S 9776   5.619   4.496   9.577 -0.0087 -0.3698 -0.0586
   98OSM   H13S 9777   5.600   4.605   9.583 -1.1825 -0.6491  2.6902
   98OSM   H13T 9778   5.560   4.459   9.491  0.8846 -0.1124 -0.7995
   98OSM   C14S 9779   5.760   4.464   9.522  0.3571  0.1635 -0.5555
   98OSM   H14S 9780   5.796   4.361   9.545  0.3682  0.7683  2.6504
   98OSM   H14T 9781   5.829   4.539   9.566 -1.4014  1.0647  0.8282
   98OSM   C15S 9782   5.772   4.478   9.359 -0.4794 -0.0926  0.4387
   98OSM   H15S 9783   5.736   4.580   9.336 -0.4181 -0.0093  0.7175
   98OSM   H15T 9784   5.707   4.401   9.312 -1.4298  0.7042  0.4237
   98OSM   C16S 9785   5.914   4.461   9.303 -0.5658  0.3475  0.0582
   98OSM   H16S 9786   5.940   4.353   9.313  0.8122  0.7760  1.3739
   98OSM   H16T 9787   5.992   4.518   9.357 -1.0006  1.9162 -0.9189
   98OSM   C17S 9788   5.952   4.501   9.156  0.0949 -0.2680 -0.5182
   98OSM   H17S 9789   5.877   4.462   9.084  0.7725 -0.4689 -1.1247
   98OSM   H17T 9790   6.048   4.452   9.128  1.1249  0.9484  0.7823
   98OSM   C18S 9791   5.966   4.651   9.130 -0.0555  0.1584  0.5540
   98OSM   H18S 9792   5.870   4.707   9.132  0.1531  0.5296  2.3784
   98OSM   H18T 9793   6.013   4.665   9.031  1.3827 -1.7814  0.8970
   98OSM   H18U 9794   6.039   4.703   9.196  0.4945  0.6642 -0.4291
   98OSM    C1F 9795   6.148   4.984  10.561 -0.2352  0.1547  0.0466
   98OSM     OF 9796   6.268   4.982  10.544  0.4746 -0.1158  0.1669
   98OSM    C2F 9797   6.072   5.110  10.540  0.2477 -0.6859 -0.2989
   98OSM    H2F 9798   6.080   5.174  10.630  0.8258 -0.2937 -0.6199
   98OSM    H2G 9799   5.965   5.089  10.518 -0.6360  1.9913  0.9966
   98OSM    C3F 9800   6.130   5.188  10.421  0.2257  0.1497 -0.0653
   98OSM    H3F 9801   6.237   5.214  10.437  0.1721  0.3192  0.0308
   98OSM    H3G 9802   6.074   5.285  10.419  0.8184  0.4934 -0.1418
   98OSM    C4F 9803   6.121   5.126  10.278 -0.3055  0.4671 -0.6821
   98OSM    H4F 9804   6.167   5.025  10.288  1.2859  1.2923  1.0074
   98OSM    H4G 9805   6.181   5.187  10.207  1.5815 -0.5935 -0.0879
   98OSM    C5F 9806   5.980   5.108  10.217 -0.5836 -0.1837 -0.1575
   98OSM    H5F 9807   5.933   5.208  10.217  0.7893  0.5263  1.9369
   98OSM    H5G 9808   5.924   5.037  10.281  0.8545  0.3092  1.7301
   98OSM    C6F 9809   5.974   5.051  10.075 -0.2104  0.4476 -0.1814
   98OSM    H6F 9810   6.043   4.965  10.070 -1.8491 -0.8788 -0.9288
   98OSM    H6G 9811   6.020   5.125  10.005 -1.0692  0.9018 -0.2807
   98OSM    C7F 9812   5.833   4.996  10.036  0.3448 -0.3816 -0.0437
   98OSM    H7F 9813   5.766   5.084  10.034 -0.4876 -0.8833  2.2654
   98OSM    H7G 9814   5.799   4.923  10.112  0.1400 -2.3240 -1.9086
   98OSM    C8F 9815   5.817   4.946   9.892  0.8442 -0.3453 -0.0172
   98OSM    H8F 9816   5.869   4.848   9.894  1.5735  0.0094 -0.8794
   98OSM    H8G 9817   5.862   5.012   9.815  0.3724  1.4066  1.1579
   98OSM    C9F 9818   5.671   4.917   9.866 -0.0558 -0.2324  0.0753
   98OSM    H9F 9819   5.630   4.850   9.943  0.3628 -0.6064 -0.0225
   98OSM   C10F 9820   5.601   4.981   9.771  0.3139 -0.7162  0.3378
   98OSM   H10F 9821   5.501   4.942   9.745  0.1038  0.8054 -1.3598
   98OSM   C11F 9822   5.644   5.107   9.686  0.3811 -0.0611  0.6214
   98OSM   H11F 9823   5.755   5.107   9.683  0.3993 -1.6796 -0.5307
   98OSM   H11G 9824   5.616   5.201   9.738 -1.8573 -0.2540 -0.1269
   98OSM   C12F 9825   5.590   5.098   9.546 -0.6143 -0.0425 -0.6149
   98OSM   H12F 9826   5.606   5.200   9.506  2.1042 -0.8776 -1.8684
   98OSM   H12G 9827   5.487   5.057   9.549 -0.6035 -0.0049  0.9302
   98OSM   C13F 9828   5.677   5.003   9.463 -0.1318 -0.1896 -0.6113
   98OSM   H13F 9829   5.651   4.904   9.506 -1.9216  0.6192  0.2567
   98OSM   H13G 9830   5.788   5.013   9.469  0.3810 -2.4452 -3.5025
   98OSM   C14F 9831   5.643   5.013   9.317 -0.4169 -0.3892  0.6262
   98OSM   H14F 9832   5.629   5.120   9.292  1.3374 -0.2028  0.3106
   98OSM   H14G 9833   5.548   4.956   9.310 -1.1063  0.8215 -0.3422
   98OSM   C15F 9834   5.740   4.942   9.224 -0.8423  0.6310 -0.8621
   98OSM   H15F 9835   5.714   4.833   9.226  0.6357  0.2635 -0.8514
   98OSM   H15G 9836   5.845   4.951   9.257  0.4970 -3.8696 -2.9824
   98OSM   C16F 9837   5.725   4.992   9.079  0.3486 -0.3156 -0.1922
   98OSM   H16F 9838   5.745   5.101   9.081 -0.8377 -0.0905  0.1804
   98OSM   H16G 9839   5.619   4.974   9.052 -0.1097  1.2840  0.3910
   98OSM   C17F 9840   5.825   4.936   8.974 -0.0310 -0.4632  0.1711
   98OSM   H17F 9841   5.795   4.949   8.867  0.6695 -0.7220 -0.0670
   98OSM   H17G 9842   5.827   4.825   8.968 -0.6432 -0.4829  0.2621
   98OSM   C18F 9843   5.966   5.010   8.984  0.6476  0.6980  0.5383
   98OSM   H18F 9844   6.016   4.967   9.074  0.0338 -1.4612 -0.1143
   98OSM   H18G 9845   5.957   5.121   8.990 -0.8561  0.6314 -0.1131
   98OSM   H18H 9846   6.014   4.989   8.886 -0.7630 -0.4511  0.0631
   99OSM      N 9847   3.344   3.720  11.240 -0.7799  0.1416 -0.5745
   99OSM    C15 9848   3.397   3.798  11.362 -0.7258  0.6106  0.0640
   99OSM   H15A 9849   3.398   3.902  11.333 -2.2327  0.7928  0.6044
   99OSM   H15B 9850   3.498   3.766  11.385  0.0248  1.8199 -1.4134
   99OSM   H15C 9851   3.325   3.798  11.442 -0.7782  4.0909  0.1586
   99OSM    C14 9852   3.323   3.574  11.281  0.4105 -0.0891 -0.2468
   99OSM   H14A 9853   3.261   3.563  11.368 -0.2382 -2.1916 -0.9153
   99OSM   H14B 9854   3.422   3.539  11.307 -0.2029 -2.9512 -1.4181
   99OSM   H14C 9855   3.290   3.511  11.200 -2.2797  1.7843 -0.7221
   99OSM    C13 9856   3.209   3.768  11.205 -0.2705 -0.2408 -0.4085
   99OSM   H13A 9857   3.139   3.754  11.286 -1.6806  0.1312 -1.5194
   99OSM   H13B 9858   3.177   3.714  11.116 -0.9626  0.9617 -0.9152
   99OSM   H13C 9859   3.213   3.867  11.162  3.3652 -0.0852 -0.0139
   99OSM    C12 9860   3.440   3.737  11.125  0.3560  0.1652 -0.6413
   99OSM   H12A 9861   3.524   3.675  11.149  1.1584  1.3928 -0.1916
   99OSM   H12B 9862   3.467   3.841  11.124 -0.9054  0.5872  1.6409
   99OSM    C11 9863   3.388   3.720  10.978 -0.1223  0.1595 -0.1056
   99OSM   H11A 9864   3.469   3.736  10.904 -0.0467 -0.6999 -0.2226
   99OSM   H11B 9865   3.313   3.799  10.954  1.4348  1.7901  0.2080
   99OSM      P 9866   3.199   3.560  10.897  0.9602  0.1093  0.4427
   99OSM    O13 9867   3.163   3.417  10.906 -0.4858  0.2347  0.2852
   99OSM    O14 9868   3.103   3.659  10.949 -0.4747  0.9710 -0.2814
   99OSM    O11 9869   3.224   3.599  10.748 -0.3809  0.3193  0.4497
   99OSM    O12 9870   3.340   3.585  10.960  0.1784 -0.3270 -0.6605
   99OSM    C1S 9871   3.333   3.538  10.670  0.1851  0.1200  0.4570
   99OSM    H1S 9872   3.342   3.431  10.698  0.3827 -0.4785 -1.7849
   99OSM    H1T 9873   3.425   3.587  10.709  0.1877  0.1364  0.4310
   99OSM     NF 9874   3.406   3.473  10.433 -0.3358 -0.4668 -0.0544
   99OSM    HNF 9875   3.484   3.520  10.392 -1.0585  2.0569  1.2525
   99OSM    C2S 9876   3.312   3.551  10.519  0.0347  0.1497  0.4153
   99OSM    H2S 9877   3.213   3.507  10.494  0.7862 -0.4357 -1.7300
   99OSM    C3S 9878   3.316   3.702  10.472  0.5971  0.3990 -0.4004
   99OSM    H3S 9879   3.423   3.727  10.456  0.3501  2.1018  0.3742
   99OSM     O3 9880   3.264   3.788  10.574 -0.4751  0.2531  0.5471
   99OSM    HO3 9881   3.249   3.725  10.645  0.1085 -0.3761  0.1162
   99OSM    C4S 9882   3.247   3.723  10.340 -0.3350 -0.3319  0.6010
   99OSM    H4S 9883   3.311   3.691  10.256 -0.0231 -1.8531  1.3920
   99OSM    C5S 9884   3.120   3.759  10.313  0.1569 -0.0057  0.2032
   99OSM    H5S 9885   3.058   3.781  10.401  0.0825  4.2067 -0.6944
   99OSM    C6S 9886   3.046   3.784  10.183 -0.4295 -0.1363 -0.4925
   99OSM    H6S 9887   3.012   3.889  10.179  0.7147  0.4459  2.3262
   99OSM    H6T 9888   2.953   3.725  10.167 -0.8649  0.9644 -2.2055
   99OSM    C7S 9889   3.122   3.746  10.054  0.2522 -0.0353 -0.4571
   99OSM    H7S 9890   3.150   3.639  10.040 -2.2915 -1.0986  1.6531
   99OSM    H7T 9891   3.216   3.805  10.056  0.1041  0.2680 -1.6075
   99OSM    C8S 9892   3.040   3.787   9.928 -0.5741  0.1652  0.5827
   99OSM    H8S 9893   3.007   3.892   9.939  1.2225  0.9065 -0.5353
   99OSM    H8T 9894   2.959   3.712   9.923  0.3907 -0.8368 -1.9738
   99OSM    C9S 9895   3.121   3.799   9.796 -0.2047 -0.2671 -0.0865
   99OSM    H9S 9896   3.132   3.701   9.745 -1.1034  0.0980 -1.0296
   99OSM    H9T 9897   3.222   3.830   9.830 -0.0986 -0.9186  0.2072
   99OSM   C10S 9898   3.073   3.908   9.707  0.3030 -0.2029 -0.2966
   99OSM   H10S 9899   3.068   4.003   9.764 -2.0159 -0.5112  0.1263
   99OSM   H10T 9900   2.969   3.876   9.683  0.2237  0.4490 -0.8502
   99OSM   C11S 9901   3.152   3.926   9.574  0.4563 -0.4811 -0.3153
   99OSM   H11S 9902   3.102   3.997   9.504 -0.8320  0.4980  1.5100
   99OSM   H11T 9903   3.153   3.826   9.527 -1.4622  0.5561 -2.7755
   99OSM   C12S 9904   3.299   3.964   9.589 -0.2843  0.6237 -0.4844
   99OSM   H12S 9905   3.299   4.074   9.605 -1.0402  0.4789  0.6782
   99OSM   H12T 9906   3.343   3.924   9.683  0.1688  1.4870 -0.3176
   99OSM   C13S 9907   3.380   3.920   9.472 -0.7918  0.2441 -0.2808
   99OSM   H13S 9908   3.407   3.812   9.469 -0.2399  0.3821 -0.4757
   99OSM   H13T 9909   3.472   3.983   9.474 -0.9202  0.4141  0.9753
   99OSM   C14S 9910   3.324   3.936   9.327  0.2741  0.0989 -0.4482
   99OSM   H14S 9911   3.267   4.031   9.320 -1.1577 -0.6255  0.7054
   99OSM   H14T 9912   3.250   3.855   9.313  0.0319  0.1333  0.5667
   99OSM   C15S 9913   3.430   3.917   9.216 -0.2251  0.2096  0.2853
   99OSM   H15S 9914   3.495   3.834   9.251 -1.2738  0.0379  1.9352
   99OSM   H15T 9915   3.511   3.991   9.206 -0.5766  0.3167 -3.0840
   99OSM   C16S 9916   3.383   3.873   9.079  0.6760 -0.0078 -0.0559
   99OSM   H16S 9917   3.331   3.777   9.100  1.8468 -0.2143  2.3624
   99OSM   H16T 9918   3.467   3.849   9.010  0.2342 -3.4822  0.4268
   99OSM   C17S 9919   3.290   3.966   8.994 -0.4327  0.7528  0.2565
   99OSM   H17S 9920   3.347   4.052   8.952 -1.3359  1.0432 -0.4012
   99OSM   H17T 9921   3.212   3.998   9.065 -1.9073 -1.0098 -0.4885
   99OSM   C18S 9922   3.210   3.887   8.879  0.0571  0.2971 -1.0138
   99OSM   H18S 9923   3.161   3.794   8.913  1.5098  0.1385  0.8228
   99OSM   H18T 9924   3.275   3.855   8.794  0.0133 -0.2247 -0.8499
   99OSM   H18U 9925   3.140   3.965   8.842 -0.7883  1.1324  2.0784
   99OSM    C1F 9926   3.390   3.346  10.426  0.1509  1.4223  0.3982
   99OSM     OF 9927   3.304   3.283  10.497 -0.3695 -0.3772  0.5791
   99OSM    C2F 9928   3.491   3.270  10.340  0.4873 -0.0965 -0.3456
   99OSM    H2F 9929   3.562   3.235  10.418  1.1036  0.6334 -0.5668
   99OSM    H2G 9930   3.553   3.340  10.280  2.1626 -0.8132  0.4885
   99OSM    C3F 9931   3.426   3.157  10.253  0.4816 -0.2797  0.0885
   99OSM    H3F 9932   3.506   3.087  10.224  0.8262 -0.3595  1.1905
   99OSM    H3G 9933   3.362   3.090  10.314 -1.1298  0.6953 -0.4382
   99OSM    C4F 9934   3.331   3.191  10.136  0.0616 -0.3534 -0.0899
   99OSM    H4F 9935   3.233   3.230  10.169 -0.4177 -1.4172 -0.2397
   99OSM    H4G 9936   3.310   3.096  10.083  0.7550 -1.3556  1.3431
   99OSM    C5F 9937   3.395   3.283  10.030 -0.3365 -0.2534 -0.4084
   99OSM    H5F 9938   3.489   3.232  10.000 -0.4982  0.1770 -1.7300
   99OSM    H5G 9939   3.434   3.381  10.065 -1.2537  0.7679 -2.0684
   99OSM    C6F 9940   3.308   3.298   9.907 -0.0733  0.1963  0.4141
   99OSM    H6F 9941   3.214   3.342   9.947 -1.5155 -1.0393 -1.3900
   99OSM    H6G 9942   3.300   3.199   9.855  1.4002 -0.5271  1.5091
   99OSM    C7F 9943   3.356   3.408   9.809  0.2383  0.4296  0.0392
   99OSM    H7F 9944   3.467   3.405   9.808  0.4584  3.8957 -2.2001
   99OSM    H7G 9945   3.332   3.508   9.852  2.1467  0.3499  1.3931
   99OSM    C8F 9946   3.299   3.405   9.664 -0.6451  0.0179  0.2318
   99OSM    H8F 9947   3.196   3.447   9.671  0.5054  2.9561  0.9581
   99OSM    H8G 9948   3.299   3.298   9.633 -2.3825  0.8719 -3.2875
   99OSM    C9F 9949   3.375   3.501   9.575 -0.0205 -0.0546  0.4207
   99OSM    H9F 9950   3.413   3.587   9.632 -0.9924 -0.2852  1.4535
   99OSM   C10F 9951   3.398   3.497   9.441  0.4640 -0.0367  0.2540
   99OSM   H10F 9952   3.470   3.573   9.406  0.1350 -0.4549 -1.4139
   99OSM   C11F 9953   3.355   3.385   9.359  0.3090  0.0921  0.9296
   99OSM   H11F 9954   3.252   3.352   9.384  0.4079 -1.8815 -0.9370
   99OSM   H11G 9955   3.424   3.300   9.373 -0.1598 -0.1289  2.0025
   99OSM   C12F 9956   3.362   3.420   9.207  0.3740 -0.1113  0.1910
   99OSM   H12F 9957   3.312   3.519   9.202 -1.4392 -0.8440  2.3731
   99OSM   H12G 9958   3.290   3.356   9.151 -1.3789  2.1687 -0.2916
   99OSM   C13F 9959   3.503   3.441   9.148  0.6116  0.8755 -0.8099
   99OSM   H13F 9960   3.552   3.342   9.147 -2.5748 -0.9019  1.4577
   99OSM   H13G 9961   3.563   3.517   9.203 -0.3692  1.1379 -0.0648
   99OSM   C14F 9962   3.490   3.481   9.003 -0.0508 -0.3543 -0.1934
   99OSM   H14F 9963   3.425   3.571   9.001 -0.8406 -0.9128 -0.1594
   99OSM   H14G 9964   3.449   3.396   8.943 -1.7208 -0.0083  0.3845
   99OSM   C15F 9965   3.617   3.551   8.958  0.0744 -0.3293 -0.1125
   99OSM   H15F 9966   3.707   3.495   8.990  1.1934  0.9514 -0.9039
   99OSM   H15G 9967   3.627   3.642   9.022  1.3451  0.3135 -1.1622
   99OSM   C16F 9968   3.610   3.572   8.805  0.6127 -0.1618  0.0163
   99OSM   H16F 9969   3.611   3.476   8.750  0.8809  0.2075 -0.6361
   99OSM   H16G 9970   3.706   3.613   8.768  1.1373 -2.4326 -1.3163
   99OSM   C17F 9971   3.488   3.656   8.761  0.7750  0.2658 -0.4873
   99OSM   H17F 9972   3.485   3.749   8.822 -2.3561  0.6171 -0.9979
   99OSM   H17G 9973   3.392   3.602   8.776  0.0052  1.6638 -0.1978
   99OSM   C18F 9974   3.492   3.699   8.621 -0.0615  0.0599 -0.2225
   99OSM   H18F 9975   3.465   3.618   8.549 -2.1324  1.7172 -1.4354
   99OSM   H18G 9976   3.592   3.741   8.601  1.0547 -2.6285 -0.7884
   99OSM   H18H 9977   3.419   3.781   8.603  1.3977  1.2314 -0.9641
  100OSM      N 9978   2.930   0.532  10.692  0.1834 -0.2481  0.4559
  100OSM    C15 9979   3.019   0.438  10.765 -0.3352  0.5673 -0.1005
  100OSM   H15A 9980   2.976   0.342  10.791  1.1786 -0.0682  0.1336
  100OSM   H15B 9981   3.061   0.484  10.853  0.8693 -0.0098 -0.3495
  100OSM   H15C 9982   3.090   0.398  10.694  0.8575 -1.7762  2.2119
  100OSM    C14 9983   2.806   0.562  10.769  0.1425 -0.1827  0.0010
  100OSM   H14A 9984   2.823   0.641  10.841  0.7303 -0.9063  0.6882
  100OSM   H14B 9985   2.768   0.468  10.806  0.9565 -1.6156 -2.6063
  100OSM   H14C 9986   2.730   0.610  10.709 -0.2600  0.8653  1.2921
  100OSM    C13 9987   3.007   0.661  10.670  0.4667 -0.0092  0.1864
  100OSM   H13A 9988   2.949   0.719  10.600  0.4096  0.5301  0.6724
  100OSM   H13B 9989   3.104   0.653  10.624  0.1857  1.3139 -0.6632
  100OSM   H13C 9990   3.016   0.711  10.766 -0.5542 -0.1493  0.3656
  100OSM    C12 9991   2.896   0.469  10.555 -0.0458 -0.5952 -0.3165
  100OSM   H12A 9992   2.989   0.437  10.512  0.9733  1.3357  0.3179
  100OSM   H12B 9993   2.851   0.549  10.497  0.7322 -0.0769 -0.2252
  100OSM    C11 9994   2.808   0.339  10.549  1.0299 -0.1407  0.2872
  100OSM   H11A 9995   2.865   0.265  10.609 -0.5809 -1.0462  0.7862
  100OSM   H11B 9996   2.804   0.329  10.438 -0.2221  2.3819  0.0339
  100OSM      P 9997   2.586   0.237  10.656 -0.2836 -0.3382 -0.3807
  100OSM    O13 9998   2.671   0.153  10.743  0.3755 -0.2897 -0.6773
  100OSM    O14 9999   2.452   0.275  10.701  0.2579 -0.4208 -0.4499
  100OSM    O1110000   2.554   0.150  10.521 -0.2271 -0.0648  0.1619
  100OSM    O1210001   2.670   0.360  10.599  0.2109 -1.2234  0.5212
  100OSM    C1S10002   2.515   0.216  10.406  0.2528 -0.4308 -0.6878
  100OSM    H1S10003   2.579   0.305  10.385  0.3524 -0.8182 -2.0857
  100OSM    H1T10004   2.413   0.259  10.412 -0.4951 -2.2863  3.7855
  100OSM     NF10005   2.469   0.186  10.167 -0.3962 -0.0405 -0.3970
  100OSM    HNF10006   2.376   0.162  10.143 -1.0850  0.6226  1.3993
  100OSM    C2S10007   2.524   0.123  10.287 -0.1457 -0.1184  0.5081
  100OSM    H2S10008   2.632   0.103  10.273 -0.0424  1.2060 -0.9387
  100OSM    C3S10009   2.467  -0.025  10.320 -0.1457 -0.5624  0.1904
  100OSM    H3S10010   2.362  -0.006  10.349  0.6512  3.2072  1.2045
  100OSM     O310011   2.535  -0.099  10.426  0.5288 -0.8311  0.4314
  100OSM    HO310012   2.590  -0.028  10.461 -0.0851  2.5763 -4.4371
  100OSM    C4S10013   2.470  -0.110  10.199 -0.4325  0.2552 -0.1698
  100OSM    H4S10014   2.572  -0.141  10.172 -1.1152 -2.8341  0.4474
  100OSM    C5S10015   2.371  -0.133  10.113  0.1033 -0.7424 -1.0555
  100OSM    H5S10016   2.278  -0.077  10.134  0.0860 -1.3078  0.4910
  100OSM    C6S10017   2.370  -0.223   9.995  0.5293  0.1805  0.0924
  100OSM    H6S10018   2.285  -0.294  10.004 -0.6695  1.0533 -2.8879
  100OSM    H6T10019   2.465  -0.280   9.989  1.0485  1.1681 -1.7718
  100OSM    C7S10020   2.363  -0.157   9.859  0.2089  0.0522  0.1991
  100OSM    H7S10021   2.448  -0.088   9.841 -0.5074  1.3193  1.5274
  100OSM    H7T10022   2.275  -0.090   9.860 -0.8639 -1.3223  0.6294
  100OSM    C8S10023   2.362  -0.246   9.738 -0.3704 -0.1763  0.2099
  100OSM    H8S10024   2.261  -0.292   9.727 -0.5311  0.4863 -1.2507
  100OSM    H8T10025   2.441  -0.321   9.756 -1.4197 -1.5402 -0.6306
  100OSM    C9S10026   2.388  -0.185   9.598  0.8692  0.1428 -0.1737
  100OSM    H9S10027   2.467  -0.109   9.613  0.6373  0.1039  1.5041
  100OSM    H9T10028   2.291  -0.146   9.560  0.8103  0.4600  0.2910
  100OSM   C10S10029   2.438  -0.291   9.503 -0.5172 -0.2066  0.4479
  100OSM   H10S10030   2.354  -0.362   9.496 -0.5524 -0.0847 -0.5185
  100OSM   H10T10031   2.535  -0.334   9.535  0.8141  0.9709 -1.7574
  100OSM   C11S10032   2.473  -0.238   9.366 -0.0759 -0.1891  0.6800
  100OSM   H11S10033   2.522  -0.138   9.369 -1.7716  0.6919  0.8034
  100OSM   H11T10034   2.381  -0.226   9.304 -0.2094 -0.8313  0.7527
  100OSM   C12S10035   2.550  -0.344   9.288  0.1025  0.2940  0.3090
  100OSM   H12S10036   2.476  -0.421   9.260 -0.2258  0.2177  1.3483
  100OSM   H12T10037   2.636  -0.380   9.348  1.0171 -0.8519 -1.5765
  100OSM   C13S10038   2.607  -0.289   9.149 -0.8578  0.9795  0.4190
  100OSM   H13S10039   2.699  -0.236   9.181  1.4159  1.0432 -5.0846
  100OSM   H13T10040   2.522  -0.229   9.110 -0.0686  1.2763 -0.9125
  100OSM   C14S10041   2.644  -0.400   9.052 -0.0440 -1.0132  0.3059
  100OSM   H14S10042   2.563  -0.476   9.062 -0.2262 -0.6955  1.3777
  100OSM   H14T10043   2.735  -0.458   9.079 -0.4312 -1.4389  0.7202
  100OSM   C15S10044   2.667  -0.350   8.911  0.2261  0.4992  0.7900
  100OSM   H15S10045   2.744  -0.270   8.919 -1.2413  2.0218  0.3550
  100OSM   H15T10046   2.574  -0.295   8.887 -0.6336 -0.6655  1.3743
  100OSM   C16S10047   2.690  -0.468   8.814 -0.3768 -0.0815 -0.1338
  100OSM   H16S10048   2.591  -0.513   8.792 -1.2666  2.6835 -2.4398
  100OSM   H16T10049   2.750  -0.552   8.855 -0.3984 -0.0309  0.0005
  100OSM   C17S10050   2.745  -0.422   8.677 -0.0139  0.3194  0.0958
  100OSM   H17S10051   2.799  -0.508   8.631  0.1038  0.0441  0.7433
  100OSM   H17T10052   2.820  -0.341   8.691 -1.3556  1.8895 -1.3537
  100OSM   C18S10053   2.634  -0.381   8.582  0.0426 -0.1204 -0.1765
  100OSM   H18S10054   2.548  -0.449   8.566 -0.1336  0.0239  0.1453
  100OSM   H18T10055   2.684  -0.376   8.483 -0.0797 -3.3983 -0.4966
  100OSM   H18U10056   2.609  -0.279   8.620 -1.2654 -0.9324  1.2409
  100OSM    C1F10057   2.526   0.283  10.106 -0.8067 -0.1016  0.6914
  100OSM     OF10058   2.633   0.331  10.144 -0.1629  0.6161  0.0887
  100OSM    C2F10059   2.453   0.336   9.988 -0.2214  0.7042 -0.0772
  100OSM    H2F10060   2.467   0.445   9.968  0.3973  0.3031 -2.0114
  100OSM    H2G10061   2.342   0.329   9.994 -0.4702  2.0571 -2.0525
  100OSM    C3F10062   2.516   0.283   9.858 -0.0582  0.5908 -0.4174
  100OSM    H3F10063   2.517   0.173   9.865  2.6528  0.6696  2.1084
  100OSM    H3G10064   2.620   0.319   9.849  0.0686 -0.2839 -5.2678
  100OSM    C4F10065   2.438   0.334   9.737  0.5238 -0.4483  0.9142
  100OSM    H4F10066   2.406   0.438   9.758  1.4219 -0.5095  2.7682
  100OSM    H4G10067   2.349   0.272   9.716  0.6209  0.0142 -1.0525
  100OSM    C5F10068   2.522   0.350   9.608  0.4290 -0.1157  0.4744
  100OSM    H5F10069   2.601   0.427   9.619  0.5848 -0.1151 -0.5049
  100OSM    H5G10070   2.450   0.393   9.534  1.1679  2.9777  1.4142
  100OSM    C6F10071   2.596   0.231   9.550  0.2174  1.2583  0.5576
  100OSM    H6F10072   2.526   0.146   9.537  2.2414 -0.5734  0.8915
  100OSM    H6G10073   2.673   0.201   9.625 -0.4668  1.7899  1.4866
  100OSM    C7F10074   2.678   0.265   9.423 -0.6348 -0.0689  0.2115
  100OSM    H7F10075   2.766   0.197   9.416 -0.3295  0.4811 -4.1587
  100OSM    H7G10076   2.734   0.361   9.425 -0.8224  0.0362  0.3789
  100OSM    C8F10077   2.592   0.256   9.303 -0.0677  0.7063 -1.0749
  100OSM    H8F10078   2.499   0.314   9.324 -0.5263 -0.2573 -0.3788
  100OSM    H8G10079   2.558   0.151   9.296  0.9976  0.3084 -0.4649
  100OSM    C9F10080   2.640   0.309   9.174  0.1959  0.4744  0.7358
  100OSM    H9F10081   2.612   0.414   9.155  0.3046  0.4900  0.6642
  100OSM   C10F10082   2.709   0.251   9.073  0.5879 -0.1250  0.4456
  100OSM   H10F10083   2.719   0.309   8.980  0.8919 -0.6540  0.1430
  100OSM   C11F10084   2.755   0.107   9.074 -0.5860 -0.1698  0.4633
  100OSM   H11F10085   2.719   0.039   9.155  0.2081 -0.0322  0.9356
  100OSM   H11G10086   2.864   0.120   9.083 -0.6477  1.0462 -0.3219
  100OSM   C12F10087   2.727   0.036   8.939  0.0610 -0.0060  0.2939
  100OSM   H12F10088   2.634   0.074   8.893 -0.1589 -0.2451  0.5397
  100OSM   H12G10089   2.705  -0.072   8.953 -3.3657  0.3668 -1.2107
  100OSM   C13F10090   2.827   0.065   8.826 -0.3342  0.8018 -0.1033
  100OSM   H13F10091   2.928   0.046   8.869 -0.3147  2.3511  0.6210
  100OSM   H13G10092   2.827   0.175   8.809 -0.8062  0.5639 -1.7592
  100OSM   C14F10093   2.799  -0.007   8.699 -0.0099 -0.2457 -1.0000
  100OSM   H14F10094   2.697   0.023   8.668 -0.4575 -0.0161  0.5899
  100OSM   H14G10095   2.790  -0.114   8.728  0.5272 -0.3714 -1.2761
  100OSM   C15F10096   2.911   0.017   8.596  0.6811  0.1282 -0.1982
  100OSM   H15F10097   3.010   0.018   8.647  0.0236 -2.2875  1.2714
  100OSM   H15G10098   2.901   0.115   8.545  1.7567 -0.4787 -1.6378
  100OSM   C16F10099   2.920  -0.101   8.502  0.2360  0.8118 -0.2914
  100OSM   H16F10100   2.944  -0.197   8.553  1.3244  1.2518  0.0611
  100OSM   H16G10101   3.012  -0.081   8.443 -0.3009  0.7906 -1.1521
  100OSM   C17F10102   2.797  -0.105   8.416 -0.4782 -0.0420 -0.1564
  100OSM   H17F10103   2.775  -0.004   8.374 -0.2668 -0.4073 -1.1677
  100OSM   H17G10104   2.707  -0.145   8.468  0.1379  0.3008  1.2333
  100OSM   C18F10105   2.813  -0.198   8.295  0.3143  0.3185 -0.0177
  100OSM   H18F10106   2.904  -0.175   8.235  0.8370 -0.4870  0.4379
  100OSM   H18G10107   2.722  -0.186   8.232 -0.0717 -2.1266 -0.0471
  100OSM   H18H10108   2.828  -0.299   8.340  2.0423  0.4807 -0.1461
  101OSM      N10109   6.286   0.358  10.690  0.0695  0.5745  0.0535
  101OSM    C1510110   6.429   0.336  10.648  0.0880 -0.4689  0.2905
  101OSM   H15A10111   6.461   0.402  10.568  0.1787 -1.1302 -0.2325
  101OSM   H15B10112   6.440   0.240  10.601  0.7284 -0.3605  0.2123
  101OSM   H15C10113   6.498   0.353  10.729  0.3796 -2.4582  0.4956
  101OSM    C1410114   6.282   0.490  10.758 -0.7493  0.0008  0.4675
  101OSM   H14A10115   6.186   0.512  10.802 -0.8885  1.1311 -0.3406
  101OSM   H14B10116   6.317   0.569  10.692 -1.1407 -0.4709 -0.3143
  101OSM   H14C10117   6.351   0.483  10.841 -1.4616  0.2338  1.0871
  101OSM    C1310118   6.194   0.379  10.585 -0.2032 -0.1469  0.0523
  101OSM   H13A10119   6.179   0.292  10.522 -0.2545 -0.0689 -0.0425
  101OSM   H13B10120   6.227   0.455  10.516  0.1673  0.5894  1.0072
  101OSM   H13C10121   6.092   0.399  10.613 -0.8787 -2.3594 -0.6052
  101OSM    C1210122   6.249   0.246  10.792  0.1457 -0.4237 -0.0079
  101OSM   H12A10123   6.148   0.261  10.827  0.4490 -0.6986  1.0083
  101OSM   H12B10124   6.307   0.254  10.882 -1.7894 -0.2143  1.2728
  101OSM    C1110125   6.277   0.105  10.731  0.4571 -0.1404  0.1388
  101OSM   H11A10126   6.387   0.099  10.717  0.5872  2.5161 -0.4953
  101OSM   H11B10127   6.240   0.089  10.628 -0.1045 -0.6287  0.4090
  101OSM      P10128   6.069  -0.017  10.839  0.3435 -0.0110 -0.0748
  101OSM    O1310129   6.054  -0.113  10.947 -0.1646 -0.2432  0.5369
  101OSM    O1410130   5.992   0.110  10.856 -0.6380  0.1159 -0.4943
  101OSM    O1110131   6.031  -0.084  10.701  0.0405  0.2639  0.4866
  101OSM    O1210132   6.219   0.003  10.825 -0.5220  0.1273  0.1309
  101OSM    C1S10133   5.957  -0.027  10.599  0.0822  0.2263  0.1837
  101OSM    H1S10134   5.945   0.083  10.610  1.9753  0.4375  0.4207
  101OSM    H1T10135   5.853  -0.067  10.598  1.4383 -3.7250 -1.0565
  101OSM     NF10136   5.930   0.005  10.363 -0.1276 -0.4196 -0.2666
  101OSM    HNF10137   5.851  -0.032  10.314 -2.1458  1.7019  1.1863
  101OSM    C2S10138   6.006  -0.064  10.463 -0.0575  0.5192 -0.1068
  101OSM    H2S10139   6.115  -0.044  10.460 -0.1226  0.7955 -1.1906
  101OSM    C3S10140   5.995  -0.227  10.445  0.3137  0.0740  0.2569
  101OSM    H3S10141   5.890  -0.261  10.452 -0.6432  3.0534  4.1020
  101OSM     O310142   6.051  -0.309  10.549 -0.1933  0.0386  0.3163
  101OSM    HO310143   6.049  -0.258  10.631 -0.6147  0.4817  0.0419
  101OSM    C4S10144   6.043  -0.256  10.309  0.2859  0.4073  0.6706
  101OSM    H4S10145   5.957  -0.282  10.245  1.2474 -0.8212 -0.1701
  101OSM    C5S10146   6.169  -0.268  10.268  0.3254 -0.5500  0.2589
  101OSM    H5S10147   6.250  -0.263  10.342 -1.5647  1.0385  2.3554
  101OSM    C6S10148   6.201  -0.315  10.129  0.3867 -0.3702 -0.1401
  101OSM    H6S10149   6.202  -0.426  10.120 -3.4285 -0.6846  1.3514
  101OSM    H6T10150   6.304  -0.289  10.099  0.7425 -1.8287 -0.2270
  101OSM    C7S10151   6.111  -0.262  10.022  0.2086  0.3416  0.3031
  101OSM    H7S10152   6.095  -0.153  10.037  1.3194  0.7237 -1.0712
  101OSM    H7T10153   6.009  -0.303  10.038  0.6590 -0.8342  0.1942
  101OSM    C8S10154   6.164  -0.309   9.885  0.0595 -0.1985  1.1600
  101OSM    H8S10155   6.160  -0.420   9.881 -1.6843 -0.1615  0.8468
  101OSM    H8T10156   6.267  -0.272   9.869  0.3466 -1.9712 -1.7453
  101OSM    C9S10157   6.080  -0.265   9.766 -0.1304  0.0850  0.7885
  101OSM    H9S10158   6.101  -0.157   9.756  0.3514 -0.1536 -1.0453
  101OSM    H9T10159   5.971  -0.276   9.786 -0.1654 -2.3998 -0.3320
  101OSM   C10S10160   6.115  -0.327   9.630  0.1667  0.7561  0.5064
  101OSM   H10S10161   6.082  -0.431   9.607 -3.1068  2.0899 -1.5767
  101OSM   H10T10162   6.224  -0.334   9.608 -0.4202 -0.7824 -2.5147
  101OSM   C11S10163   6.069  -0.238   9.510 -0.1835  0.1898 -0.7365
  101OSM   H11S10164   6.125  -0.144   9.534  0.2085 -0.3607  0.5783
  101OSM   H11T10165   5.960  -0.221   9.522 -0.4104 -2.0929  1.1085
  101OSM   C12S10166   6.114  -0.300   9.373  0.7461  0.2785  0.8191
  101OSM   H12S10167   6.054  -0.393   9.363 -0.5410  0.8608  2.6580
  101OSM   H12T10168   6.221  -0.329   9.369  0.9624  1.1517 -0.4412
  101OSM   C13S10169   6.080  -0.210   9.253  0.2535  0.8942  0.1191
  101OSM   H13S10170   6.141  -0.118   9.262  0.1233  1.1007 -0.8936
  101OSM   H13T10171   5.978  -0.169   9.271 -1.0335 -1.2924 -1.5553
  101OSM   C14S10172   6.085  -0.285   9.118  0.4526 -0.5744  0.4946
  101OSM   H14S10173   6.023  -0.375   9.134  0.3337 -0.5299  0.2910
  101OSM   H14T10174   6.191  -0.307   9.094  0.4795  1.1238 -1.2204
  101OSM   C15S10175   6.016  -0.215   9.002  0.6262  0.2548  0.0283
  101OSM   H15S10176   6.057  -0.112   8.999 -0.7061  0.8058  0.2632
  101OSM   H15T10177   5.912  -0.200   9.037  0.9034  0.9473  0.5748
  101OSM   C16S10178   6.013  -0.290   8.864 -0.0225  0.0711 -0.3152
  101OSM   H16S10179   5.960  -0.388   8.876  0.6912 -0.2093  0.7124
  101OSM   H16T10180   6.118  -0.297   8.829  0.7090  0.7622  1.5802
  101OSM   C17S10181   5.946  -0.216   8.746 -0.5051 -0.3231 -0.0025
  101OSM   H17S10182   5.977  -0.110   8.746 -4.2378  0.9427  2.1380
  101OSM   H17T10183   5.836  -0.216   8.761 -0.5713 -0.0342 -0.4607
  101OSM   C18S10184   5.983  -0.270   8.605 -0.8626 -0.5809  0.2753
  101OSM   H18S10185   6.094  -0.258   8.595 -0.7907 -2.2761 -1.8852
  101OSM   H18T10186   5.946  -0.209   8.519 -0.0467 -0.5894 -0.1003
  101OSM   H18U10187   5.952  -0.376   8.598  1.3882 -1.3658  1.2010
  101OSM    C1F10188   5.953   0.133  10.343  0.0540 -0.5630  0.7606
  101OSM     OF10189   6.053   0.186  10.396  0.2057  0.1160 -0.0326
  101OSM    C2F10190   5.859   0.210  10.252 -0.5867 -0.0681  0.5331
  101OSM    H2F10191   5.808   0.292  10.306 -0.4869  0.7923 -0.6406
  101OSM    H2G10192   5.775   0.144  10.218  0.6937 -0.9415 -1.0802
  101OSM    C3F10193   5.947   0.260  10.127 -0.4480 -0.4997 -0.2812
  101OSM    H3F10194   6.009   0.348  10.156 -3.0512  0.3102  3.6154
  101OSM    H3G10195   5.870   0.308  10.063 -0.8524  0.9165  1.2002
  101OSM    C4F10196   6.018   0.163  10.037  0.5835  0.1898  1.0286
  101OSM    H4F10197   5.950   0.076  10.026  3.4274 -2.0483 -0.2487
  101OSM    H4G10198   6.113   0.123  10.078  1.4896  1.0859 -0.1228
  101OSM    C5F10199   6.042   0.237   9.907 -0.0025 -0.3547  1.3373
  101OSM    H5F10200   6.095   0.334   9.919 -1.8155  1.2209 -1.9192
  101OSM    H5G10201   5.948   0.271   9.858 -0.1472 -1.1828  1.0165
  101OSM    C6F10202   6.125   0.159   9.802  0.0024  0.4347  0.1525
  101OSM    H6F10203   6.222   0.140   9.853 -1.3562 -0.6621  2.5179
  101OSM    H6G10204   6.071   0.064   9.782  1.0425  0.0042 -0.7137
  101OSM    C7F10205   6.134   0.242   9.671 -0.1483  0.0257  0.2983
  101OSM    H7F10206   6.231   0.295   9.678 -0.1261 -0.1120  1.1247
  101OSM    H7G10207   6.059   0.323   9.665 -0.2326 -0.1473 -1.4857
  101OSM    C8F10208   6.137   0.143   9.554 -0.4562 -0.0662  0.1548
  101OSM    H8F10209   6.042   0.086   9.548 -1.7270  1.7249  1.9666
  101OSM    H8G10210   6.213   0.067   9.583 -0.7513  0.5184  2.6335
  101OSM    C9F10211   6.161   0.227   9.432  0.2980 -0.0127 -0.5790
  101OSM    H9F10212   6.260   0.275   9.438  1.9054 -2.9007 -1.8247
  101OSM   C10F10213   6.075   0.260   9.334 -0.6218  0.5420  0.7920
  101OSM   H10F10214   6.098   0.342   9.264  0.4362  0.3864  0.9311
  101OSM   C11F10215   5.932   0.211   9.316  0.1509 -0.1292  0.5794
  101OSM   H11F10216   5.864   0.297   9.301  0.8812  0.2782 -0.5489
  101OSM   H11G10217   5.900   0.137   9.392  0.1871 -0.7399  0.0185
  101OSM   C12F10218   5.915   0.132   9.182  0.2586 -0.5569  0.4276
  101OSM   H12F10219   5.807   0.114   9.166  0.2410 -0.2137  0.1380
  101OSM   H12G10220   5.974   0.038   9.181  2.0142  0.4250  2.2945
  101OSM   C13F10221   5.958   0.205   9.050 -0.3281  0.4693  0.3560
  101OSM   H13F10222   6.069   0.211   9.050 -0.3359  0.6094  0.8622
  101OSM   H13G10223   5.915   0.307   9.053 -0.7385  0.3319 -0.4006
  101OSM   C14F10224   5.896   0.147   8.927 -0.0581 -0.0422  0.1655
  101OSM   H14F10225   5.792   0.181   8.906  0.5338  0.3261 -2.5726
  101OSM   H14G10226   5.890   0.036   8.926 -3.4846 -0.0032 -1.7375
  101OSM   C15F10227   5.966   0.192   8.802 -0.1803  0.1952  0.2577
  101OSM   H15F10228   5.964   0.117   8.720 -1.2495  1.0513 -0.5330
  101OSM   H15G10229   6.074   0.190   8.830 -0.3871 -2.2995  1.1192
  101OSM   C16F10230   5.924   0.328   8.743  0.8108 -0.6046 -0.8129
  101OSM   H16F10231   5.889   0.390   8.828 -0.0887 -0.1577 -1.4913
  101OSM   H16G10232   5.835   0.314   8.679  1.5759 -0.8115 -1.8614
  101OSM   C17F10233   6.033   0.401   8.676 -0.2204  0.0062 -0.5730
  101OSM   H17F10234   6.078   0.344   8.592 -1.0402 -1.8277  0.1833
  101OSM   H17G10235   6.118   0.422   8.743 -1.2480 -0.6102  0.9787
  101OSM   C18F10236   5.984   0.542   8.646  0.7822 -0.3344  0.3384
  101OSM   H18F10237   5.908   0.544   8.565 -1.8866  0.7108  2.6934
  101OSM   H18G10238   6.061   0.620   8.624  0.2740  0.3709  1.0380
  101OSM   H18H10239   5.928   0.582   8.733  0.8142  1.3855 -0.3991
  102OSM      N10240   3.435   2.825  10.675  0.4576 -0.8167 -0.0412
  102OSM    C1510241   3.397   2.688  10.622  0.1941  0.2251 -0.1017
  102OSM   H15A10242   3.313   2.689  10.554  0.2203  0.5255 -0.1305
  102OSM   H15B10243   3.364   2.615  10.695 -1.5393 -0.7302 -1.7600
  102OSM   H15C10244   3.489   2.648  10.583  1.9949  0.7591  3.2035
  102OSM    C1410245   3.316   2.884  10.737 -0.7745 -0.0552 -0.7407
  102OSM   H14A10246   3.326   2.981  10.784 -0.8714  0.0606 -0.9612
  102OSM   H14B10247   3.280   2.822  10.819  1.8165  1.5628  1.8159
  102OSM   H14C10248   3.236   2.883  10.665 -0.5385  2.5958 -1.1143
  102OSM    C1310249   3.546   2.806  10.770  0.0311 -0.4317  0.6622
  102OSM   H13A10250   3.633   2.759  10.726  0.3644 -0.5378  1.4169
  102OSM   H13B10251   3.519   2.755  10.861 -2.0796 -0.1739  0.2176
  102OSM   H13C10252   3.584   2.901  10.804  0.4286  0.1971 -1.4006
  102OSM    C1210253   3.478   2.920  10.570 -0.6200  0.0103 -0.1492
  102OSM   H12A10254   3.499   3.019  10.609  0.7446  0.6054 -2.1882
  102OSM   H12B10255   3.383   2.941  10.523 -1.3153 -0.3463  1.0725
  102OSM    C1110256   3.586   2.875  10.468 -0.2182  0.2715 -0.1866
  102OSM   H11A10257   3.597   2.952  10.388 -0.4765 -0.1857 -0.6704
  102OSM   H11B10258   3.554   2.781  10.418  0.8981 -0.5172  0.5427
  102OSM      P10259   3.792   3.000  10.570  0.6131  0.5200  0.1705
  102OSM    O1310260   3.696   3.111  10.598 -0.1371 -0.4484  0.0757
  102OSM    O1410261   3.899   2.972  10.665 -0.7232 -0.2014 -0.5878
  102OSM    O1110262   3.860   3.035  10.438  0.1310  0.9100 -0.4338
  102OSM    O1210263   3.711   2.871  10.535 -0.3380  0.1571 -1.1884
  102OSM    C1S10264   3.902   2.929  10.348  0.5536  0.5355 -0.1897
  102OSM    H1S10265   3.813   2.877  10.308  0.3762  0.6461  0.0587
  102OSM    H1T10266   3.977   2.866  10.401  1.0375  0.4516 -0.9591
  102OSM     NF10267   4.007   2.859  10.143  0.1048 -0.6849  0.0475
  102OSM    HNF10268   4.097   2.820  10.159  0.5002 -0.0971 -0.6524
  102OSM    C2S10269   3.984   2.979  10.219  0.5164  0.2173  0.1838
  102OSM    H2S10270   3.911   3.050  10.173  1.0717 -0.0200 -1.1057
  102OSM    C3S10271   4.111   3.055  10.261 -0.2550 -0.0847  0.0605
  102OSM    H3S10272   4.177   2.993  10.326 -0.6016 -0.8507 -0.3022
  102OSM     O310273   4.088   3.171  10.336  0.6250  0.2148 -0.3930
  102OSM    HO310274   3.996   3.162  10.362 -0.1993  2.1196 -2.3536
  102OSM    C4S10275   4.196   3.087  10.135 -0.2259 -0.6896 -0.3694
  102OSM    H4S10276   4.173   3.176  10.074 -3.7042 -0.9129  0.4131
  102OSM    C5S10277   4.297   3.006  10.090 -0.1348  0.3075  0.2751
  102OSM    H5S10278   4.324   2.919  10.152  0.5665 -0.1890 -0.6977
  102OSM    C6S10279   4.389   3.041   9.974 -0.5854 -0.0981  0.3950
  102OSM    H6S10280   4.435   2.954   9.922 -2.0224 -0.0531 -1.0272
  102OSM    H6T10281   4.470   3.105  10.016  0.4236 -0.6891 -0.5951
  102OSM    C7S10282   4.331   3.121   9.856 -0.2590 -0.0459 -0.0636
  102OSM    H7S10283   4.332   3.230   9.875  1.1824 -0.0012 -0.3314
  102OSM    H7T10284   4.226   3.095   9.831 -1.3318  2.5056  1.3475
  102OSM    C8S10285   4.408   3.093   9.722  0.2301  0.5598 -0.5157
  102OSM    H8S10286   4.392   2.987   9.694  1.4843  0.7068 -1.9411
  102OSM    H8T10287   4.518   3.107   9.717  0.1620  0.8462 -1.6012
  102OSM    C9S10288   4.355   3.167   9.598  1.2294 -0.4438  0.3125
  102OSM    H9S10289   4.347   3.276   9.619  1.0004 -0.5537  0.8222
  102OSM    H9T10290   4.259   3.120   9.569  1.9133  0.2941 -3.6464
  102OSM   C10S10291   4.440   3.146   9.477  0.4298  0.4746 -0.1707
  102OSM   H10S10292   4.462   3.037   9.465 -0.5854  0.2184  0.1684
  102OSM   H10T10293   4.537   3.199   9.471  1.3499 -1.2739 -2.1413
  102OSM   C11S10294   4.369   3.191   9.351  0.3258  0.6207 -0.2826
  102OSM   H11S10295   4.375   3.301   9.338  0.8846  1.0831  2.8903
  102OSM   H11T10296   4.259   3.187   9.364 -0.3495  0.9714 -4.4958
  102OSM   C12S10297   4.421   3.142   9.219 -0.1383  0.3302 -0.8973
  102OSM   H12S10298   4.456   3.038   9.237  0.3677  0.8213  1.1351
  102OSM   H12T10299   4.506   3.201   9.178  1.2338 -0.4038  0.7759
  102OSM   C13S10300   4.316   3.157   9.108  0.0235  0.2122 -0.6575
  102OSM   H13S10301   4.281   3.262   9.111 -0.0917  0.1507  1.2665
  102OSM   H13T10302   4.223   3.100   9.128 -0.3682  0.4092 -1.8025
  102OSM   C14S10303   4.377   3.144   8.960  0.3433  1.0285 -0.1099
  102OSM   H14S10304   4.280   3.150   8.906  0.1099  0.0235  0.1794
  102OSM   H14T10305   4.422   3.043   8.952 -2.2212 -0.4440  2.2932
  102OSM   C15S10306   4.459   3.267   8.927 -0.5092  0.6379 -0.4819
  102OSM   H15S10307   4.566   3.250   8.949 -0.1128  1.1086 -1.9367
  102OSM   H15T10308   4.433   3.359   8.984  0.6427  2.1421 -2.2441
  102OSM   C16S10309   4.448   3.301   8.782 -0.2272 -0.0023  0.1697
  102OSM   H16S10310   4.341   3.321   8.759  0.2763  1.1448 -1.3390
  102OSM   H16T10311   4.469   3.214   8.715 -3.7531 -0.3675 -0.6289
  102OSM   C17S10312   4.519   3.424   8.743  0.3453  0.0922 -0.0171
  102OSM   H17S10313   4.628   3.400   8.738  1.0475  2.5683  1.2976
  102OSM   H17T10314   4.496   3.504   8.817  1.1884  1.5282 -1.2611
  102OSM   C18S10315   4.474   3.466   8.606  0.5974  0.5528 -1.0789
  102OSM   H18S10316   4.372   3.509   8.614 -0.0981 -1.4449  2.9850
  102OSM   H18T10317   4.478   3.383   8.532 -0.3618  0.9776 -1.6383
  102OSM   H18U10318   4.538   3.554   8.584 -0.1229  1.9701  1.9956
  102OSM    C1F10319   3.920   2.794  10.073  0.3126 -0.2630  0.0842
  102OSM     OF10320   3.805   2.835  10.063  0.4053  0.6703  0.3399
  102OSM    C2F10321   3.954   2.675   9.989 -0.5754  0.1516 -0.4378
  102OSM    H2F10322   3.977   2.586  10.052 -0.7854  0.6985  0.4373
  102OSM    H2G10323   4.030   2.698   9.912  0.7230 -0.2358  0.6849
  102OSM    C3F10324   3.834   2.616   9.907  0.5877 -0.5690  0.2258
  102OSM    H3F10325   3.789   2.702   9.853  2.9118 -1.2643 -3.1014
  102OSM    H3G10326   3.765   2.568   9.981 -0.7765 -1.5402 -1.6039
  102OSM    C4F10327   3.877   2.501   9.817 -0.8822 -0.3196  0.0086
  102OSM    H4F10328   3.972   2.461   9.856 -0.1860  1.0095 -0.2503
  102OSM    H4G10329   3.911   2.531   9.715 -0.5381 -0.3832  0.1051
  102OSM    C5F10330   3.769   2.391   9.815  0.9398 -0.6195 -0.4767
  102OSM    H5F10331   3.672   2.437   9.789  1.1379 -1.2696 -2.5188
  102OSM    H5G10332   3.773   2.354   9.920  1.4682 -0.0870 -0.2986
  102OSM    C6F10333   3.787   2.277   9.714  0.2060  0.3941 -0.3245
  102OSM    H6F10334   3.739   2.182   9.748  0.8630 -0.8102 -2.5182
  102OSM    H6G10335   3.893   2.246   9.698  0.2604 -1.9143  3.3207
  102OSM    C7F10336   3.722   2.303   9.582  0.3595 -0.7591  0.5374
  102OSM    H7F10337   3.622   2.341   9.613 -0.0365 -2.2961  1.2326
  102OSM    H7G10338   3.726   2.207   9.527  2.3165 -0.3169 -0.1753
  102OSM    C8F10339   3.798   2.417   9.508 -1.0179  0.7502  0.5416
  102OSM    H8F10340   3.908   2.402   9.505 -1.1867 -0.7055 -2.3942
  102OSM    H8G10341   3.781   2.513   9.562 -0.4293 -0.0265  2.1586
  102OSM    C9F10342   3.737   2.416   9.368  0.4125  0.5580  0.3506
  102OSM    H9F10343   3.646   2.477   9.366  0.4783  0.6492 -0.1006
  102OSM   C10F10344   3.793   2.377   9.249 -0.2059 -0.3924  0.1337
  102OSM   H10F10345   3.736   2.392   9.155  0.1800  1.2805  0.1336
  102OSM   C11F10346   3.935   2.320   9.231  0.3052  0.7442  0.2170
  102OSM   H11F10347   3.944   2.219   9.185  1.7545  0.1503  1.6740
  102OSM   H11G10348   3.964   2.299   9.337 -2.3668 -0.1225  0.8426
  102OSM   C12F10349   4.043   2.420   9.180 -0.2969  0.3626 -0.6532
  102OSM   H12F10350   4.043   2.503   9.253 -0.7468 -0.5290  0.3739
  102OSM   H12G10351   4.009   2.466   9.084 -1.9567 -0.2169 -0.3597
  102OSM   C13F10352   4.183   2.360   9.176  0.2866  0.2552 -0.0739
  102OSM   H13F10353   4.187   2.250   9.195 -0.5597  0.4947  1.7466
  102OSM   H13G10354   4.229   2.404   9.267 -0.9911 -2.2271  1.9163
  102OSM   C14F10355   4.262   2.394   9.048 -0.1596  0.0870 -0.1868
  102OSM   H14F10356   4.227   2.494   9.014 -0.7113 -0.2239 -0.5456
  102OSM   H14G10357   4.233   2.325   8.966  3.1545 -2.7181  0.7672
  102OSM   C15F10358   4.412   2.408   9.073 -1.5202 -0.7459 -0.7885
  102OSM   H15F10359   4.461   2.315   9.111 -0.2487  0.2471  0.1043
  102OSM   H15G10360   4.426   2.487   9.150  1.4405 -2.6880  0.8880
  102OSM   C16F10361   4.493   2.447   8.949  0.4971 -0.2829 -0.2877
  102OSM   H16F10362   4.484   2.381   8.860 -0.6063 -0.7162  0.1384
  102OSM   H16G10363   4.601   2.444   8.975  1.0093  2.5605 -1.7515
  102OSM   C17F10364   4.452   2.587   8.893  0.1322  0.1958  0.3971
  102OSM   H17F10365   4.448   2.663   8.974 -0.0613  0.6330 -0.0187
  102OSM   H17G10366   4.353   2.591   8.842  0.0333 -2.7194  0.2051
  102OSM   C18F10367   4.555   2.637   8.803 -0.6713 -0.2749  0.5606
  102OSM   H18F10368   4.579   2.558   8.729 -0.2438  0.9492 -0.6544
  102OSM   H18G10369   4.642   2.671   8.865 -1.4343  2.1703  0.4023
  102OSM   H18H10370   4.530   2.732   8.751  2.5361 -0.8104 -2.3313
  103OSM      N10371   6.134   5.130  11.018 -0.0843 -0.6283  0.1513
  103OSM    C1510372   6.078   5.003  11.075  0.2057  0.2108 -0.4351
  103OSM   H15A10373   6.113   4.998  11.177 -1.7852  1.5817  0.3700
  103OSM   H15B10374   6.094   4.914  11.016  1.2106  0.7858 -1.0490
  103OSM   H15C10375   5.970   5.014  11.071  0.3047  0.9927 -1.7360
  103OSM    C1410376   6.029   5.192  10.922  0.1641  0.2888  0.5529
  103OSM   H14A10377   6.065   5.280  10.872 -0.6252  0.8441  0.9440
  103OSM   H14B10378   5.931   5.215  10.963 -1.3200 -1.0196 -1.9808
  103OSM   H14C10379   6.022   5.119  10.842  4.0181 -1.8426  1.9031
  103OSM    C1310380   6.163   5.225  11.128 -0.2385  0.3983 -0.3403
  103OSM   H13A10381   6.235   5.301  11.100  1.6253 -1.1435  0.0986
  103OSM   H13B10382   6.217   5.163  11.198 -1.0950 -0.2171 -0.2099
  103OSM   H13C10383   6.079   5.258  11.186 -0.2819 -1.7378  0.9194
  103OSM    C1210384   6.267   5.114  10.949 -0.7743  1.0260 -0.7612
  103OSM   H12A10385   6.273   5.017  10.902  1.9727  0.6797  0.1253
  103OSM   H12B10386   6.338   5.104  11.030 -0.9855 -0.4687 -0.7431
  103OSM    C1110387   6.327   5.225  10.860  0.1892  0.5730 -0.1003
  103OSM   H11A10388   6.275   5.227  10.761  3.6631 -0.6125 -2.1206
  103OSM   H11B10389   6.429   5.196  10.828 -0.1455 -2.2712  1.1274
  103OSM      P10390   6.454   5.427  10.980  0.2852  0.4159 -0.3868
  103OSM    O1310391   6.423   5.550  11.053  0.0212 -0.4240 -0.1262
  103OSM    O1410392   6.530   5.329  11.050 -0.0158  0.1472 -0.0918
  103OSM    O1110393   6.549   5.470  10.864 -0.0635  0.1897  0.2562
  103OSM    O1210394   6.325   5.362  10.924  0.0847  0.5239  0.0726
  103OSM    C1S10395   6.527   5.470  10.725  0.1746 -0.0954  0.4093
  103OSM    H1S10396   6.478   5.567  10.700 -0.8870 -0.2573  1.7657
  103OSM    H1T10397   6.461   5.386  10.696  1.7352 -1.1286 -0.2994
  103OSM     NF10398   6.620   5.474  10.501 -0.3593  0.6417 -0.3623
  103OSM    HNF10399   6.616   5.389  10.449  1.8249  0.9051 -1.0482
  103OSM    C2S10400   6.654   5.462  10.636 -0.0196  0.1376  0.1027
  103OSM    H2S10401   6.705   5.555  10.668  1.2543 -0.2841 -0.6347
  103OSM    C3S10402   6.738   5.331  10.665 -0.7321 -0.1616  0.4216
  103OSM    H3S10403   6.682   5.236  10.647  0.4157 -0.8524  0.4267
  103OSM     O310404   6.781   5.316  10.797 -0.0861 -0.0219 -0.0122
  103OSM    HO310405   6.747   5.395  10.840  0.4528  1.0337 -1.4526
  103OSM    C4S10406   6.865   5.328  10.578 -0.5263  0.1896 -0.5119
  103OSM    H4S10407   6.932   5.412  10.603 -0.1344  0.0336 -1.0132
  103OSM    C5S10408   6.901   5.236  10.489 -0.0357 -0.8708  0.0202
  103OSM    H5S10409   6.844   5.143  10.476  0.3061 -1.0876  0.0527
  103OSM    C6S10410   7.028   5.245  10.412  0.6786 -0.4462 -0.4192
  103OSM    H6S10411   7.061   5.146  10.374  1.5947 -0.3709  0.1659
  103OSM    H6T10412   7.111   5.295  10.465 -1.3200  0.7028  1.8237
  103OSM    C7S10413   7.003   5.326  10.280 -0.2652  0.3136  0.1979
  103OSM    H7S10414   7.104   5.334  10.234  0.9189  0.5449  2.6616
  103OSM    H7T10415   6.971   5.431  10.296  1.0809  0.4421  2.4919
  103OSM    C8S10416   6.899   5.254  10.188 -0.2047  0.7574  0.0011
  103OSM    H8S10417   6.800   5.238  10.236 -0.5311  0.7653 -0.6571
  103OSM    H8T10418   6.934   5.150  10.169 -0.1470  0.6538  0.6388
  103OSM    C9S10419   6.880   5.333  10.060  0.4788  0.1049 -0.3540
  103OSM    H9S10420   6.981   5.369  10.029  1.0701 -0.3382  0.9770
  103OSM    H9T10421   6.815   5.416  10.094  0.6830 -0.4740  1.6012
  103OSM   C10S10422   6.817   5.256   9.938 -0.1139  0.1329 -0.7246
  103OSM   H10S10423   6.727   5.209   9.983  1.8636 -0.8989  2.4258
  103OSM   H10T10424   6.896   5.182   9.912 -0.0235  0.0896 -0.3243
  103OSM   C11S10425   6.800   5.343   9.808  0.0899  0.2251 -0.3231
  103OSM   H11S10426   6.887   5.412   9.803 -0.3312  0.7768 -0.1561
  103OSM   H11T10427   6.704   5.398   9.824  0.0313 -0.2149  0.9276
  103OSM   C12S10428   6.779   5.259   9.683  0.2353 -0.7861  0.2191
  103OSM   H12S10429   6.704   5.180   9.707 -3.5781  2.1044 -1.1467
  103OSM   H12T10430   6.877   5.212   9.661  0.9845  1.5113 -1.7995
  103OSM   C13S10431   6.737   5.326   9.552  0.1231  0.2112 -0.3054
  103OSM   H13S10432   6.814   5.380   9.494 -0.2910  1.1753  0.0278
  103OSM   H13T10433   6.657   5.399   9.575 -0.0390 -0.0949  0.1097
  103OSM   C14S10434   6.669   5.230   9.449  0.2263 -0.6988  0.6322
  103OSM   H14S10435   6.580   5.185   9.496 -0.3700 -0.5184 -0.3016
  103OSM   H14T10436   6.741   5.151   9.420  0.3446  0.0487 -1.3113
  103OSM   C15S10437   6.619   5.311   9.324 -0.0275 -0.0260  0.9442
  103OSM   H15S10438   6.552   5.391   9.363 -0.0952  0.0583  0.6592
  103OSM   H15T10439   6.562   5.241   9.259  0.2401  0.7358 -0.1322
  103OSM   C16S10440   6.723   5.388   9.242 -0.0803 -0.0514 -0.0955
  103OSM   H16S10441   6.770   5.475   9.291 -0.4531  0.2236 -0.2214
  103OSM   H16T10442   6.674   5.436   9.154  2.3969  1.3761 -0.7790
  103OSM   C17S10443   6.841   5.302   9.181  0.7169 -0.1022 -0.5544
  103OSM   H17S10444   6.804   5.230   9.106 -2.7367 -0.3465  1.1653
  103OSM   H17T10445   6.890   5.242   9.261 -2.6869 -2.5028 -0.0527
  103OSM   C18S10446   6.955   5.390   9.119  0.1569 -0.5648 -0.1970
  103OSM   H18S10447   6.981   5.459   9.203 -0.2745 -1.2790  0.5383
  103OSM   H18T10448   6.910   5.456   9.041  3.1561  2.8824  0.7187
  103OSM   H18U10449   7.042   5.331   9.084  3.1755  2.3093  1.8598
  103OSM    C1F10450   6.573   5.577  10.433 -0.2181 -0.6035 -0.5134
  103OSM     OF10451   6.538   5.681  10.483 -0.1111  0.0127  0.4140
  103OSM    C2F10452   6.541   5.542  10.293  0.1772 -0.0729  0.3735
  103OSM    H2F10453   6.432   5.544  10.271  0.0939 -0.1422  0.7711
  103OSM    H2G10454   6.590   5.448  10.262  2.0878  0.1991  2.3134
  103OSM    C3F10455   6.593   5.640  10.195  0.6757 -0.3635  0.4975
  103OSM    H3F10456   6.703   5.646  10.188  0.7608 -1.5199  0.6943
  103OSM    H3G10457   6.571   5.745  10.226  1.7348  0.0672 -0.1392
  103OSM    C4F10458   6.536   5.614  10.050 -0.4336  0.0789 -0.0572
  103OSM    H4F10459   6.426   5.597  10.057 -0.5462  0.0543 -1.5688
  103OSM    H4G10460   6.563   5.516  10.007  0.7345 -0.2847  1.4049
  103OSM    C5F10461   6.562   5.738   9.967  0.2348  0.0904  0.6024
  103OSM    H5F10462   6.515   5.824  10.020 -1.5054 -0.4285 -0.0405
  103OSM    H5G10463   6.507   5.725   9.872 -2.4112  0.0248  2.0556
  103OSM    C6F10464   6.706   5.760   9.923 -0.4869 -0.3246 -0.0558
  103OSM    H6F10465   6.746   5.664   9.883 -0.1916 -0.4663  0.5662
  103OSM    H6G10466   6.773   5.782  10.009 -0.8342  1.1904 -0.1540
  103OSM    C7F10467   6.713   5.876   9.820  0.3584 -0.4035  0.6368
  103OSM    H7F10468   6.688   5.971   9.871  1.2935 -0.1125  0.5733
  103OSM    H7G10469   6.648   5.856   9.732  0.7714 -2.7684  0.7960
  103OSM    C8F10470   6.857   5.909   9.782  0.1116  0.0761 -0.3667
  103OSM    H8F10471   6.898   5.822   9.725  0.2644  0.4149 -0.7802
  103OSM    H8G10472   6.915   5.928   9.875 -2.7757  0.5217  1.4500
  103OSM    C9F10473   6.864   6.033   9.697 -0.2517  0.0311  0.1137
  103OSM    H9F10474   6.830   6.122   9.753 -2.1990  0.0891 -1.0693
  103OSM   C10F10475   6.906   6.042   9.570  0.6433  0.4361  0.4345
  103OSM   H10F10476   6.914   6.141   9.523  0.7008  0.5893  0.7640
  103OSM   C11F10477   6.942   5.921   9.493  0.6717  0.2491 -0.4236
  103OSM   H11F10478   6.868   5.843   9.518 -1.7934  2.8745  1.0164
  103OSM   H11G10479   7.043   5.895   9.532  0.1811  1.5117  1.8906
  103OSM   C12F10480   6.954   5.940   9.337  0.7128  0.7961 -1.0287
  103OSM   H12F10481   6.858   5.986   9.305 -0.3948 -0.3324  0.4966
  103OSM   H12G10482   6.959   5.836   9.300  0.1821  0.7368 -0.9462
  103OSM   C13F10483   7.084   6.021   9.293 -0.4341  0.5939  0.5330
  103OSM   H13F10484   7.083   6.115   9.352 -1.5070  1.5263 -0.9068
  103OSM   H13G10485   7.061   6.038   9.186 -2.3667  3.3419  1.2714
  103OSM   C14F10486   7.214   5.946   9.319  0.1512 -0.1876  0.0069
  103OSM   H14F10487   7.247   5.943   9.425  0.9870  0.7292 -0.2121
  103OSM   H14G10488   7.301   5.998   9.275  0.7040  0.8985  2.2653
  103OSM   C15F10489   7.222   5.805   9.261  0.1858 -0.2083 -0.4464
  103OSM   H15F10490   7.152   5.732   9.307  0.7424  0.4913  1.6588
  103OSM   H15G10491   7.319   5.751   9.276 -0.1006 -1.0244 -1.4235
  103OSM   C16F10492   7.207   5.808   9.108  0.3901 -0.3581 -0.0078
  103OSM   H16F10493   7.255   5.899   9.068  1.6869 -1.0118  0.0319
  103OSM   H16G10494   7.100   5.809   9.077 -0.5575  0.2446  2.9462
  103OSM   C17F10495   7.262   5.686   9.031  0.2963  0.0101  0.7493
  103OSM   H17F10496   7.231   5.582   9.056 -0.0657  0.0016  0.2981
  103OSM   H17G10497   7.367   5.692   9.067  0.9182  2.2007 -1.1816
  103OSM   C18F10498   7.274   5.707   8.882 -0.0630  0.5870  0.7026
  103OSM   H18F10499   7.171   5.702   8.840 -0.0814  2.7882  0.3498
  103OSM   H18G10500   7.334   5.625   8.837 -0.3572  0.5804  0.3226
  103OSM   H18H10501   7.338   5.794   8.854  5.3508 -3.0569  0.2805
  104OSM      N10502   0.996   4.578  10.838  0.7768 -0.0539 -0.2841
  104OSM    C1510503   0.962   4.483  10.952  0.0211  0.2711 -0.0352
  104OSM   H15A10504   0.859   4.451  10.966 -0.1543  1.7571  3.0796
  104OSM   H15B10505   0.994   4.533  11.042  0.5342  2.3442 -1.2957
  104OSM   H15C10506   1.017   4.390  10.953  0.6675  0.5880 -2.1460
  104OSM    C1410507   0.963   4.522  10.701 -0.0481 -0.6827 -0.0738
  104OSM   H14A10508   0.870   4.468  10.705  0.4105 -1.5683 -0.8784
  104OSM   H14B10509   1.035   4.451  10.661  0.7120 -0.1445  0.3007
  104OSM   H14C10510   0.956   4.607  10.634 -0.3071  1.9585  3.0810
  104OSM    C1310511   0.909   4.707  10.862  0.2561  0.0034 -0.6058
  104OSM   H13A10512   0.924   4.791  10.797 -0.6333  0.6931  0.0468
  104OSM   H13B10513   0.937   4.760  10.952 -2.7094  5.5029 -2.4390
  104OSM   H13C10514   0.803   4.698  10.885  0.7094 -1.0894  1.2873
  104OSM    C1210515   1.146   4.623  10.852 -0.0445 -0.1369 -0.0313
  104OSM   H12A10516   1.192   4.527  10.871 -2.4467 -1.5265 -0.8582
  104OSM   H12B10517   1.164   4.694  10.931  1.5899  0.4277 -0.8576
  104OSM    C1110518   1.222   4.671  10.722 -0.0599  0.2940  1.1323
  104OSM   H11A10519   1.217   4.601  10.636  1.4936 -0.4960  1.6608
  104OSM   H11B10520   1.331   4.679  10.741  0.3796 -0.1388 -0.9448
  104OSM      P10521   1.220   4.929  10.754 -0.0615 -0.8051 -0.1497
  104OSM    O1310522   1.111   5.033  10.756  0.2835  0.2209  0.0387
  104OSM    O1410523   1.273   4.911  10.890  0.1537  0.3238  0.2304
  104OSM    O1110524   1.325   4.987  10.655 -0.3195 -0.2014  0.6499
  104OSM    O1210525   1.167   4.797  10.681  0.1114  0.2587 -0.2959
  104OSM    C1S10526   1.309   4.967  10.509 -0.3079 -0.0408  0.0556
  104OSM    H1S10527   1.201   4.967  10.483  0.1326 -0.2604 -1.9252
  104OSM    H1T10528   1.346   4.869  10.472 -2.0675 -1.1347  1.0393
  104OSM     NF10529   1.343   5.061  10.291 -0.4603 -0.2549  0.6545
  104OSM    HNF10530   1.409   5.007  10.239  0.7235 -1.4042  3.1720
  104OSM    C2S10531   1.377   5.084  10.433 -0.1790  0.6568  0.3823
  104OSM    H2S10532   1.328   5.178  10.464 -2.1980 -0.2928  0.2520
  104OSM    C3S10533   1.528   5.075  10.462 -0.1123 -0.5694  0.5894
  104OSM    H3S10534   1.562   4.971  10.444  0.3596 -0.8103  2.5824
  104OSM     O310535   1.563   5.111  10.592  0.4020 -0.1377  0.2765
  104OSM    HO310536   1.481   5.090  10.637  0.3123  0.3319  0.3381
  104OSM    C4S10537   1.594   5.174  10.375 -0.3732 -0.7646 -0.8856
  104OSM    H4S10538   1.548   5.272  10.355  2.9618  1.3438  0.9164
  104OSM    C5S10539   1.714   5.152  10.319 -0.4566 -0.2812 -0.8673
  104OSM    H5S10540   1.764   5.056  10.335  1.4174  0.4190 -2.1478
  104OSM    C6S10541   1.791   5.252  10.231  0.6940 -0.1533  1.0434
  104OSM    H6S10542   1.902   5.244  10.238  0.9788  2.0432 -0.0656
  104OSM    H6T10543   1.763   5.359  10.241 -0.0926 -0.1141 -1.2174
  104OSM    C7S10544   1.745   5.218  10.084 -0.4054  0.4490 -0.4522
  104OSM    H7S10545   1.642   5.261  10.077  0.1647  2.6548  2.4107
  104OSM    H7T10546   1.746   5.108  10.068  1.7107  0.2138  0.9833
  104OSM    C8S10547   1.818   5.285   9.974 -0.0377 -0.6564  0.1478
  104OSM    H8S10548   1.921   5.245   9.985 -0.7194 -1.7562  3.8975
  104OSM    H8T10549   1.821   5.395   9.989 -0.0730 -0.4333 -1.3838
  104OSM    C9S10550   1.764   5.249   9.835 -0.0075 -0.0522  0.5747
  104OSM    H9S10551   1.653   5.263   9.837  0.1094  1.7098 -1.6723
  104OSM    H9T10552   1.781   5.141   9.814 -0.4871 -0.0146 -0.0468
  104OSM   C10S10553   1.820   5.330   9.724 -0.2904 -0.1767 -0.2426
  104OSM   H10S10554   1.930   5.312   9.734 -0.2144  1.1498  2.1934
  104OSM   H10T10555   1.806   5.439   9.738  0.6536 -0.0701 -0.0157
  104OSM   C11S10556   1.764   5.301   9.584  0.0377  0.9234 -0.1225
  104OSM   H11S10557   1.758   5.191   9.578 -1.6332  0.7226  3.1784
  104OSM   H11T10558   1.827   5.342   9.502  2.2725 -1.7609  0.1075
  104OSM   C12S10559   1.627   5.355   9.554  0.6263 -1.0951 -0.1537
  104OSM   H12S10560   1.574   5.342   9.651  0.9471  2.4783  0.6366
  104OSM   H12T10561   1.588   5.297   9.468 -0.4573  0.2339 -0.5976
  104OSM   C13S10562   1.622   5.508   9.512  0.2430 -0.3302  0.9782
  104OSM   H13S10563   1.661   5.515   9.409  0.4347 -1.4937  0.9584
  104OSM   H13T10564   1.688   5.565   9.581 -0.2903  0.4223  0.8915
  104OSM   C14S10565   1.481   5.581   9.511  1.0821 -0.0876 -0.9305
  104OSM   H14S10566   1.414   5.564   9.598 -0.3352 -0.5562 -2.0776
  104OSM   H14T10567   1.432   5.548   9.417  0.1544  2.4233 -1.4027
  104OSM   C15S10568   1.507   5.734   9.501  0.6050  0.0596 -0.6233
  104OSM   H15S10569   1.568   5.758   9.411  1.6775  2.6221  0.6852
  104OSM   H15T10570   1.574   5.769   9.582 -0.6821  0.8022  0.1559
  104OSM   C16S10571   1.386   5.824   9.498 -0.2383  0.1757  0.3993
  104OSM   H16S10572   1.308   5.795   9.425 -0.5345  1.1361  0.3209
  104OSM   H16T10573   1.420   5.927   9.475  0.8495  0.0807  1.4906
  104OSM   C17S10574   1.324   5.839   9.640 -0.2575  0.1283  0.7399
  104OSM   H17S10575   1.403   5.868   9.712  0.3643  0.3551 -0.0161
  104OSM   H17T10576   1.292   5.735   9.662 -1.4026  0.2091 -0.4195
  104OSM   C18S10577   1.204   5.939   9.648  0.0345  0.3214 -0.2317
  104OSM   H18S10578   1.125   5.941   9.570 -0.9091 -2.0838  0.5923
  104OSM   H18T10579   1.243   6.043   9.658 -1.5551  1.0346 -1.0916
  104OSM   H18U10580   1.155   5.930   9.747  3.4103  1.4844  1.7242
  104OSM    C1F10581   1.222   5.086  10.240 -0.5269 -0.2978 -0.7744
  104OSM     OF10582   1.131   5.125  10.308  0.1079 -0.3390  0.3159
  104OSM    C2F10583   1.210   5.058  10.091  0.0398  0.7158  0.5149
  104OSM    H2F10584   1.221   4.947  10.085  1.0691  0.8813 -1.6165
  104OSM    H2G10585   1.295   5.105  10.038  0.3492  0.2747  0.6101
  104OSM    C3F10586   1.079   5.098  10.027  0.3301 -0.7509  0.0019
  104OSM    H3F10587   1.074   5.208  10.022  2.7006 -0.3982  2.8122
  104OSM    H3G10588   0.989   5.081  10.091 -0.1725  1.7935  0.0430
  104OSM    C4F10589   1.057   5.021   9.887  0.1362 -0.6227 -0.4585
  104OSM    H4F10590   0.968   5.076   9.849 -0.1458 -0.2887  0.6571
  104OSM    H4G10591   1.023   4.917   9.907 -2.2845  0.0056 -0.9236
  104OSM    C5F10592   1.180   5.027   9.790  0.1158  0.3444  0.3505
  104OSM    H5F10593   1.242   4.936   9.808 -1.1300 -0.5072  0.4445
  104OSM    H5G10594   1.239   5.119   9.810 -0.5240  0.7015  0.5958
  104OSM    C6F10595   1.146   5.033   9.636  0.5842  0.0461  0.2447
  104OSM    H6F10596   1.242   5.031   9.580  1.2109 -0.9784  1.3328
  104OSM    H6G10597   1.096   5.127   9.602 -2.0139 -0.9223  1.1690
  104OSM    C7F10598   1.062   4.909   9.599  0.5294 -0.5766  0.5160
  104OSM    H7F10599   0.956   4.919   9.630 -0.1677 -0.3727 -1.7185
  104OSM    H7G10600   1.107   4.827   9.659  0.8737 -0.0740  0.9499
  104OSM    C8F10601   1.063   4.888   9.449  0.6395 -0.3204 -0.0184
  104OSM    H8F10602   1.013   4.980   9.411 -2.0084 -0.8996  1.7924
  104OSM    H8G10603   0.988   4.813   9.417 -0.1966  1.5137 -2.7166
  104OSM    C9F10604   1.193   4.847   9.384 -0.0788  0.3480 -0.2780
  104OSM    H9F10605   1.271   4.828   9.459 -0.0475  1.7445  0.0746
  104OSM   C10F10606   1.200   4.833   9.249  0.0251  0.3125 -0.0497
  104OSM   H10F10607   1.293   4.816   9.192 -1.4379  0.1677 -2.5657
  104OSM   C11F10608   1.083   4.860   9.150  0.1645 -0.4584 -0.3558
  104OSM   H11F10609   0.991   4.898   9.200  1.3911  2.3807 -0.0890
  104OSM   H11G10610   1.048   4.763   9.108  1.9601 -0.9621 -0.7735
  104OSM   C12F10611   1.109   4.963   9.035  0.3790 -0.4245  0.5342
  104OSM   H12F10612   1.199   4.931   8.977  0.7044  0.4941  0.5081
  104OSM   H12G10613   1.142   5.058   9.081 -0.7101 -0.9227  2.4490
  104OSM   C13F10614   0.991   4.999   8.949 -0.1811  0.4421  0.0475
  104OSM   H13F10615   1.015   5.041   8.850  1.5599 -0.0896  0.2151
  104OSM   H13G10616   0.939   5.082   9.002 -0.0781 -0.5888  1.8595
  104OSM   C14F10617   0.894   4.883   8.920  0.6869  0.4457  0.6111
  104OSM   H14F10618   0.858   4.847   9.019  3.2894 -2.8983  0.5264
  104OSM   H14G10619   0.950   4.801   8.870 -1.0557  0.5234 -1.6484
  104OSM   C15F10620   0.785   4.941   8.834 -0.4397 -0.7138 -0.0591
  104OSM   H15F10621   0.826   4.991   8.743 -0.5329  0.0566  0.3171
  104OSM   H15G10622   0.732   5.017   8.894  0.4110  0.3304 -0.5961
  104OSM   C16F10623   0.682   4.838   8.793  0.1739 -0.1695  0.3124
  104OSM   H16F10624   0.645   4.790   8.886 -1.0870 -0.5404 -0.3562
  104OSM   H16G10625   0.731   4.753   8.741 -1.7518 -3.0097  2.7838
  104OSM   C17F10626   0.562   4.890   8.701 -1.0669 -0.2731 -0.4605
  104OSM   H17F10627   0.605   4.932   8.608  2.6702  1.9233  1.9995
  104OSM   H17G10628   0.518   4.975   8.757  3.1109  2.3988 -0.8088
  104OSM   C18F10629   0.467   4.786   8.661 -0.9715 -0.5861  0.3517
  104OSM   H18F10630   0.517   4.695   8.621 -0.2380 -0.1922  0.3763
  104OSM   H18G10631   0.395   4.819   8.583  2.1142  1.2187 -1.9154
  104OSM   H18H10632   0.406   4.750   8.748 -1.0305 -1.6179 -0.1037
  105OSM      N10633   5.283   0.815  11.172 -0.2708  0.3327 -0.3847
  105OSM    C1510634   5.292   0.941  11.246  0.0255 -0.3807 -0.0904
  105OSM   H15A10635   5.199   0.996  11.252  0.9367  1.1436  0.8355
  105OSM   H15B10636   5.348   1.025  11.209 -1.7256  0.8695 -0.0146
  105OSM   H15C10637   5.332   0.923  11.345  1.7070  0.1716 -0.6271
  105OSM    C1410638   5.264   0.698  11.263  0.1249  1.2106 -0.0922
  105OSM   H14A10639   5.235   0.609  11.209 -0.4632  0.2499  1.7107
  105OSM   H14B10640   5.181   0.697  11.332 -1.3128 -1.5541 -1.6625
  105OSM   H14C10641   5.360   0.679  11.309  1.1223 -1.2314 -2.8496
  105OSM    C1310642   5.156   0.812  11.089 -0.2331 -0.6901  0.4438
  105OSM   H13A10643   5.152   0.908  11.040 -2.0749 -0.8433  0.2443
  105OSM   H13B10644   5.074   0.791  11.156 -0.7411 -1.4890 -0.4101
  105OSM   H13C10645   5.156   0.739  11.010 -2.0683 -1.0369  0.7223
  105OSM    C1210646   5.405   0.793  11.089 -0.5127  0.3065 -0.3396
  105OSM   H12A10647   5.440   0.691  11.073  1.0876  1.0510 -1.9977
  105OSM   H12B10648   5.490   0.828  11.146 -1.7011 -0.9293  2.3541
  105OSM    C1110649   5.407   0.865  10.948 -0.1222 -0.5189 -0.2131
  105OSM   H11A10650   5.374   0.969  10.962  0.3022 -0.1496 -1.7378
  105OSM   H11B10651   5.337   0.828  10.870 -1.2138  2.5326 -0.8004
  105OSM      P10652   5.601   0.729  10.839 -0.0217  0.3589 -0.1394
  105OSM    O1310653   5.729   0.754  10.769 -0.8390  0.0016 -0.5545
  105OSM    O1410654   5.575   0.608  10.925 -0.7469  0.2318  0.5742
  105OSM    O1110655   5.498   0.723  10.722  0.2473  0.2511 -0.0092
  105OSM    O1210656   5.547   0.863  10.918 -0.2314 -0.0790  0.3450
  105OSM    C1S10657   5.504   0.794  10.597  0.8775  0.0038  0.1511
  105OSM    H1S10658   5.562   0.888  10.610  3.4173 -1.2702 -1.1395
  105OSM    H1T10659   5.402   0.831  10.574  0.5387  0.8678  2.7553
  105OSM     NF10660   5.559   0.783  10.359  0.8915  0.4957 -0.1538
  105OSM    HNF10661   5.474   0.786  10.307  0.4933  2.9598  0.4813
  105OSM    C2S10662   5.560   0.709  10.484  0.1842 -0.2300  0.2168
  105OSM    H2S10663   5.667   0.684  10.502  0.1150 -1.1613 -0.5900
  105OSM    C3S10664   5.478   0.576  10.475  0.5843  0.2855 -0.4102
  105OSM    H3S10665   5.370   0.594  10.489 -0.3217 -3.7891 -0.9091
  105OSM     O310666   5.515   0.484  10.579 -0.8556 -0.3093 -0.1646
  105OSM    HO310667   5.550   0.537  10.651 -0.1374 -0.6224 -0.2810
  105OSM    C4S10668   5.497   0.503  10.349  0.3220  0.5869  0.8847
  105OSM    H4S10669   5.603   0.484  10.326  0.0351  0.2526 -0.2414
  105OSM    C5S10670   5.403   0.461  10.258  0.4709 -0.4557 -0.3452
  105OSM    H5S10671   5.298   0.464  10.291  0.5187 -2.2758  0.0576
  105OSM    C6S10672   5.422   0.386  10.130 -1.4093  0.6125  0.3566
  105OSM    H6S10673   5.339   0.403  10.058 -2.2112  0.3591  1.1984
  105OSM    H6T10674   5.415   0.277  10.153 -0.1874  0.0223 -1.7744
  105OSM    C7S10675   5.557   0.423  10.067  0.1658 -0.6615 -0.2086
  105OSM    H7S10676   5.633   0.381  10.136  0.3070  0.9564  0.6695
  105OSM    H7T10677   5.565   0.533  10.058  2.0829 -0.7723 -0.3498
  105OSM    C8S10678   5.568   0.348   9.933  1.1549 -0.9658  0.7478
  105OSM    H8S10679   5.504   0.257   9.938  0.1474 -0.2898  0.4009
  105OSM    H8T10680   5.672   0.327   9.901  1.1070 -1.9568  1.1982
  105OSM    C9S10681   5.504   0.431   9.826 -0.3929 -0.3837  0.4905
  105OSM    H9S10682   5.554   0.530   9.824  1.2631 -1.1921 -0.0949
  105OSM    H9T10683   5.395   0.443   9.843 -0.5587  1.7479 -1.5211
  105OSM   C10S10684   5.509   0.358   9.692  0.2469  0.3345  0.1958
  105OSM   H10S10685   5.448   0.265   9.686 -1.3652  1.3830 -0.3746
  105OSM   H10T10686   5.611   0.321   9.668 -0.4180 -1.1188 -0.5661
  105OSM   C11S10687   5.466   0.436   9.573  0.5095 -0.2945 -0.3275
  105OSM   H11S10688   5.520   0.534   9.571 -0.7734  0.4704  0.8212
  105OSM   H11T10689   5.358   0.460   9.579  0.4841 -0.0116 -1.5249
  105OSM   C12S10690   5.490   0.364   9.437 -0.5633 -0.2602  0.2607
  105OSM   H12S10691   5.416   0.282   9.422  0.6244 -1.1339 -1.0234
  105OSM   H12T10692   5.590   0.316   9.433 -0.2965 -0.1368  3.0900
  105OSM   C13S10693   5.470   0.464   9.323  0.0932 -0.0548 -0.2254
  105OSM   H13S10694   5.507   0.560   9.365  0.0696 -0.0155 -0.2928
  105OSM   H13T10695   5.361   0.483   9.306 -0.2720 -0.5140  1.4944
  105OSM   C14S10696   5.520   0.419   9.186 -0.4173 -0.0207  0.2749
  105OSM   H14S10697   5.482   0.317   9.163  0.7189 -1.4636  4.0040
  105OSM   H14T10698   5.628   0.392   9.190 -0.6493 -1.1332 -0.3257
  105OSM   C15S10699   5.494   0.504   9.065  0.3488 -0.4743  0.1376
  105OSM   H15S10700   5.534   0.604   9.095  1.5953  0.1560 -3.1592
  105OSM   H15T10701   5.385   0.506   9.043  0.3161 -2.2561 -0.0002
  105OSM   C16S10702   5.566   0.460   8.937 -0.2097  0.0398  0.4639
  105OSM   H16S10703   5.540   0.355   8.913  1.0088  0.3754 -2.8263
  105OSM   H16T10704   5.675   0.456   8.953 -0.5405  0.1780  3.1261
  105OSM   C17S10705   5.521   0.545   8.817  0.2975  0.7070 -0.4725
  105OSM   H17S10706   5.566   0.647   8.826 -0.7024  0.9980  2.2366
  105OSM   H17T10707   5.410   0.543   8.814  0.0873  0.7344  2.9130
  105OSM   C18S10708   5.579   0.478   8.697 -0.3558 -0.1715  0.0124
  105OSM   H18S10709   5.566   0.534   8.602  3.3126 -0.1335 -0.5921
  105OSM   H18T10710   5.526   0.381   8.688 -3.2984  1.1905  1.2923
  105OSM   H18U10711   5.689   0.461   8.697 -0.0937  1.3611  0.3175
  105OSM    C1F10712   5.637   0.889  10.345  0.0800 -0.5136 -0.2068
  105OSM     OF10713   5.737   0.908  10.418  0.2704  0.0944  0.4594
  105OSM    C2F10714   5.587   0.999  10.254 -0.0129  0.3938 -0.2089
  105OSM    H2F10715   5.494   1.041  10.296  0.6054  1.4336  0.1404
  105OSM    H2G10716   5.571   0.955  10.153  0.3757 -0.4634  0.0911
  105OSM    C3F10717   5.696   1.107  10.244 -0.3896  0.4264  1.1242
  105OSM    H3F10718   5.796   1.069  10.215 -0.6448  1.6280 -1.5608
  105OSM    H3G10719   5.709   1.151  10.345 -1.3976  0.1994  1.3668
  105OSM    C4F10720   5.675   1.214  10.142  0.1149  0.2766 -0.3350
  105OSM    H4F10721   5.764   1.277  10.119  0.1477  0.3274 -0.0699
  105OSM    H4G10722   5.590   1.279  10.174  0.7181  1.7629 -1.6095
  105OSM    C5F10723   5.642   1.163  10.003 -0.3098  0.0134  0.6637
  105OSM    H5F10724   5.544   1.112  10.002  0.9652 -2.5888  0.4626
  105OSM    H5G10725   5.717   1.097   9.954 -0.7054  1.1916 -1.7068
  105OSM    C6F10726   5.649   1.281   9.907  0.2158 -0.4816  0.2839
  105OSM    H6F10727   5.755   1.314   9.900 -0.4165  1.8988  0.9981
  105OSM    H6G10728   5.602   1.364   9.962  3.1621  0.0220  2.3136
  105OSM    C7F10729   5.592   1.242   9.765 -0.7612 -0.4023 -0.4226
  105OSM    H7F10730   5.493   1.199   9.789 -1.3309  0.1751 -1.6658
  105OSM    H7G10731   5.650   1.156   9.725  1.9649  0.6851  0.8913
  105OSM    C8F10732   5.572   1.353   9.665  0.3728 -0.6540 -1.3088
  105OSM    H8F10733   5.504   1.425   9.716  0.3526 -1.3280 -0.3656
  105OSM    H8G10734   5.519   1.317   9.574  1.0541 -0.0950 -1.9457
  105OSM    C9F10735   5.702   1.424   9.641 -0.3661  0.3430  0.2697
  105OSM    H9F10736   5.732   1.502   9.712 -0.8968  2.0922 -1.3450
  105OSM   C10F10737   5.775   1.408   9.527  0.0627  0.1106  0.3738
  105OSM   H10F10738   5.869   1.464   9.526 -0.5388  1.1955  1.4541
  105OSM   C11F10739   5.738   1.319   9.407 -0.6174  0.0195  0.2475
  105OSM   H11F10740   5.656   1.251   9.441 -1.6158  1.1830  0.2535
  105OSM   H11G10741   5.822   1.249   9.389 -0.7738 -0.0904 -0.0642
  105OSM   C12F10742   5.704   1.392   9.279  0.1069 -0.0630  0.1930
  105OSM   H12F10743   5.804   1.420   9.237 -1.8722  1.6896 -3.9897
  105OSM   H12G10744   5.650   1.486   9.303  1.3266  0.2337  1.9174
  105OSM   C13F10745   5.618   1.304   9.186  0.3955  0.2728 -0.1012
  105OSM   H13F10746   5.522   1.289   9.240  0.1392  1.7217 -0.0967
  105OSM   H13G10747   5.661   1.203   9.173  2.8665  1.4457 -1.9644
  105OSM   C14F10748   5.595   1.371   9.057  0.3320 -0.1418  0.1886
  105OSM   H14F10749   5.674   1.414   8.991 -0.7257 -2.8187 -3.0669
  105OSM   H14G10750   5.538   1.465   9.077 -0.6330 -0.5065 -0.7207
  105OSM   C15F10751   5.505   1.296   8.953 -0.1734  0.3569 -0.6831
  105OSM   H15F10752   5.400   1.281   8.987  0.6180 -0.7649  1.4943
  105OSM   H15G10753   5.549   1.194   8.954 -1.8368 -0.4219  1.7248
  105OSM   C16F10754   5.516   1.358   8.810  0.0692  0.4167 -0.0841
  105OSM   H16F10755   5.485   1.281   8.736 -2.5484 -0.3195  1.6222
  105OSM   H16G10756   5.620   1.388   8.786  0.1752  0.6750  0.6631
  105OSM   C17F10757   5.423   1.474   8.784 -0.5390 -0.5059 -0.0656
  105OSM   H17F10758   5.450   1.530   8.691 -0.1706  1.3802  1.1124
  105OSM   H17G10759   5.442   1.549   8.864 -0.0812  0.8063 -1.3431
  105OSM   C18F10760   5.275   1.433   8.780 -0.2268 -0.0813 -0.2397
  105OSM   H18F10761   5.228   1.384   8.868 -2.1920  0.5867 -0.8539
  105OSM   H18G10762   5.267   1.358   8.698 -2.2642  1.2403 -1.3338
  105OSM   H18H10763   5.205   1.515   8.754 -0.0168  0.6846  1.4770
  106OSM      N10764   4.175   6.068  10.731  0.1800 -0.0516  0.1593
  106OSM    C1510765   4.244   6.108  10.852 -0.8098 -0.2425 -0.0603
  106OSM   H15A10766   4.330   6.169  10.830 -1.2612  0.0923 -0.9186
  106OSM   H15B10767   4.291   6.034  10.917  1.9912 -1.2763 -2.9548
  106OSM   H15C10768   4.187   6.182  10.906 -0.2698  0.2052 -0.0909
  106OSM    C1410769   4.270   5.971  10.650 -0.6468 -0.3573  0.4098
  106OSM   H14A10770   4.228   5.948  10.553  0.0418  0.9534 -0.2332
  106OSM   H14B10771   4.305   5.879  10.694  2.7664  1.1612  1.1879
  106OSM   H14C10772   4.358   6.024  10.614  0.3607 -0.4206  2.6276
  106OSM    C1310773   4.053   5.991  10.765  0.1418  0.4962  0.5623
  106OSM   H13A10774   3.973   6.058  10.795  0.2401 -0.3164  2.7949
  106OSM   H13B10775   4.064   5.926  10.850  0.8687  0.3195  0.3387
  106OSM   H13C10776   4.019   5.936  10.679 -2.3889  0.1432  1.7030
  106OSM    C1210777   4.138   6.176  10.633 -0.4710  0.6636  0.1607
  106OSM   H12A10778   4.101   6.132  10.542  0.9000  2.9840 -1.6451
  106OSM   H12B10779   4.226   6.228  10.599  0.0523  0.2572  0.8900
  106OSM    C1110780   4.032   6.277  10.678 -0.1504  0.3670  0.3494
  106OSM   H11A10781   3.960   6.213  10.732  1.6328 -0.5042  1.7998
  106OSM   H11B10782   3.990   6.332  10.591 -0.3504 -1.0978 -0.5208
  106OSM      P10783   4.187   6.494  10.724  0.6011 -0.0028  0.1006
  106OSM    O1310784   4.133   6.616  10.795 -0.0010  0.1440 -0.3625
  106OSM    O1410785   4.324   6.449  10.755 -0.5511  0.0070 -0.5204
  106OSM    O1110786   4.170   6.519  10.572 -0.4491  0.4023 -0.6371
  106OSM    O1210787   4.085   6.378  10.767 -0.2725 -0.0220 -0.0353
  106OSM    C1S10788   4.296   6.539  10.500  1.1058 -0.5665  0.6515
  106OSM    H1S10789   4.366   6.453  10.502  0.9608 -0.8156 -1.9209
  106OSM    H1T10790   4.359   6.628  10.524  1.9676 -0.5501 -1.4012
  106OSM     NF10791   4.392   6.590  10.280  0.5273  0.2317 -0.1491
  106OSM    HNF10792   4.415   6.686  10.263 -0.6029  0.4420 -0.5803
  106OSM    C2S10793   4.262   6.569  10.348 -0.2243 -0.4331 -0.6593
  106OSM    H2S10794   4.208   6.483  10.304 -1.9832  0.5215 -0.4977
  106OSM    C3S10795   4.164   6.691  10.342  0.4670 -0.5129  0.3370
  106OSM    H3S10796   4.209   6.781  10.388 -1.0580  0.8490 -0.7000
  106OSM     O310797   4.040   6.679  10.417  0.5431 -0.1444  0.1814
  106OSM    HO310798   4.056   6.605  10.476  1.4762  0.2418  0.4317
  106OSM    C4S10799   4.144   6.738  10.196  0.1924 -0.6820 -0.9485
  106OSM    H4S10800   4.224   6.806  10.161 -1.2119  0.8094 -1.3519
  106OSM    C5S10801   4.044   6.706  10.109 -0.7532 -0.0319 -0.2919
  106OSM    H5S10802   3.963   6.637  10.134 -1.5242  1.0630  0.3215
  106OSM    C6S10803   4.050   6.755   9.970 -0.1844 -0.9046 -0.4840
  106OSM    H6S10804   3.957   6.812   9.951  0.9437  1.9922  1.8877
  106OSM    H6T10805   4.055   6.677   9.891  2.0525 -0.3427 -0.9738
  106OSM    C7S10806   4.161   6.853   9.922  0.2646  0.3450 -0.4950
  106OSM    H7S10807   4.261   6.805   9.928  0.3041  0.0285 -2.7937
  106OSM    H7T10808   4.160   6.941   9.990  1.3780 -1.1328  1.5703
  106OSM    C8S10809   4.147   6.896   9.775  0.2203 -0.0115  0.1744
  106OSM    H8S10810   4.228   6.970   9.759  0.6499  0.0849  2.4486
  106OSM    H8T10811   4.050   6.950   9.764 -0.6960 -1.7404 -0.7420
  106OSM    C9S10812   4.149   6.786   9.663  0.2760  0.3442 -0.9762
  106OSM    H9S10813   4.079   6.701   9.680  1.7979 -0.7038  0.3182
  106OSM    H9T10814   4.252   6.744   9.658 -0.1271 -0.6131 -1.3611
  106OSM   C10S10815   4.107   6.848   9.521 -1.2301 -0.2891 -0.4029
  106OSM   H10S10816   4.007   6.893   9.543  0.1507  2.2428  1.1769
  106OSM   H10T10817   4.102   6.768   9.445  1.9231 -0.9606 -0.0439
  106OSM   C11S10818   4.220   6.949   9.475 -0.3342 -0.1208 -0.5858
  106OSM   H11S10819   4.323   6.912   9.495  0.0837  0.9880 -0.6206
  106OSM   H11T10820   4.218   7.036   9.544 -0.0286  0.1587 -0.9238
  106OSM   C12S10821   4.198   7.012   9.339  0.4349 -0.0641 -0.4786
  106OSM   H12S10822   4.260   7.104   9.329  0.4323 -0.1487 -1.3755
  106OSM   H12T10823   4.092   7.042   9.330  0.6567  0.2113 -3.0507
  106OSM   C13S10824   4.242   6.917   9.229 -0.8533  0.5459  0.8894
  106OSM   H13S10825   4.185   6.823   9.238  0.4673 -0.2124  1.7908
  106OSM   H13T10826   4.352   6.901   9.228 -0.2658  3.8249  0.6905
  106OSM   C14S10827   4.223   6.980   9.088 -0.5261 -0.0383  0.1688
  106OSM   H14S10828   4.263   7.083   9.085  1.3831 -0.7468 -2.3032
  106OSM   H14T10829   4.114   6.985   9.066 -0.3098  1.0979 -0.7751
  106OSM   C15S10830   4.286   6.890   8.984  0.2830  0.4784  1.1434
  106OSM   H15S10831   4.224   6.802   8.956 -0.2747  0.8617  1.1456
  106OSM   H15T10832   4.382   6.854   9.026  1.2330  2.7904  1.0511
  106OSM   C16S10833   4.315   6.953   8.849  0.5082  0.0357 -0.1017
  106OSM   H16S10834   4.379   6.889   8.785  0.3165  1.8067 -2.2015
  106OSM   H16T10835   4.356   7.052   8.879 -3.1853  1.3464  1.2265
  106OSM   C17S10836   4.191   6.995   8.760  0.7661 -0.0005 -0.0709
  106OSM   H17S10837   4.125   7.057   8.824  0.9328  0.2901 -0.1799
  106OSM   H17T10838   4.142   6.901   8.727  1.8865 -0.0610 -1.6711
  106OSM   C18S10839   4.238   7.066   8.630 -0.0034  0.0887 -0.2834
  106OSM   H18S10840   4.297   7.150   8.671 -0.3512  0.0571  0.2983
  106OSM   H18T10841   4.161   7.108   8.562 -1.5160 -0.4730  1.0038
  106OSM   H18U10842   4.291   6.987   8.572  0.8547 -0.2433  0.9193
  106OSM    C1F10843   4.466   6.494  10.233  0.4590 -0.9225  0.0444
  106OSM     OF10844   4.469   6.382  10.282  0.4405 -0.1764  0.0745
  106OSM    C2F10845   4.564   6.545  10.134 -0.1601  0.1789 -0.0202
  106OSM    H2F10846   4.617   6.450  10.116 -1.5587 -0.6271 -0.0032
  106OSM    H2G10847   4.632   6.621  10.178 -1.7870  1.1943  0.8740
  106OSM    C3F10848   4.503   6.588   9.999  0.2545 -0.1313  0.2757
  106OSM    H3F10849   4.436   6.675  10.015  0.1574  0.1276 -1.3806
  106OSM    H3G10850   4.425   6.515   9.969 -2.6066  2.0443  1.8488
  106OSM    C4F10851   4.612   6.622   9.893 -0.5340  0.2442  0.1862
  106OSM    H4F10852   4.697   6.550   9.899 -0.1493  0.7879  2.0104
  106OSM    H4G10853   4.647   6.726   9.913  0.8496  0.0326 -0.9391
  106OSM    C5F10854   4.564   6.611   9.745  0.2591  0.2710  0.1735
  106OSM    H5F10855   4.471   6.669   9.728 -0.4001  0.0935  2.7723
  106OSM    H5G10856   4.546   6.503   9.725  0.9313  0.1092  0.4477
  106OSM    C6F10857   4.669   6.669   9.648  0.0699  0.4611 -0.8448
  106OSM    H6F10858   4.763   6.613   9.672  1.8148  2.0587 -3.4437
  106OSM    H6G10859   4.675   6.779   9.653 -1.9662  0.6131 -1.1692
  106OSM    C7F10860   4.632   6.630   9.505  0.1585 -0.1397  0.1870
  106OSM    H7F10861   4.525   6.652   9.487 -0.8107 -2.9940  1.8540
  106OSM    H7G10862   4.637   6.519   9.504 -0.0101 -0.1963  2.0163
  106OSM    C8F10863   4.731   6.688   9.399  0.3132 -0.1324  0.8382
  106OSM    H8F10864   4.754   6.603   9.333 -0.5085  1.1129 -1.1348
  106OSM    H8G10865   4.825   6.712   9.453  0.0073 -0.3990  1.5058
  106OSM    C9F10866   4.677   6.808   9.325  0.3327 -0.0009  0.1892
  106OSM    H9F10867   4.616   6.885   9.374 -2.2954  0.8023 -3.8552
  106OSM   C10F10868   4.700   6.828   9.191  0.4825  0.0262 -0.0608
  106OSM   H10F10869   4.665   6.922   9.147  1.3145  1.0437  1.3698
  106OSM   C11F10870   4.781   6.744   9.095  0.0984 -0.4969  0.3064
  106OSM   H11F10871   4.704   6.695   9.031 -0.7970  1.6123 -0.2945
  106OSM   H11G10872   4.845   6.662   9.134  0.2849 -0.7219 -0.4425
  106OSM   C12F10873   4.857   6.837   8.992  0.0552 -0.2656 -0.6902
  106OSM   H12F10874   4.926   6.906   9.044  0.2605  0.2322 -1.6053
  106OSM   H12G10875   4.785   6.904   8.940  0.3168  0.4674 -0.1103
  106OSM   C13F10876   4.942   6.757   8.893  0.2353  0.3373 -0.9155
  106OSM   H13F10877   5.005   6.683   8.947 -0.3415  0.3179 -0.2572
  106OSM   H13G10878   5.028   6.808   8.844  1.3452 -2.0264 -1.5775
  106OSM   C14F10879   4.865   6.691   8.785 -0.0485 -0.0479  0.1303
  106OSM   H14F10880   4.773   6.746   8.757  1.8838  2.3044 -2.1642
  106OSM   H14G10881   4.830   6.589   8.813  0.5364 -0.3750 -0.3041
  106OSM   C15F10882   4.959   6.671   8.668  0.8828 -0.4081 -0.2421
  106OSM   H15F10883   5.043   6.608   8.703  0.4301 -0.2946  1.1476
  106OSM   H15G10884   4.992   6.774   8.642 -0.9179  0.7837  1.7610
  106OSM   C16F10885   4.892   6.608   8.548  0.5630  0.6556  0.3506
  106OSM   H16F10886   4.782   6.621   8.552  0.4492 -0.3669  1.0404
  106OSM   H16G10887   4.895   6.497   8.556  4.3657  0.5267 -0.8393
  106OSM   C17F10888   4.940   6.653   8.410 -0.3888 -0.3105  0.4447
  106OSM   H17F10889   4.897   6.590   8.328 -0.2573 -1.3827  1.1785
  106OSM   H17G10890   5.047   6.625   8.398 -0.7952 -1.1372 -1.9547
  106OSM   C18F10891   4.907   6.808   8.387 -0.2388 -0.0032  0.3609
  106OSM   H18F10892   4.797   6.826   8.397 -0.2034  1.5522 -1.5526
  106OSM   H18G10893   4.929   6.834   8.281 -1.2887 -0.6082 -0.0284
  106OSM   H18H10894   4.978   6.870   8.444  3.1664 -1.5655 -1.8566
  107OSM      N10895   0.747   5.166  10.733 -0.0080 -0.2696 -0.4667
  107OSM    C1510896   0.843   5.250  10.804 -0.2822  0.6214 -0.5311
  107OSM   H15A10897   0.795   5.340  10.841  1.5469  0.9753  1.1444
  107OSM   H15B10898   0.930   5.285  10.749  0.4136 -1.2010 -0.6521
  107OSM   H15C10899   0.883   5.186  10.881  0.2955 -0.1927 -1.4809
  107OSM    C1410900   0.694   5.256  10.624  0.2914 -0.5204 -0.6228
  107OSM   H14A10901   0.648   5.341  10.672  0.5594 -1.1923  0.8903
  107OSM   H14B10902   0.629   5.198  10.559  1.5510  1.4904 -3.9038
  107OSM   H14C10903   0.775   5.300  10.568 -0.5505  0.5293 -1.0293
  107OSM    C1310904   0.819   5.051  10.673  0.4300  0.0052 -0.5405
  107OSM   H13A10905   0.879   4.999  10.747 -0.6922 -0.9839 -0.3035
  107OSM   H13B10906   0.879   5.073  10.586 -0.9655 -1.8438 -2.0711
  107OSM   H13C10907   0.747   4.979  10.637  1.0336 -1.2648  0.6906
  107OSM    C1210908   0.639   5.136  10.833 -0.3277 -0.0760 -0.6389
  107OSM   H12A10909   0.621   5.219  10.900  1.4601 -0.5644  0.5335
  107OSM   H12B10910   0.673   5.056  10.897 -0.4792 -0.9715 -1.6590
  107OSM    C1110911   0.498   5.090  10.779 -0.8099  0.1379  0.2108
  107OSM   H11A10912   0.451   5.162  10.709  1.3025 -0.0938 -1.5600
  107OSM   H11B10913   0.431   5.075  10.866  0.0105 -1.0588  0.6548
  107OSM      P10914   0.514   4.825  10.796  0.0394 -0.0318  0.0999
  107OSM    O1310915   0.617   4.817  10.900  0.2663 -0.1264 -0.3914
  107OSM    O1410916   0.375   4.793  10.832  0.2250 -0.1970 -0.1449
  107OSM    O1110917   0.557   4.716  10.693  0.1500 -0.1895  0.4424
  107OSM    O1210918   0.516   4.959  10.713  0.1442 -0.0134  0.0244
  107OSM    C1S10919   0.470   4.671  10.589  0.1974 -0.4617  1.0101
  107OSM    H1S10920   0.366   4.710  10.599  1.1349  2.8807 -0.7996
  107OSM    H1T10921   0.475   4.560  10.578  1.7924 -0.3083 -0.0171
  107OSM     NF10922   0.407   4.703  10.352 -0.4427 -0.0752 -0.2939
  107OSM    HNF10923   0.411   4.616  10.304  0.2414 -0.7435  0.9140
  107OSM    C2S10924   0.524   4.723  10.448  0.8905 -0.4458 -0.0500
  107OSM    H2S10925   0.549   4.831  10.448 -0.7921 -0.0316  0.3097
  107OSM    C3S10926   0.652   4.639  10.412 -0.5838  0.1197 -0.2407
  107OSM    H3S10927   0.623   4.532  10.416  1.0054 -0.3212  0.5667
  107OSM     O310928   0.751   4.640  10.514  0.2091  0.7418  0.3232
  107OSM    HO310929   0.690   4.639  10.588 -0.3692 -1.6645 -0.0986
  107OSM    C4S10930   0.702   4.679  10.276 -0.0938  0.3144  1.1478
  107OSM    H4S10931   0.637   4.625  10.206  2.1614 -1.4040  0.2371
  107OSM    C5S10932   0.798   4.764  10.234 -0.3244  0.7594  0.6064
  107OSM    H5S10933   0.856   4.827  10.304  0.6894  0.1315  0.3549
  107OSM    C6S10934   0.832   4.789  10.088 -0.3038  0.1520 -0.2229
  107OSM    H6S10935   0.935   4.753  10.069 -1.0695 -1.7370 -1.0071
  107OSM    H6T10936   0.837   4.898  10.066 -2.1145 -0.3758 -4.1353
  107OSM    C7S10937   0.752   4.711   9.980 -0.1794 -0.4115  0.2670
  107OSM    H7S10938   0.641   4.721   9.979 -0.2835 -1.4391  0.6416
  107OSM    H7T10939   0.762   4.602   9.994 -1.9159 -0.5041  1.0376
  107OSM    C8S10940   0.804   4.740   9.834  0.3450  0.3031 -0.4409
  107OSM    H8S10941   0.915   4.739   9.827  0.3677  0.9695 -0.1847
  107OSM    H8T10942   0.772   4.842   9.804  0.0549  0.3496  0.0223
  107OSM    C9S10943   0.759   4.639   9.724  0.2575  0.5226  0.1395
  107OSM    H9S10944   0.649   4.652   9.728  0.3928  2.3051 -1.0400
  107OSM    H9T10945   0.785   4.533   9.745 -0.7843  0.2015 -0.1330
  107OSM   C10S10946   0.795   4.656   9.576  0.4135  0.3270 -0.2073
  107OSM   H10S10947   0.904   4.665   9.554  0.2063  2.7541 -0.5203
  107OSM   H10T10948   0.760   4.757   9.546  0.2594 -0.1055 -1.5655
  107OSM   C11S10949   0.734   4.542   9.486 -0.5580  0.3750  0.7873
  107OSM   H11S10950   0.624   4.552   9.490 -0.6675 -0.8950  1.7085
  107OSM   H11T10951   0.770   4.443   9.523  0.7805  0.7943  0.6614
  107OSM   C12S10952   0.767   4.561   9.336 -0.3678 -0.6546  0.3957
  107OSM   H12S10953   0.876   4.549   9.320  0.1189  2.4022  0.9275
  107OSM   H12T10954   0.745   4.659   9.289  0.3062 -1.5809 -2.0124
  107OSM   C13S10955   0.691   4.459   9.249 -0.3126  0.0417 -0.4063
  107OSM   H13S10956   0.585   4.491   9.246 -0.3978 -0.2899 -2.4863
  107OSM   H13T10957   0.699   4.361   9.300  0.0057  0.5361  0.5077
  107OSM   C14S10958   0.736   4.469   9.103 -0.1376  0.0132 -0.0960
  107OSM   H14S10959   0.844   4.443   9.101 -0.5615 -2.1662  1.6899
  107OSM   H14T10960   0.721   4.575   9.072 -1.1817  0.3691  1.4811
  107OSM   C15S10961   0.662   4.382   9.008  0.1719 -0.1521  0.1191
  107OSM   H15S10962   0.567   4.356   9.058  0.2159  0.8076  0.7292
  107OSM   H15T10963   0.727   4.293   8.996  2.0064  1.2067 -0.4965
  107OSM   C16S10964   0.630   4.436   8.872  0.2433 -0.3404  1.1235
  107OSM   H16S10965   0.727   4.448   8.820  0.8999  0.5126  2.4991
  107OSM   H16T10966   0.601   4.543   8.883  2.0446  0.3014  0.2006
  107OSM   C17S10967   0.531   4.364   8.776 -0.4533 -0.5485 -0.7219
  107OSM   H17S10968   0.570   4.262   8.754  0.0959 -0.5823  0.3471
  107OSM   H17T10969   0.535   4.424   8.682 -1.8933 -1.0815 -1.1536
  107OSM   C18S10970   0.391   4.364   8.840 -0.4392  0.4182 -0.2247
  107OSM   H18S10971   0.325   4.290   8.790 -1.2123  1.5630 -0.9874
  107OSM   H18T10972   0.347   4.466   8.828  2.3233  1.7702  0.2952
  107OSM   H18U10973   0.393   4.336   8.947 -0.6580  1.8258  0.1780
  107OSM    C1F10974   0.301   4.785  10.353 -0.1287  0.2055 -0.1019
  107OSM     OF10975   0.307   4.890  10.413 -0.1176 -0.6390  0.0516
  107OSM    C2F10976   0.177   4.738  10.282 -0.8091 -0.1643  0.0053
  107OSM    H2F10977   0.089   4.741  10.351 -0.3112  1.3491  0.6318
  107OSM    H2G10978   0.192   4.635  10.244  1.5990 -0.5373  1.7084
  107OSM    C3F10979   0.158   4.836  10.161  0.8401  0.9278  0.0548
  107OSM    H3F10980   0.253   4.817  10.107 -0.1063 -1.2582 -0.9837
  107OSM    H3G10981   0.143   4.940  10.197  2.5846  0.9333  0.8321
  107OSM    C4F10982   0.031   4.789  10.085 -0.4395 -0.7797  0.0648
  107OSM    H4F10983  -0.061   4.799  10.145 -0.5144  2.4694 -0.4146
  107OSM    H4G10984   0.038   4.679  10.068  0.1264 -0.7006 -0.2808
  107OSM    C5F10985  -0.000   4.855   9.954  0.0908  0.0498  0.3068
  107OSM    H5F10986   0.079   4.846   9.876 -0.0145 -0.2399  0.2320
  107OSM    H5G10987  -0.015   4.964   9.968  0.4163  0.2058 -0.5080
  107OSM    C6F10988  -0.131   4.806   9.898 -0.1573 -0.4659 -0.0857
  107OSM    H6F10989  -0.176   4.883   9.831 -2.2271 -1.1582  0.4062
  107OSM    H6G10990  -0.209   4.802   9.978  0.3970 -4.4880  0.4670
  107OSM    C7F10991  -0.128   4.669   9.828 -0.1770  0.1861 -0.3382
  107OSM    H7F10992  -0.119   4.593   9.909  2.3087 -0.8202 -1.4420
  107OSM    H7G10993  -0.043   4.674   9.756 -0.3298  1.2602 -0.4651
  107OSM    C8F10994  -0.255   4.641   9.751 -0.3863  0.0249 -0.6730
  107OSM    H8F10995  -0.282   4.731   9.693 -2.0935 -0.7923 -1.2303
  107OSM    H8G10996  -0.330   4.623   9.831  0.4435  2.8958  0.8530
  107OSM    C9F10997  -0.237   4.521   9.661  0.5295 -0.1517  0.0523
  107OSM    H9F10998  -0.195   4.434   9.712  0.5856  0.4326  1.0363
  107OSM   C10F10999  -0.263   4.511   9.529 -0.0663  0.4116 -0.1612
  107OSM   H10F11000  -0.233   4.415   9.484 -0.6302 -0.8237  1.9975
  107OSM   C11F11001  -0.329   4.618   9.441 -0.1583  0.3883 -0.0714
  107OSM   H11F11002  -0.351   4.702   9.509  1.3935  0.6464  0.1538
  107OSM   H11G11003  -0.419   4.582   9.386 -1.1950  3.8258 -0.8472
  107OSM   C12F11004  -0.225   4.679   9.347 -0.6728  0.0148 -0.1694
  107OSM   H12F11005  -0.191   4.614   9.263  2.5297  1.0449  0.1776
  107OSM   H12G11006  -0.134   4.694   9.409 -0.1216  1.3464 -1.2325
  107OSM   C13F11007  -0.265   4.810   9.290  0.0504  0.2587  0.0644
  107OSM   H13F11008  -0.278   4.892   9.364  4.3561  2.6546 -1.4093
  107OSM   H13G11009  -0.361   4.794   9.236  0.1306 -1.5636  0.4117
  107OSM   C14F11010  -0.163   4.872   9.192  0.7274  0.4066 -0.4460
  107OSM   H14F11011  -0.129   4.788   9.127 -0.1478 -0.4275  0.1388
  107OSM   H14G11012  -0.075   4.913   9.246 -0.2659  0.8511  0.9051
  107OSM   C15F11013  -0.227   4.985   9.098  0.9115 -0.0738  0.0418
  107OSM   H15F11014  -0.146   5.057   9.073 -0.1329  0.7440 -1.1046
  107OSM   H15G11015  -0.298   5.054   9.148  0.5952  0.3652 -1.0123
  107OSM   C16F11016  -0.301   4.928   8.976  0.7820  0.5604  0.0518
  107OSM   H16F11017  -0.381   4.867   9.024  1.7898 -0.0792  0.9734
  107OSM   H16G11018  -0.236   4.856   8.921  0.1395 -1.7019  2.0732
  107OSM   C17F11019  -0.359   5.029   8.877 -0.2226  0.4305  0.0164
  107OSM   H17F11020  -0.282   5.106   8.852 -0.5562  0.5350 -0.7261
  107OSM   H17G11021  -0.434   5.080   8.941 -0.4672  1.7424 -1.2686
  107OSM   C18F11022  -0.417   4.967   8.749  0.1393 -0.3342  0.1720
  107OSM   H18F11023  -0.513   4.916   8.772 -1.4283  2.8580  1.3661
  107OSM   H18G11024  -0.343   4.895   8.708 -0.6232  0.7595 -3.4179
  107OSM   H18H11025  -0.440   5.046   8.675  1.9176 -1.0594 -1.2223
  108OSM      N11026   5.264   5.639  10.627  0.2584 -0.0237  0.1463
  108OSM    C1511027   5.332   5.571  10.508 -0.5471  0.0416 -0.0085
  108OSM   H15A11028   5.400   5.641  10.463  1.3286 -0.8222  1.3387
  108OSM   H15B11029   5.259   5.556  10.430 -1.6803  3.5645  0.2037
  108OSM   H15C11030   5.382   5.484  10.550 -1.0310 -0.2631 -0.0506
  108OSM    C1411031   5.178   5.536  10.690  0.6367  0.5305  0.5596
  108OSM   H14A11032   5.116   5.479  10.623  0.7412  1.4069 -0.2998
  108OSM   H14B11033   5.115   5.592  10.757 -1.4228 -0.3486 -0.5591
  108OSM   H14C11034   5.236   5.469  10.752  1.1052  3.0806  3.0657
  108OSM    C1311035   5.364   5.689  10.727  0.4770 -0.7779 -0.0293
  108OSM   H13A11036   5.329   5.764  10.795  3.8439 -0.6259  1.7550
  108OSM   H13B11037   5.443   5.741  10.674 -1.2144  0.7872 -1.1209
  108OSM   H13C11038   5.408   5.608  10.783  0.6918 -1.9115 -1.7291
  108OSM    C1211039   5.177   5.751  10.575  0.3855  0.3145  0.1776
  108OSM   H12A11040   5.247   5.817  10.527 -0.1938  1.4410  0.8387
  108OSM   H12B11041   5.123   5.791  10.660  0.7134 -1.5825  1.3335
  108OSM    C1111042   5.053   5.714  10.478  0.7322  0.1258  0.4562
  108OSM   H11A11043   5.065   5.618  10.423 -2.1857  0.0718 -0.2539
  108OSM   H11B11044   5.050   5.794  10.401  0.4737  2.1390  2.4308
  108OSM      P11045   4.843   5.829  10.593 -0.7732  0.5147  0.1039
  108OSM    O1311046   4.707   5.789  10.638 -0.0932  0.2617  0.3091
  108OSM    O1411047   4.924   5.901  10.692 -0.3130  0.5569 -0.3055
  108OSM    O1111048   4.819   5.903  10.457 -0.2002 -0.1363 -0.4984
  108OSM    O1211049   4.933   5.700  10.552 -0.1105 -0.1644  0.3453
  108OSM    C1S11050   4.860   6.037  10.442 -0.9998 -0.8902  0.9449
  108OSM    H1S11051   4.969   6.047  10.461 -0.8951 -2.0709  1.0910
  108OSM    H1T11052   4.816   6.107  10.516  1.9314  0.8075  1.2430
  108OSM     NF11053   4.898   6.224  10.275 -0.7806 -0.0716 -0.2874
  108OSM    HNF11054   4.848   6.307  10.300 -3.4187 -1.2957 -1.0960
  108OSM    C2S11055   4.826   6.097  10.298 -0.1621 -0.3087 -0.1132
  108OSM    H2S11056   4.873   6.031  10.221 -0.7767 -0.0826 -0.6899
  108OSM    C3S11057   4.674   6.112  10.281 -0.2526 -0.2941  0.3707
  108OSM    H3S11058   4.648   6.198  10.346  1.8347 -1.1260  2.4392
  108OSM     O311059   4.597   6.010  10.331  0.1228 -0.5933 -0.0134
  108OSM    HO311060   4.659   5.947  10.368  0.0218 -1.1181 -0.7261
  108OSM    C4S11061   4.644   6.151  10.143  0.4666  0.4157  0.5310
  108OSM    H4S11062   4.652   6.260  10.132 -0.7698  0.3999 -0.7198
  108OSM    C5S11063   4.614   6.076  10.032 -0.4493  0.0255 -0.3873
  108OSM    H5S11064   4.599   5.968  10.049 -0.0608 -0.1123 -0.8943
  108OSM    C6S11065   4.595   6.108   9.886 -0.7113  0.0182  0.4798
  108OSM    H6S11066   4.546   6.205   9.862  0.3695 -0.2508 -3.5089
  108OSM    H6T11067   4.538   6.025   9.840 -1.1410  1.5619 -1.9519
  108OSM    C7S11068   4.735   6.120   9.819 -0.1816  0.3344 -0.4681
  108OSM    H7S11069   4.795   6.194   9.876  0.4204 -0.0217 -0.6297
  108OSM    H7T11070   4.719   6.148   9.712  0.6518  1.1632 -0.3884
  108OSM    C8S11071   4.800   5.978   9.819  0.2091  0.1902  0.9425
  108OSM    H8S11072   4.731   5.901   9.780 -1.1264  2.1769 -0.8277
  108OSM    H8T11073   4.837   5.935   9.915  3.4267  1.9306  0.6163
  108OSM    C9S11074   4.938   5.984   9.741 -0.0848 -0.1457 -0.7184
  108OSM    H9S11075   4.987   5.889   9.773 -2.2361 -1.1857 -0.3288
  108OSM    H9T11076   4.986   6.075   9.783  0.1079 -0.4895 -0.1844
  108OSM   C10S11077   4.927   5.987   9.591 -0.4365 -0.1158 -0.4043
  108OSM   H10S11078   5.030   5.988   9.548 -0.7929  2.7316 -1.4313
  108OSM   H10T11079   4.890   6.089   9.565 -0.1276  0.0049 -0.3814
  108OSM   C11S11080   4.846   5.883   9.526 -0.2179 -0.0040  0.3893
  108OSM   H11S11081   4.739   5.898   9.549 -0.2810  0.8600 -0.4273
  108OSM   H11T11082   4.868   5.786   9.577  0.5771  0.2659  0.5778
  108OSM   C12S11083   4.866   5.883   9.370  0.5714 -1.1026  0.5626
  108OSM   H12S11084   4.793   5.812   9.325 -0.5440  0.2676  0.1317
  108OSM   H12T11085   4.963   5.833   9.347  0.5849 -0.6590 -0.4179
  108OSM   C13S11086   4.853   6.023   9.292 -0.0055  0.2680  0.4229
  108OSM   H13S11087   4.941   6.089   9.309  0.8939 -0.9435  0.5784
  108OSM   H13T11088   4.765   6.080   9.328 -0.1678 -1.5589  3.2237
  108OSM   C14S11089   4.840   6.000   9.142 -0.3224  0.8316 -0.1088
  108OSM   H14S11090   4.758   5.927   9.123 -2.0935  1.3319  4.3594
  108OSM   H14T11091   4.939   5.960   9.111 -0.7329 -1.5180  1.3418
  108OSM   C15S11092   4.796   6.129   9.069 -0.0738 -0.8009 -0.1972
  108OSM   H15S11093   4.849   6.217   9.111  1.4644 -1.4874 -0.6266
  108OSM   H15T11094   4.687   6.151   9.075  0.2442  1.5637 -1.6175
  108OSM   C16S11095   4.839   6.131   8.924  0.0711  0.1585  0.4910
  108OSM   H16S11096   4.814   6.047   8.856  1.6117  0.5694 -0.6548
  108OSM   H16T11097   4.950   6.139   8.918  0.1568 -1.2183  0.0763
  108OSM   C17S11098   4.770   6.244   8.856  0.5608 -0.3620  0.4938
  108OSM   H17S11099   4.779   6.338   8.915  0.0522  1.0882 -1.5755
  108OSM   H17T11100   4.662   6.218   8.856 -0.0735  1.9920 -0.3593
  108OSM   C18S11101   4.822   6.264   8.712 -0.1907  0.0470  0.0808
  108OSM   H18S11102   4.786   6.366   8.689  0.2810  0.0089 -0.8646
  108OSM   H18T11103   4.780   6.188   8.643 -1.0337  1.3181 -0.8366
  108OSM   H18U11104   4.933   6.261   8.708 -0.1180  0.8528  1.0322
  108OSM    C1F11105   5.025   6.223  10.248 -0.1618 -0.8297 -0.1512
  108OSM     OF11106   5.083   6.113  10.250  0.3214 -0.2231  0.5684
  108OSM    C2F11107   5.094   6.352  10.238  0.3897 -0.0318 -0.2911
  108OSM    H2F11108   5.203   6.341  10.217  0.5292  0.4670  0.1559
  108OSM    H2G11109   5.097   6.400  10.338 -0.4030  0.4221 -0.4737
  108OSM    C3F11110   5.051   6.448  10.121  0.8673  0.1254 -0.1221
  108OSM    H3F11111   5.097   6.547  10.139 -0.5785  0.7729  0.1523
  108OSM    H3G11112   4.942   6.470  10.129  0.2852 -1.9719 -1.6143
  108OSM    C4F11113   5.079   6.398   9.977 -0.1127  0.2990  0.3750
  108OSM    H4F11114   5.034   6.297   9.964 -0.8800  0.6173  0.4936
  108OSM    H4G11115   5.188   6.377   9.976 -0.2191 -1.2836 -4.0383
  108OSM    C5F11116   5.048   6.504   9.865 -0.4936  0.2937 -0.7434
  108OSM    H5F11117   5.090   6.599   9.905  1.1706 -1.4050  1.9422
  108OSM    H5G11118   4.940   6.521   9.848 -0.6685 -1.4620 -1.5670
  108OSM    C6F11119   5.120   6.463   9.740 -0.3222 -0.3675  0.6294
  108OSM    H6F11120   5.074   6.362   9.733 -4.4286  1.2021  2.0474
  108OSM    H6G11121   5.229   6.462   9.765 -0.1836 -0.4032  0.0309
  108OSM    C7F11122   5.092   6.547   9.618 -0.2287 -0.1299  0.8674
  108OSM    H7F11123   5.160   6.633   9.637 -0.8394 -0.0496  2.9262
  108OSM    H7G11124   4.987   6.585   9.620 -0.2765 -0.2725  1.0931
  108OSM    C8F11125   5.135   6.487   9.480 -1.0035  0.0933 -0.2891
  108OSM    H8F11126   5.225   6.426   9.500  0.0759  0.7106 -2.8450
  108OSM    H8G11127   5.170   6.567   9.411  0.3173  0.3442  0.6414
  108OSM    C9F11128   5.019   6.405   9.430  0.0712  0.0032 -0.3487
  108OSM    H9F11129   4.966   6.352   9.510 -1.7567 -0.9416 -2.0894
  108OSM   C10F11130   4.969   6.391   9.307 -0.5355 -0.4546  0.0740
  108OSM   H10F11131   4.878   6.331   9.295 -0.3758 -0.9680  1.3369
  108OSM   C11F11132   5.026   6.453   9.183  0.4497  0.1559  0.2250
  108OSM   H11F11133   5.093   6.538   9.208  2.3568 -0.6043 -1.9705
  108OSM   H11G11134   4.946   6.487   9.114 -1.4241  0.7314  2.5346
  108OSM   C12F11135   5.114   6.360   9.104 -0.7228 -0.7911 -0.1348
  108OSM   H12F11136   5.052   6.277   9.065 -0.7961 -0.6840 -0.2502
  108OSM   H12G11137   5.201   6.311   9.152  0.2880  0.5121 -0.5633
  108OSM   C13F11138   5.182   6.435   8.983 -1.0420 -0.5363 -0.0835
  108OSM   H13F11139   5.203   6.541   9.011 -0.3826 -0.4319 -0.9352
  108OSM   H13G11140   5.113   6.441   8.897 -3.0005 -0.0546  1.4314
  108OSM   C14F11141   5.303   6.358   8.945  0.3673 -0.3964 -0.1082
  108OSM   H14F11142   5.269   6.252   8.938 -0.9704 -0.0072  0.2351
  108OSM   H14G11143   5.378   6.369   9.027 -0.5356 -0.5539  0.7595
  108OSM   C15F11144   5.360   6.400   8.809 -0.0719  0.4812  0.0341
  108OSM   H15F11145   5.383   6.508   8.819  1.1866  0.6582 -3.4855
  108OSM   H15G11146   5.283   6.387   8.730 -0.9694  1.6397  0.6824
  108OSM   C16F11147   5.492   6.332   8.769  0.7690  0.0721  0.3354
  108OSM   H16F11148   5.467   6.259   8.689  0.6147  1.0539 -0.5330
  108OSM   H16G11149   5.519   6.269   8.857 -0.9937 -0.3095  0.6338
  108OSM   C17F11150   5.607   6.421   8.727  0.2875  0.0159  0.5861
  108OSM   H17F11151   5.695   6.355   8.744  1.7874  1.6427 -0.5761
  108OSM   H17G11152   5.614   6.509   8.794  0.6835  1.2225 -0.9832
  108OSM   C18F11153   5.604   6.469   8.581  0.9123  0.2025 -0.2232
  108OSM   H18F11154   5.533   6.555   8.578 -0.2141 -0.7010 -0.1475
  108OSM   H18G11155   5.583   6.387   8.509 -0.8616 -1.0748  1.6503
  108OSM   H18H11156   5.702   6.517   8.561  0.5325  1.7506  1.3843
  109OSM      N11157   3.238   4.968  11.136 -0.0058 -0.7385  0.4861
  109OSM    C1511158   3.319   4.914  11.016  0.7621  0.2188  0.1273
  109OSM   H15A11159   3.412   4.966  11.000 -1.1195  3.8330 -0.2135
  109OSM   H15B11160   3.257   4.913  10.927 -0.6803  0.1333  1.0984
  109OSM   H15C11161   3.345   4.809  11.016  3.7248  0.8511 -1.0803
  109OSM    C1411162   3.304   4.934  11.266 -0.1706 -0.6041 -0.1730
  109OSM   H14A11163   3.322   4.828  11.276  2.0596 -0.2760 -0.3649
  109OSM   H14B11164   3.250   4.955  11.358 -1.6685  1.2469 -1.3862
  109OSM   H14C11165   3.401   4.981  11.271 -0.3161 -0.3848  0.9766
  109OSM    C1311166   3.229   5.122  11.117 -0.3544  0.2099 -0.2750
  109OSM   H13A11167   3.184   5.173  11.201 -1.2536  1.2489 -1.3532
  109OSM   H13B11168   3.161   5.136  11.035  0.3681 -0.9216 -1.0921
  109OSM   H13C11169   3.318   5.163  11.070  0.2544 -0.3893  0.3284
  109OSM    C1211170   3.085   4.928  11.119 -0.9006 -0.7394 -0.0669
  109OSM   H12A11171   3.033   4.969  11.205 -0.9322 -0.3547 -0.2700
  109OSM   H12B11172   3.080   4.820  11.124  1.2892 -0.9336 -1.1693
  109OSM    C1111173   3.008   4.970  10.992 -0.2091  0.3070  0.3374
  109OSM   H11A11174   2.920   4.902  10.989  1.1801 -1.5270 -0.3408
  109OSM   H11B11175   3.068   4.945  10.903 -1.5010 -2.2837  0.1162
  109OSM      P11176   2.875   5.159  10.881 -0.4511  0.0049  0.1798
  109OSM    O1311177   2.744   5.089  10.894  0.1294  0.1897  0.4620
  109OSM    O1411178   2.876   5.309  10.892 -0.0199 -0.1474 -0.2313
  109OSM    O1111179   2.940   5.123  10.748  0.1891  0.2180  0.3512
  109OSM    O1211180   2.980   5.102  10.987 -0.0454 -0.3223 -0.6916
  109OSM    C1S11181   3.073   5.154  10.711 -0.7275 -0.1007 -0.9528
  109OSM    H1S11182   3.138   5.108  10.787 -2.3679 -1.5415 -0.3537
  109OSM    H1T11183   3.086   5.265  10.712 -0.5227 -0.1280 -0.7838
  109OSM     NF11184   3.250   5.084  10.570 -0.0115 -0.4976  0.3717
  109OSM    HNF11185   3.309   5.150  10.524  0.1553 -0.3390  0.7974
  109OSM    C2S11186   3.111   5.097  10.576  0.5085 -0.1869 -0.1382
  109OSM    H2S11187   3.070   4.994  10.575 -0.2254  0.0851  0.7100
  109OSM    C3S11188   3.039   5.186  10.465  0.0171 -0.5632  0.7830
  109OSM    H3S11189   3.067   5.292  10.485  1.2828 -1.2852  3.3924
  109OSM     O311190   2.897   5.188  10.494 -0.8713  0.4068 -0.0027
  109OSM    HO311191   2.893   5.153  10.584  2.3803  0.1254  0.1573
  109OSM    C4S11192   3.049   5.141  10.315  0.6460 -0.2827  0.2684
  109OSM    H4S11193   3.157   5.134  10.293  0.7286  1.1363  0.1621
  109OSM    C5S11194   2.968   5.091  10.219 -0.0574 -0.5161  0.1741
  109OSM    H5S11195   2.860   5.089  10.242  0.0173  1.3356  0.8452
  109OSM    C6S11196   3.003   5.053  10.081 -0.8645 -0.4792  0.1836
  109OSM    H6S11197   3.063   5.131  10.029  0.8386 -1.2481  0.9053
  109OSM    H6T11198   2.909   5.044  10.023 -1.1890  0.0512  0.6149
  109OSM    C7S11199   3.080   4.915  10.078  0.9231  0.4779 -0.6169
  109OSM    H7S11200   3.022   4.843  10.140  1.0890  0.1725 -0.8202
  109OSM    H7T11201   3.184   4.922  10.117  0.3509  1.4094  0.8412
  109OSM    C8S11202   3.100   4.866   9.934  0.5179 -0.0840  0.5595
  109OSM    H8S11203   3.001   4.859   9.883  0.6282 -1.0125  0.4456
  109OSM    H8T11204   3.135   4.760   9.933  2.0735  0.3645 -1.7038
  109OSM    C9S11205   3.210   4.947   9.853  0.5813 -0.8781 -0.5764
  109OSM    H9S11206   3.307   4.941   9.907  0.5097 -0.3338 -0.3808
  109OSM    H9T11207   3.182   5.053   9.870 -1.0658 -1.5023  0.9926
  109OSM   C10S11208   3.226   4.915   9.708  0.4202  0.0037  0.5019
  109OSM   H10S11209   3.296   4.830   9.695  0.5515  0.1406  0.2860
  109OSM   H10T11210   3.289   4.996   9.665 -0.6270  0.1081 -0.9218
  109OSM   C11S11211   3.098   4.912   9.629 -0.2210  0.7354 -0.4747
  109OSM   H11S11212   3.026   4.985   9.672  0.3771  0.7375  0.5363
  109OSM   H11T11213   3.053   4.811   9.642  0.8262  0.3824  0.5353
  109OSM   C12S11214   3.112   4.919   9.478 -1.1536  0.2507  0.5639
  109OSM   H12S11215   3.151   5.020   9.450  0.7170 -0.9156 -1.3374
  109OSM   H12T11216   3.012   4.906   9.431 -0.8757  1.0432 -0.2882
  109OSM   C13S11217   3.198   4.809   9.401 -0.5102  0.3985 -0.3368
  109OSM   H13S11218   3.160   4.708   9.425  1.4304 -0.0651  1.0238
  109OSM   H13T11219   3.302   4.817   9.441 -0.6538 -0.1896  0.1576
  109OSM   C14S11220   3.194   4.835   9.251 -0.5720 -0.5087  0.6454
  109OSM   H14S11221   3.269   4.910   9.219 -1.4783  0.0560 -0.1999
  109OSM   H14T11222   3.099   4.892   9.236 -0.3419 -0.5196 -0.9925
  109OSM   C15S11223   3.197   4.715   9.152  0.2006 -0.4754 -0.5360
  109OSM   H15S11224   3.100   4.663   9.151 -1.0978  1.6379  2.4340
  109OSM   H15T11225   3.272   4.643   9.190 -0.4697 -0.9920 -0.1789
  109OSM   C16S11226   3.240   4.744   9.007  0.5311 -0.0047 -0.2959
  109OSM   H16S11227   3.345   4.781   9.004  1.2608 -2.0261 -1.7244
  109OSM   H16T11228   3.177   4.827   8.968 -0.7557 -0.6016  0.4591
  109OSM   C17S11229   3.231   4.615   8.918 -0.6331  0.1296 -0.5019
  109OSM   H17S11230   3.123   4.594   8.900 -0.4131 -4.1033  1.9259
  109OSM   H17T11231   3.274   4.525   8.968 -0.5328  1.1770  1.3912
  109OSM   C18S11232   3.283   4.620   8.776 -0.7719  0.2049 -0.4835
  109OSM   H18S11233   3.311   4.524   8.728  1.1383  0.1194  0.7177
  109OSM   H18T11234   3.372   4.683   8.759 -0.1581 -0.3989  0.4337
  109OSM   H18U11235   3.200   4.663   8.715 -0.2688 -0.6650 -1.8357
  109OSM    C1F11236   3.314   4.996  10.640 -0.3671 -0.2754  0.1338
  109OSM     OF11237   3.260   4.909  10.706  0.2639  0.1438  0.4406
  109OSM    C2F11238   3.464   5.017  10.656  0.0065 -1.4083 -0.5133
  109OSM    H2F11239   3.491   5.000  10.762 -1.5146 -1.2545 -0.0803
  109OSM    H2G11240   3.494   5.117  10.617 -0.1007 -0.9601  0.5363
  109OSM    C3F11241   3.544   4.909  10.588 -0.1201 -0.3902  0.4742
  109OSM    H3F11242   3.522   4.816  10.646  0.5091 -0.8791 -0.0592
  109OSM    H3G11243   3.655   4.920  10.592 -0.1091 -0.6051  0.8555
  109OSM    C4F11244   3.516   4.892  10.437 -0.1173  0.7400  0.3808
  109OSM    H4F11245   3.535   4.986  10.381 -0.5673  0.7108  0.1746
  109OSM    H4G11246   3.409   4.863  10.436 -0.1722  0.4431  3.5912
  109OSM    C5F11247   3.594   4.781  10.367 -0.5413  0.1068 -0.0405
  109OSM    H5F11248   3.592   4.683  10.418  0.5218  0.4616  0.7146
  109OSM    H5G11249   3.704   4.802  10.361 -0.2268 -1.4750 -0.1037
  109OSM    C6F11250   3.543   4.748  10.228  0.1253 -0.0835  0.0179
  109OSM    H6F11251   3.586   4.826  10.161 -0.1380 -0.9555 -1.2008
  109OSM    H6G11252   3.433   4.761  10.229  0.1521  0.1524  0.1588
  109OSM    C7F11253   3.558   4.609  10.180 -0.4034  0.9453 -0.4558
  109OSM    H7F11254   3.492   4.547  10.244 -1.5415  0.5219 -1.9853
  109OSM    H7G11255   3.657   4.566  10.206 -1.3354  0.3979  2.5218
  109OSM    C8F11256   3.538   4.588  10.023 -0.9077  0.0500  0.1286
  109OSM    H8F11257   3.569   4.486   9.993 -1.9401 -0.4498  0.7192
  109OSM    H8G11258   3.603   4.658   9.967  2.1245 -1.8130  1.1065
  109OSM    C9F11259   3.394   4.603   9.977 -0.0649  0.4781  0.2342
  109OSM    H9F11260   3.340   4.666  10.049 -0.0506  1.3349 -0.4915
  109OSM   C10F11261   3.333   4.546   9.870 -0.2621 -1.3145  0.1100
  109OSM   H10F11262   3.229   4.572   9.846  0.8353  2.6851 -1.1126
  109OSM   C11F11263   3.400   4.467   9.766  0.6800  0.5757  0.4272
  109OSM   H11F11264   3.364   4.362   9.766  2.0864  0.0580 -0.9243
  109OSM   H11G11265   3.511   4.467   9.768  0.6875  0.2159  0.1313
  109OSM   C12F11266   3.367   4.518   9.621 -0.3941 -1.0043  1.0822
  109OSM   H12F11267   3.417   4.613   9.591 -1.0923 -1.0907 -0.4763
  109OSM   H12G11268   3.256   4.529   9.617 -0.2299  0.6664 -0.0092
  109OSM   C13F11269   3.426   4.410   9.513 -0.2124 -0.5881  0.2293
  109OSM   H13F11270   3.383   4.442   9.415  0.4487  1.9717  0.6917
  109OSM   H13G11271   3.372   4.314   9.529 -2.0033  0.0611 -1.3891
  109OSM   C14F11272   3.571   4.393   9.513 -0.2344  0.2728 -0.2969
  109OSM   H14F11273   3.592   4.328   9.601 -2.1813 -4.2324 -2.8391
  109OSM   H14G11274   3.637   4.483   9.508 -0.3916  0.3135 -1.8424
  109OSM   C15F11275   3.613   4.304   9.392  0.0623 -0.2731  0.6723
  109OSM   H15F11276   3.551   4.213   9.383  0.1004 -0.3095  0.7705
  109OSM   H15G11277   3.716   4.264   9.409 -1.0168 -2.8191  1.6177
  109OSM   C16F11278   3.599   4.365   9.257  0.5188  0.1216  1.5863
  109OSM   H16F11279   3.677   4.444   9.246  0.2480  0.3035  0.8627
  109OSM   H16G11280   3.498   4.410   9.254 -0.1623 -1.3419 -1.0684
  109OSM   C17F11281   3.613   4.265   9.132  0.4308 -0.9465 -0.6123
  109OSM   H17F11282   3.526   4.195   9.135 -1.2103  0.9957  0.8107
  109OSM   H17G11283   3.709   4.210   9.142  0.7989 -0.2056 -0.0405
  109OSM   C18F11284   3.611   4.332   8.991  0.3622 -0.4385 -0.1384
  109OSM   H18F11285   3.713   4.365   8.959 -0.5291  1.6877 -0.9772
  109OSM   H18G11286   3.563   4.431   9.001  2.3719  0.4006  2.4177
  109OSM   H18H11287   3.556   4.268   8.919 -1.2130  0.5053  0.1823
  110OSM      N11288   3.963   2.366  10.884 -0.4866  0.6455 -0.3358
  110OSM    C1511289   3.865   2.467  10.845  0.0840  0.0224 -0.0498
  110OSM   H15A11290   3.783   2.415  10.799  1.1737 -0.3814 -1.6506
  110OSM   H15B11291   3.906   2.528  10.765  0.2861 -1.3986 -1.0602
  110OSM   H15C11292   3.833   2.533  10.924  1.2079  1.6094 -0.8599
  110OSM    C1411293   3.895   2.269  10.983  0.3693 -0.4998  0.0979
  110OSM   H14A11294   3.820   2.204  10.941  2.1941 -2.3519 -0.4576
  110OSM   H14B11295   3.848   2.319  11.066  2.7221  0.3437  0.9958
  110OSM   H14C11296   3.974   2.208  11.025 -0.2778 -0.7890  0.9237
  110OSM    C1311297   4.001   2.282  10.761 -0.0491 -0.4535 -0.3320
  110OSM   H13A11298   4.074   2.212  10.799 -0.4807 -0.1080  1.2152
  110OSM   H13B11299   4.055   2.342  10.690  0.4377 -0.0927  0.3266
  110OSM   H13C11300   3.925   2.224  10.711  1.5330 -1.4149 -1.7239
  110OSM    C1211301   4.085   2.426  10.944 -0.2227 -0.0616  0.2561
  110OSM   H12A11302   4.055   2.471  11.038 -3.9191 -2.0646  0.2434
  110OSM   H12B11303   4.108   2.515  10.888  0.4980 -0.2181  0.2929
  110OSM    C1111304   4.209   2.345  10.962 -0.0629 -0.4204 -0.0623
  110OSM   H11A11305   4.293   2.409  10.998  0.2998 -0.3153 -1.0440
  110OSM   H11B11306   4.243   2.319  10.859 -0.7122 -0.5978 -0.2335
  110OSM      P11307   4.223   2.090  10.991 -0.0997  0.0224  0.3599
  110OSM    O1311308   4.360   2.064  11.039  0.3426 -0.4457 -0.3260
  110OSM    O1411309   4.121   1.986  11.030 -0.2621  0.0513 -0.6243
  110OSM    O1111310   4.221   2.101  10.837  0.4095  0.1118  0.7889
  110OSM    O1211311   4.178   2.236  11.047 -0.4015  1.0170 -0.3572
  110OSM    C1S11312   4.230   1.980  10.757 -0.5583  0.3424 -0.3317
  110OSM    H1S11313   4.126   1.950  10.729 -0.2698  0.5715 -1.6865
  110OSM    H1T11314   4.272   1.891  10.809  0.3077  0.6433 -0.5074
  110OSM     NF11315   4.288   1.879  10.553 -0.0059  0.4098  0.4087
  110OSM    HNF11316   4.353   1.804  10.561  0.6845  1.2108  3.7943
  110OSM    C2S11317   4.309   1.998  10.629  0.2898  0.6180  0.6404
  110OSM    H2S11318   4.276   2.087  10.571  2.9331  1.2234 -0.0734
  110OSM    C3S11319   4.459   2.029  10.666  0.8027  0.3571 -0.1732
  110OSM    H3S11320   4.485   1.934  10.717  0.0876  0.9253  1.3067
  110OSM     O311321   4.475   2.138  10.752  0.2079 -0.0926 -0.2779
  110OSM    HO311322   4.391   2.172  10.784  0.9228 -0.2781  1.9744
  110OSM    C4S11323   4.542   2.047  10.535  0.3919 -0.2053 -0.4868
  110OSM    H4S11324   4.505   2.131  10.475 -2.1966  1.1916  2.7258
  110OSM    C5S11325   4.631   1.958  10.485  0.4452  0.6806 -0.4838
  110OSM    H5S11326   4.653   1.872  10.550  1.4263  2.3885  1.5590
  110OSM    C6S11327   4.693   1.966  10.355 -1.0491  0.1304  0.9201
  110OSM    H6S11328   4.618   1.973  10.273 -1.5568  1.4546  1.4832
  110OSM    H6T11329   4.765   1.882  10.342 -1.2946  0.1051 -0.3715
  110OSM    C7S11330   4.790   2.093  10.345 -0.8535  0.1795 -0.4276
  110OSM    H7S11331   4.846   2.111  10.439  1.1209 -0.2934 -1.4723
  110OSM    H7T11332   4.720   2.179  10.332  0.9469  1.7689 -0.0471
  110OSM    C8S11333   4.879   2.081  10.219  0.2700 -0.3337  0.1288
  110OSM    H8S11334   4.805   2.048  10.143 -1.1221 -0.8707  1.6742
  110OSM    H8T11335   4.957   2.003  10.235 -1.4350 -1.9398  0.8524
  110OSM    C9S11336   4.929   2.219  10.173  0.0123 -0.1293  0.9623
  110OSM    H9S11337   5.019   2.243  10.233  0.1036  0.9010  0.4270
  110OSM    H9T11338   4.842   2.286  10.187 -0.0513  0.1601 -0.5981
  110OSM   C10S11339   4.961   2.217  10.020  0.0650  0.1854  0.4958
  110OSM   H10S11340   4.886   2.170   9.954  0.5989 -0.2613  0.1936
  110OSM   H10T11341   5.059   2.171   9.994 -0.0547 -0.6864  1.5307
  110OSM   C11S11342   4.962   2.361   9.967 -0.4380  0.5285  0.3934
  110OSM   H11S11343   5.034   2.402  10.041 -1.4276 -0.3939  1.9347
  110OSM   H11T11344   4.863   2.412   9.972 -1.0712 -0.5423 -0.6362
  110OSM   C12S11345   5.015   2.368   9.822  0.3696  0.1871 -0.2467
  110OSM   H12S11346   4.947   2.302   9.765  0.1922 -0.7760  1.0359
  110OSM   H12T11347   5.119   2.330   9.814  0.4806  0.2253  0.7959
  110OSM   C13S11348   5.010   2.496   9.740  0.8979 -0.1648 -0.4898
  110OSM   H13S11349   5.038   2.477   9.634  1.0985  1.9131 -0.8641
  110OSM   H13T11350   5.092   2.554   9.789 -0.1926  0.9610  0.0758
  110OSM   C14S11351   4.873   2.570   9.735 -0.1896  0.2614 -0.4361
  110OSM   H14S11352   4.833   2.591   9.837  0.2404  2.1802 -0.6245
  110OSM   H14T11353   4.794   2.508   9.687 -0.1614  0.6540 -1.0018
  110OSM   C15S11354   4.892   2.703   9.660 -0.1478 -0.2994  0.0925
  110OSM   H15S11355   4.905   2.689   9.551 -2.0276  0.5769 -0.2902
  110OSM   H15T11356   4.983   2.750   9.702  0.3690 -0.1326 -1.1636
  110OSM   C16S11357   4.769   2.793   9.673  0.1403  0.5435 -0.0564
  110OSM   H16S11358   4.680   2.739   9.635 -2.7003  3.4017  1.9545
  110OSM   H16T11359   4.775   2.883   9.609 -0.9886  0.2987 -0.5273
  110OSM   C17S11360   4.729   2.837   9.811 -0.3357  0.0541  0.5235
  110OSM   H17S11361   4.692   2.765   9.888 -1.9176  0.4719  0.1993
  110OSM   H17T11362   4.644   2.907   9.799  0.9601  1.4437 -1.0393
  110OSM   C18S11363   4.829   2.929   9.875 -0.4473  0.0789 -0.0205
  110OSM   H18S11364   4.848   3.024   9.822 -0.0288  1.1354  1.9391
  110OSM   H18T11365   4.932   2.892   9.891 -0.3903 -0.4012 -1.3424
  110OSM   H18U11366   4.779   2.948   9.972 -0.9440 -0.9522 -0.0536
  110OSM    C1F11367   4.174   1.873  10.484 -0.0904  0.8297  0.0985
  110OSM     OF11368   4.082   1.955  10.490 -0.4098 -0.1805  0.1436
  110OSM    C2F11369   4.159   1.757  10.387  0.0877 -1.0725 -0.6249
  110OSM    H2F11370   4.079   1.693  10.430 -1.0116 -1.5401 -3.1553
  110OSM    H2G11371   4.247   1.692  10.369  0.1706 -0.9080 -0.8173
  110OSM    C3F11372   4.111   1.806  10.247 -0.0751  0.7699 -0.4216
  110OSM    H3F11373   4.017   1.866  10.253  0.6721  1.7955  2.6385
  110OSM    H3G11374   4.081   1.714  10.192 -1.8751  0.6834  0.5979
  110OSM    C4F11375   4.215   1.887  10.174 -0.4960 -0.3738 -0.0805
  110OSM    H4F11376   4.302   1.824  10.147 -0.4814 -0.6462  0.5805
  110OSM    H4G11377   4.250   1.977  10.229  0.6292  1.8585 -3.9913
  110OSM    C5F11378   4.156   1.957  10.046 -0.4148  0.1378 -1.0954
  110OSM    H5F11379   4.055   1.994  10.076  0.1543  2.1391 -1.4865
  110OSM    H5G11380   4.142   1.884   9.964  0.1283 -1.9154  0.5693
  110OSM    C6F11381   4.227   2.091  10.001 -0.0926  0.1953 -0.0276
  110OSM    H6F11382   4.335   2.071   9.985 -0.6908 -3.5424 -0.4759
  110OSM    H6G11383   4.209   2.159  10.086 -1.4126 -2.1499  1.7063
  110OSM    C7F11384   4.156   2.150   9.881  0.1210 -0.0155  0.2851
  110OSM    H7F11385   4.182   2.258   9.875  2.1757 -0.3654  1.9892
  110OSM    H7G11386   4.048   2.146   9.909 -0.0807 -1.5263 -0.6282
  110OSM    C8F11387   4.189   2.076   9.754  0.4855 -0.1421 -0.2151
  110OSM    H8F11388   4.128   1.982   9.751  0.5020 -0.1641  0.1022
  110OSM    H8G11389   4.294   2.042   9.750  0.1521 -1.6484  1.9681
  110OSM    C9F11390   4.161   2.163   9.635  0.0770  0.6333 -0.7490
  110OSM    H9F11391   4.055   2.173   9.606 -0.9281 -1.6875  1.6910
  110OSM   C10F11392   4.246   2.241   9.567  0.1070  0.0219 -0.2356
  110OSM   H10F11393   4.224   2.307   9.482 -0.3025  2.1628  1.4461
  110OSM   C11F11394   4.389   2.251   9.610 -0.3442  0.0763 -0.2682
  110OSM   H11F11395   4.404   2.220   9.716  0.7299  0.7719 -0.2018
  110OSM   H11G11396   4.420   2.358   9.614  0.1896 -0.0794 -0.1245
  110OSM   C12F11397   4.479   2.190   9.496 -1.2166  0.2409  0.7980
  110OSM   H12F11398   4.548   2.265   9.451  0.5015 -2.1308 -0.7435
  110OSM   H12G11399   4.425   2.150   9.408  1.6982  0.0260 -1.0323
  110OSM   C13F11400   4.575   2.080   9.539 -0.2414 -0.3408  0.2490
  110OSM   H13F11401   4.523   2.020   9.617  1.5361  0.5521  2.2383
  110OSM   H13G11402   4.665   2.120   9.590  0.8459 -0.5682 -1.4149
  110OSM   C14F11403   4.619   1.978   9.430  0.6298  0.2604 -0.4686
  110OSM   H14F11404   4.526   1.928   9.397  0.3373  1.5626 -1.7266
  110OSM   H14G11405   4.670   1.899   9.490 -0.1206 -1.0249 -1.4919
  110OSM   C15F11406   4.704   2.021   9.313 -0.3762  0.0181  0.6737
  110OSM   H15F11407   4.811   2.037   9.337  0.1454  2.0655 -2.4127
  110OSM   H15G11408   4.669   2.122   9.285  0.3468 -0.1809 -1.0872
  110OSM   C16F11409   4.689   1.919   9.191 -0.1898 -0.9264  0.1758
  110OSM   H16F11410   4.583   1.884   9.186 -0.8250  0.9481 -0.3242
  110OSM   H16G11411   4.760   1.835   9.207  2.8742  1.2487 -1.0375
  110OSM   C17F11412   4.720   1.981   9.051  0.3992 -0.0675  0.0766
  110OSM   H17F11413   4.640   2.052   9.023 -0.5975 -0.4307  1.8241
  110OSM   H17G11414   4.726   1.910   8.966  1.2231  1.1786 -0.9351
  110OSM   C18F11415   4.845   2.068   9.047 -0.6577 -0.3479 -0.1632
  110OSM   H18F11416   4.865   2.094   8.940 -0.5300  1.6749  0.3143
  110OSM   H18G11417   4.935   2.018   9.090 -0.5086 -0.8174 -0.9883
  110OSM   H18H11418   4.825   2.168   9.091 -1.0760  0.6214 -2.3682
  111OSM      N11419   5.000   0.304  10.647 -0.2079  0.4133  0.4455
  111OSM    C1511420   4.879   0.370  10.596  0.3248 -0.0740 -0.1091
  111OSM   H15A11421   4.876   0.374  10.488  1.8631  2.8092 -0.1479
  111OSM   H15B11422   4.890   0.475  10.620  0.9134 -0.6428  2.3826
  111OSM   H15C11423   4.783   0.353  10.643 -0.4858 -0.9502 -1.9911
  111OSM    C1411424   5.123   0.358  10.571  0.1624 -0.1225 -0.0514
  111OSM   H14A11425   5.101   0.352  10.465 -1.4975 -3.5101  0.3567
  111OSM   H14B11426   5.212   0.297  10.581 -0.4007 -1.0262 -0.4626
  111OSM   H14C11427   5.144   0.460  10.602 -1.5017  0.0565  0.5638
  111OSM    C1311428   5.005   0.336  10.794 -0.1698 -0.3403 -0.5822
  111OSM   H13A11429   5.088   0.299  10.852 -1.2129 -0.8748  0.6252
  111OSM   H13B11430   4.916   0.308  10.849 -0.3002  2.7401  1.0060
  111OSM   H13C11431   5.007   0.443  10.812 -0.6741 -0.3758 -0.2790
  111OSM    C1211432   4.987   0.151  10.625 -0.5667 -0.2907  0.1463
  111OSM   H12A11433   5.078   0.105  10.660  1.5440  0.8538 -3.2687
  111OSM   H12B11434   4.989   0.137  10.518 -2.1448 -2.4608  0.3519
  111OSM    C1111435   4.867   0.075  10.687  0.9664 -0.0371  0.5029
  111OSM   H11A11436   4.845   0.115  10.788 -1.3735 -0.6403  0.2917
  111OSM   H11B11437   4.899  -0.031  10.673  0.9603  0.0806 -0.4976
  111OSM      P11438   4.649  -0.014  10.561 -0.0511 -0.1044  0.0583
  111OSM    O1311439   4.728  -0.117  10.490 -0.4160 -0.3956  0.2844
  111OSM    O1411440   4.557  -0.060  10.669  0.0749  0.2861  0.5634
  111OSM    O1111441   4.565   0.057  10.448 -0.3206  0.7237  0.2855
  111OSM    O1211442   4.747   0.104  10.609 -0.1569 -0.0020 -0.1638
  111OSM    C1S11443   4.553   0.199  10.442  0.8471 -0.3743 -0.1577
  111OSM    H1S11444   4.642   0.251  10.482  1.0084 -0.8038  0.0486
  111OSM    H1T11445   4.475   0.239  10.510  1.0268  2.0429 -1.2881
  111OSM     NF11446   4.525   0.404  10.300 -0.6122  0.3628  0.2364
  111OSM    HNF11447   4.443   0.449  10.264 -1.5906 -1.0567  0.5831
  111OSM    C2S11448   4.554   0.258  10.293  0.1813  0.5135  0.0791
  111OSM    H2S11449   4.658   0.227  10.270  0.9892  2.5384  0.7329
  111OSM    C3S11450   4.451   0.176  10.200  0.5621 -0.0434 -1.3732
  111OSM    H3S11451   4.351   0.171  10.249  1.1395  0.4705 -0.0733
  111OSM     O311452   4.472   0.032  10.195 -0.2267  0.7316 -0.2462
  111OSM    HO311453   4.516   0.012  10.278  0.8777 -0.2438 -1.0521
  111OSM    C4S11454   4.449   0.234  10.071 -0.4893  0.6147 -0.1624
  111OSM    H4S11455   4.368   0.309  10.070  1.1829  2.6300  2.3282
  111OSM    C5S11456   4.533   0.218   9.963  0.0732  0.8058  0.1428
  111OSM    H5S11457   4.596   0.129   9.972  1.7715  1.9119 -0.2097
  111OSM    C6S11458   4.514   0.290   9.830  0.2833  0.0725 -0.4889
  111OSM    H6S11459   4.477   0.226   9.747  0.0922  0.2970 -0.5798
  111OSM    H6T11460   4.618   0.321   9.809 -0.0897  1.2611 -0.6517
  111OSM    C7S11461   4.448   0.431   9.835 -0.2298  0.1766 -0.0868
  111OSM    H7S11462   4.494   0.489   9.918 -1.2719 -0.4701  0.9880
  111OSM    H7T11463   4.340   0.413   9.850 -0.3212  0.1969 -0.6907
  111OSM    C8S11464   4.471   0.506   9.705  0.4818 -0.0093 -0.3111
  111OSM    H8S11465   4.582   0.518   9.701  0.3808  0.6369 -3.2830
  111OSM    H8T11466   4.428   0.608   9.708  0.3215 -0.0414 -1.2529
  111OSM    C9S11467   4.425   0.440   9.575  0.4217  1.0803  1.0179
  111OSM    H9S11468   4.318   0.412   9.566  1.0332 -0.7983 -1.6421
  111OSM    H9T11469   4.482   0.346   9.563 -0.5334  0.6571 -0.4765
  111OSM   C10S11470   4.469   0.507   9.444  0.4886  0.3377  0.3463
  111OSM   H10S11471   4.546   0.581   9.475  0.7110  0.3076 -0.1187
  111OSM   H10T11472   4.384   0.566   9.404 -0.2232 -0.8195  0.1145
  111OSM   C11S11473   4.534   0.412   9.342  0.9821  0.1355  0.0879
  111OSM   H11S11474   4.473   0.320   9.329  1.4222  0.1845 -3.1789
  111OSM   H11T11475   4.634   0.385   9.383 -0.3619 -3.0492  1.6168
  111OSM   C12S11476   4.539   0.475   9.196 -0.0896 -0.0825 -1.0073
  111OSM   H12S11477   4.580   0.577   9.216 -2.0535  0.7188 -0.8029
  111OSM   H12T11478   4.436   0.485   9.158  0.0068 -0.5532 -1.4054
  111OSM   C13S11479   4.634   0.388   9.109 -0.3904  0.8677 -0.9263
  111OSM   H13S11480   4.606   0.281   9.113 -0.5784  0.8224 -2.6030
  111OSM   H13T11481   4.736   0.403   9.150  0.0439 -1.1059 -1.2023
  111OSM   C14S11482   4.638   0.437   8.967  0.0236  0.6766 -0.3325
  111OSM   H14S11483   4.701   0.528   8.962  0.2826  0.5341  0.2583
  111OSM   H14T11484   4.535   0.456   8.930  0.4386  1.1312 -1.2687
  111OSM   C15S11485   4.712   0.339   8.881 -0.0126  0.1378  0.7767
  111OSM   H15S11486   4.672   0.235   8.888  1.0649 -0.5877 -2.3112
  111OSM   H15T11487   4.811   0.315   8.924  0.0259 -0.9540  0.1229
  111OSM   C16S11488   4.722   0.368   8.725 -0.1149  0.9597 -0.6455
  111OSM   H16S11489   4.830   0.366   8.703  0.6064 -1.5063  2.4083
  111OSM   H16T11490   4.699   0.474   8.698 -2.7711  0.5061 -0.4667
  111OSM   C17S11491   4.629   0.278   8.647 -0.3086 -0.6053 -0.6665
  111OSM   H17S11492   4.526   0.291   8.688 -1.0277  2.3336 -3.0027
  111OSM   H17T11493   4.672   0.178   8.670  0.1584  0.1726  2.3000
  111OSM   C18S11494   4.626   0.298   8.500 -0.2479 -0.2767  0.2803
  111OSM   H18S11495   4.585   0.401   8.493 -0.9067 -0.0272  4.8146
  111OSM   H18T11496   4.574   0.217   8.445  1.6568 -2.0618  0.9917
  111OSM   H18U11497   4.726   0.292   8.451 -0.4223  1.7321 -0.4355
  111OSM    C1F11498   4.626   0.481  10.340 -0.2478  0.3161  0.5572
  111OSM     OF11499   4.744   0.444  10.347  0.2051 -0.1627 -0.1660
  111OSM    C2F11500   4.589   0.625  10.372 -0.0646 -0.4190 -0.3415
  111OSM    H2F11501   4.681   0.664  10.422 -0.0406 -2.1759  1.1144
  111OSM    H2G11502   4.508   0.625  10.448  1.6713 -1.4413  1.6131
  111OSM    C3F11503   4.556   0.699  10.244  0.2616 -1.0396  0.5161
  111OSM    H3F11504   4.537   0.803  10.276 -0.6933 -0.3004 -2.2634
  111OSM    H3G11505   4.463   0.650  10.209  0.2833 -2.6671  2.5140
  111OSM    C4F11506   4.671   0.699  10.135  0.0298  0.1117 -0.0611
  111OSM    H4F11507   4.691   0.591  10.122 -4.8321 -0.7362 -3.3200
  111OSM    H4G11508   4.757   0.757  10.175  0.9255 -0.6768 -0.8029
  111OSM    C5F11509   4.614   0.762  10.011 -0.3283 -0.2256  0.1147
  111OSM    H5F11510   4.567   0.859  10.037 -1.1373 -0.8169  0.9149
  111OSM    H5G11511   4.550   0.695   9.950  0.0092  0.3638 -0.9089
  111OSM    C6F11512   4.725   0.815   9.910  0.2113  0.7029  0.5846
  111OSM    H6F11513   4.769   0.724   9.864 -3.9516 -2.6637  2.5823
  111OSM    H6G11514   4.807   0.868   9.963  0.0789  1.4793  0.0307
  111OSM    C7F11515   4.677   0.916   9.805  0.2672 -0.2851 -0.3278
  111OSM    H7F11516   4.754   0.981   9.759  2.1703 -2.8472 -0.9714
  111OSM    H7G11517   4.598   0.977   9.853  1.0486 -0.0423  0.6764
  111OSM    C8F11518   4.629   0.838   9.674 -0.0460  0.1863 -0.0724
  111OSM    H8F11519   4.551   0.765   9.706  1.4365 -0.0032  3.5962
  111OSM    H8G11520   4.715   0.773   9.646  1.4459  1.3425  1.6598
  111OSM    C9F11521   4.576   0.941   9.576 -0.3502  0.1426 -0.1126
  111OSM    H9F11522   4.473   0.973   9.599 -0.2421  0.6458 -0.3388
  111OSM   C10F11523   4.631   0.993   9.462  0.1469 -0.0217 -0.8917
  111OSM   H10F11524   4.574   1.075   9.417 -0.7365 -0.5442 -0.7597
  111OSM   C11F11525   4.765   0.975   9.400  0.6967  0.3686  0.4754
  111OSM   H11F11526   4.838   0.930   9.470  0.3220  1.6627  1.7436
  111OSM   H11G11527   4.802   1.064   9.344  0.5188  1.3718  1.8865
  111OSM   C12F11528   4.737   0.865   9.296 -0.4799 -0.4325  0.1927
  111OSM   H12F11529   4.691   0.772   9.337 -2.5322  0.7643  0.7191
  111OSM   H12G11530   4.843   0.845   9.267 -0.6674 -0.9600 -0.1462
  111OSM   C13F11531   4.664   0.916   9.171 -0.2105  0.6563  0.1642
  111OSM   H13F11532   4.709   1.014   9.143 -2.3970  1.2003 -1.7905
  111OSM   H13G11533   4.556   0.929   9.193 -1.0068 -1.9479 -1.7209
  111OSM   C14F11534   4.680   0.816   9.057 -0.0559  0.3847 -0.2054
  111OSM   H14F11535   4.636   0.718   9.085  0.1722  0.3650  0.0890
  111OSM   H14G11536   4.788   0.792   9.046 -0.6329 -2.3158 -0.8630
  111OSM   C15F11537   4.619   0.869   8.926 -0.3929 -0.4936 -0.1562
  111OSM   H15F11538   4.646   0.973   8.898 -3.1308  0.1325 -0.7436
  111OSM   H15G11539   4.511   0.880   8.947 -1.0525 -4.6870 -0.5343
  111OSM   C16F11540   4.658   0.784   8.808  0.2188 -0.1014 -0.2937
  111OSM   H16F11541   4.622   0.680   8.821  2.5478 -1.4403 -3.2757
  111OSM   H16G11542   4.768   0.773   8.814 -0.0290 -2.1863  2.1610
  111OSM   C17F11543   4.616   0.838   8.669 -0.4170  0.4087  0.0505
  111OSM   H17F11544   4.668   0.933   8.642  0.2641 -0.2977 -1.2472
  111OSM   H17G11545   4.510   0.868   8.679 -0.3640  0.6164 -0.0180
  111OSM   C18F11546   4.618   0.742   8.550 -0.4322 -0.7921 -0.6302
  111OSM   H18F11547   4.721   0.740   8.509  0.0674  1.2080  0.3986
  111OSM   H18G11548   4.543   0.777   8.476  0.1420 -0.8156 -1.2243
  111OSM   H18H11549   4.587   0.644   8.592 -0.6692 -0.6955 -0.5764
  112OSM      N11550   3.770   6.777  10.693 -0.0830  0.3238 -0.2746
  112OSM    C1511551   3.824   6.878  10.791 -0.7929  0.0345  0.1423
  112OSM   H15A11552   3.765   6.968  10.785 -3.0435 -1.4218 -1.2998
  112OSM   H15B11553   3.930   6.897  10.791 -0.5103 -1.3806  0.9360
  112OSM   H15C11554   3.817   6.848  10.895  0.6612  1.6707  0.7450
  112OSM    C1411555   3.622   6.782  10.689 -0.0972 -1.4209  0.2299
  112OSM   H14A11556   3.587   6.882  10.668  2.8005 -0.4842 -0.6721
  112OSM   H14B11557   3.585   6.764  10.788 -0.5767 -1.3416  0.0691
  112OSM   H14C11558   3.579   6.706  10.625  1.5532 -2.5751  0.4279
  112OSM    C1311559   3.822   6.821  10.555  0.2738  0.2842  0.2466
  112OSM   H13A11560   3.764   6.768  10.481  0.2150 -0.8546  1.0691
  112OSM   H13B11561   3.925   6.803  10.528  0.4978  1.3240  0.3704
  112OSM   H13C11562   3.795   6.922  10.531 -2.8790 -0.5194 -0.1209
  112OSM    C1211563   3.813   6.634  10.722  0.7238  0.0758  0.5289
  112OSM   H12A11564   3.783   6.605  10.822  0.0416  1.1310  0.6419
  112OSM   H12B11565   3.920   6.624  10.709  0.5709  0.7408 -1.5948
  112OSM    C1111566   3.748   6.517  10.635 -0.5372 -0.0192 -0.6813
  112OSM   H11A11567   3.810   6.425  10.649 -1.7142 -0.6863  0.3586
  112OSM   H11B11568   3.734   6.547  10.529 -1.8586 -0.1183 -0.5575
  112OSM      P11569   3.591   6.377  10.793  0.2189  0.4369  0.3205
  112OSM    O1311570   3.695   6.399  10.889  0.3121 -0.5754 -0.5032
  112OSM    O1411571   3.453   6.388  10.844  0.5648  0.1182  0.0416
  112OSM    O1111572   3.617   6.241  10.716 -0.4726 -0.0958  0.1068
  112OSM    O1211573   3.618   6.491  10.680  0.1026  0.4225  0.5452
  112OSM    C1S11574   3.534   6.208  10.603  0.4046 -0.8277  0.1820
  112OSM    H1S11575   3.471   6.291  10.563 -1.6328 -0.8415  3.0998
  112OSM    H1T11576   3.458   6.139  10.643 -1.3976  2.1223  2.2414
  112OSM     NF11577   3.567   6.127  10.367 -0.0420 -0.1643 -0.3509
  112OSM    HNF11578   3.516   6.046  10.338  0.5973 -0.4291 -0.7398
  112OSM    C2S11579   3.623   6.129  10.502  0.7348 -0.5443 -0.2754
  112OSM    H2S11580   3.717   6.185  10.480  1.3168 -1.3693  0.0694
  112OSM    C3S11581   3.662   5.985  10.562  0.4705  0.2201 -0.0504
  112OSM    H3S11582   3.568   5.942  10.603  0.2842 -0.9855 -1.6484
  112OSM     O311583   3.744   6.005  10.677 -0.2954 -0.4909 -0.0760
  112OSM    HO311584   3.727   6.094  10.708 -1.7147 -0.8263  0.2269
  112OSM    C4S11585   3.727   5.889  10.469 -0.3779  0.4688 -0.0337
  112OSM    H4S11586   3.829   5.919  10.438 -0.1912  0.1199  0.2339
  112OSM    C5S11587   3.677   5.774  10.418 -0.0856 -0.2945  0.1110
  112OSM    H5S11588   3.572   5.746  10.436 -0.0016 -2.0145 -1.7904
  112OSM    C6S11589   3.752   5.683  10.330  0.0498 -0.3944  0.8068
  112OSM    H6S11590   3.759   5.580  10.371  1.0867 -0.7013 -0.0990
  112OSM    H6T11591   3.853   5.725  10.311 -0.3380 -0.4334 -1.6447
  112OSM    C7S11592   3.691   5.668  10.188 -0.1732  0.2527 -0.0216
  112OSM    H7S11593   3.589   5.627  10.178 -0.8593  1.5362  1.3043
  112OSM    H7T11594   3.748   5.603  10.118 -2.3117  0.4429 -2.0387
  112OSM    C8S11595   3.683   5.809  10.120  0.3478 -0.1663 -0.4035
  112OSM    H8S11596   3.778   5.863  10.139 -0.4141  1.2840 -0.5810
  112OSM    H8T11597   3.600   5.858  10.175 -0.7643 -2.5660  0.1804
  112OSM    C9S11598   3.650   5.805   9.970  0.4927 -0.4102  0.5366
  112OSM    H9S11599   3.540   5.811   9.954  0.3187 -1.8509  0.9687
  112OSM    H9T11600   3.685   5.703   9.941  0.5700 -0.2573  0.0843
  112OSM   C10S11601   3.721   5.917   9.885  0.6578 -0.5629  0.1869
  112OSM   H10S11602   3.830   5.915   9.907  0.4216 -1.7741  1.4003
  112OSM   H10T11603   3.677   6.013   9.922  2.0842 -0.7403  2.5176
  112OSM   C11S11604   3.706   5.893   9.730  0.5742  0.0579  0.0453
  112OSM   H11S11605   3.603   5.892   9.689  0.4516  2.6789  0.1182
  112OSM   H11T11606   3.747   5.790   9.723 -2.0868 -1.2335  1.8888
  112OSM   C12S11607   3.789   5.982   9.639  0.1929  0.3462  0.1125
  112OSM   H12S11608   3.893   6.002   9.672 -0.1215  4.5814 -0.9408
  112OSM   H12T11609   3.735   6.079   9.635  0.4111  0.4520 -0.3142
  112OSM   C13S11610   3.796   5.926   9.495 -0.0039  0.1069 -0.3554
  112OSM   H13S11611   3.691   5.913   9.461  0.1191 -0.0755 -0.6699
  112OSM   H13T11612   3.840   5.824   9.501  0.2848  0.0574 -2.4415
  112OSM   C14S11613   3.874   6.008   9.399 -0.2474 -0.1177 -0.5213
  112OSM   H14S11614   3.979   6.006   9.437  0.4815  0.7162 -2.3703
  112OSM   H14T11615   3.830   6.109   9.391 -1.8491 -0.7762 -0.2949
  112OSM   C15S11616   3.873   5.944   9.264 -0.2164 -0.6249  0.3160
  112OSM   H15S11617   3.765   5.927   9.246 -0.3005  0.5088 -0.3916
  112OSM   H15T11618   3.922   5.845   9.268  1.2301 -0.0121 -1.0767
  112OSM   C16S11619   3.942   6.031   9.160 -0.6457  0.4151 -0.1396
  112OSM   H16S11620   4.049   6.043   9.189 -1.3766  0.5861  2.7844
  112OSM   H16T11621   3.894   6.131   9.156  1.8760  1.7473  0.7459
  112OSM   C17S11622   3.936   5.962   9.018  0.4069  0.3033 -0.8090
  112OSM   H17S11623   3.835   5.925   8.989  0.3132 -0.2277  0.1503
  112OSM   H17T11624   4.003   5.874   9.029 -1.0714 -0.7178  0.4696
  112OSM   C18S11625   3.960   6.051   8.898 -0.6626 -0.4654  0.4281
  112OSM   H18S11626   3.949   5.983   8.811 -1.9754  0.4210 -0.1263
  112OSM   H18T11627   4.059   6.101   8.899 -0.3541 -1.0670  0.2110
  112OSM   H18U11628   3.878   6.124   8.878  1.1670  1.3531 -0.7719
  112OSM    C1F11629   3.546   6.232  10.285  0.1483 -0.0266  0.6143
  112OSM     OF11630   3.567   6.346  10.318 -0.4921 -0.7365 -0.1646
  112OSM    C2F11631   3.481   6.207  10.157  0.2139  0.0545  0.3446
  112OSM    H2F11632   3.370   6.219  10.158  0.0314 -1.3703  2.4062
  112OSM    H2G11633   3.501   6.104  10.119 -2.5324 -0.6286  0.5095
  112OSM    C3F11634   3.524   6.313  10.052 -0.7030  0.3022  0.2911
  112OSM    H3F11635   3.635   6.312  10.046 -0.7278 -2.1417 -2.8565
  112OSM    H3G11636   3.497   6.412  10.093 -0.9103  0.1285  0.5711
  112OSM    C4F11637   3.473   6.280   9.911  0.1624 -0.3686 -0.0309
  112OSM    H4F11638   3.364   6.267   9.927  0.0143  1.8341  1.1535
  112OSM    H4G11639   3.520   6.187   9.873  1.7282 -0.4405  1.9210
  112OSM    C5F11640   3.483   6.401   9.813  0.2594  0.0961  0.2638
  112OSM    H5F11641   3.588   6.435   9.802  0.3184 -0.5155 -1.4003
  112OSM    H5G11642   3.420   6.486   9.848  3.2476  1.8227  1.8791
  112OSM    C6F11643   3.427   6.357   9.673 -0.5252 -0.5229 -0.0449
  112OSM    H6F11644   3.377   6.439   9.617  0.4100  0.3955  0.4371
  112OSM    H6G11645   3.354   6.278   9.702 -0.2976 -0.3693  0.9828
  112OSM    C7F11646   3.541   6.292   9.597  0.7973  0.0195 -0.4365
  112OSM    H7F11647   3.569   6.192   9.636 -2.6693 -1.3378 -1.0062
  112OSM    H7G11648   3.630   6.358   9.604  1.3436 -0.6921 -0.5432
  112OSM    C8F11649   3.501   6.272   9.448 -0.4994  0.0475 -0.9555
  112OSM    H8F11650   3.595   6.225   9.412 -0.4492 -0.4589 -0.1812
  112OSM    H8G11651   3.490   6.368   9.394  0.9902 -0.2777 -1.9126
  112OSM    C9F11652   3.390   6.187   9.407 -0.0849  0.0509 -0.4119
  112OSM    H9F11653   3.301   6.200   9.472  0.4556 -0.0660  0.3629
  112OSM   C10F11654   3.385   6.105   9.306  0.0887 -0.0263  0.4477
  112OSM   H10F11655   3.300   6.037   9.298  1.3530 -1.6181  0.0238
  112OSM   C11F11656   3.494   6.075   9.214  0.0820 -0.5436  0.5141
  112OSM   H11F11657   3.523   5.968   9.212 -1.8499 -1.1112  0.2531
  112OSM   H11G11658   3.587   6.130   9.238  0.5964 -1.4278  0.5747
  112OSM   C12F11659   3.463   6.124   9.068 -0.1888 -0.4784 -0.2369
  112OSM   H12F11660   3.434   6.231   9.075  0.5265 -0.1885 -1.4651
  112OSM   H12G11661   3.373   6.077   9.024 -1.3882  0.8355  0.7108
  112OSM   C13F11662   3.584   6.130   8.972 -0.8339  0.0210 -1.0194
  112OSM   H13F11663   3.625   6.030   8.950  1.1741  0.1491  1.5872
  112OSM   H13G11664   3.664   6.191   9.020 -1.9585  2.2317 -1.7913
  112OSM   C14F11665   3.557   6.208   8.841  0.1613 -0.2012 -0.7740
  112OSM   H14F11666   3.642   6.268   8.802 -0.4568  0.5039 -1.0550
  112OSM   H14G11667   3.486   6.289   8.868  0.0557 -0.8307  0.9740
  112OSM   C15F11668   3.496   6.121   8.731 -0.0443 -0.5131  0.1984
  112OSM   H15F11669   3.434   6.041   8.777 -0.9157  0.6470  1.1130
  112OSM   H15G11670   3.578   6.076   8.672 -1.1083 -1.0054 -0.9325
  112OSM   C16F11671   3.414   6.200   8.625 -0.1657  0.2911  0.6637
  112OSM   H16F11672   3.473   6.289   8.595  1.6455 -1.8255 -2.6724
  112OSM   H16G11673   3.320   6.238   8.671  0.0277 -0.9256  2.1622
  112OSM   C17F11674   3.386   6.118   8.497  0.3576 -0.3668 -0.6263
  112OSM   H17F11675   3.490   6.108   8.458  0.2910  1.3618 -1.3283
  112OSM   H17G11676   3.324   6.165   8.418 -3.1604 -2.3024  0.7577
  112OSM   C18F11677   3.339   5.979   8.519  0.3768 -0.5028 -1.0091
  112OSM   H18F11678   3.235   5.974   8.556  0.4245 -1.4821 -0.9910
  112OSM   H18G11679   3.400   5.919   8.590 -1.0339 -0.1219  0.5801
  112OSM   H18H11680   3.341   5.934   8.417 -0.9641  0.5637 -1.5349
  113OSM      N11681   3.927   5.444  10.766  0.2174 -0.1242  0.5168
  113OSM    C1511682   3.888   5.498  10.628 -0.2784  0.0851  0.4605
  113OSM   H15A11683   3.791   5.544  10.630 -0.8534 -0.9585 -1.4838
  113OSM   H15B11684   3.888   5.414  10.561 -1.2931  0.0937  0.4426
  113OSM   H15C11685   3.961   5.574  10.606 -1.6856  1.3144 -0.0828
  113OSM    C1411686   4.066   5.392  10.770  0.3251 -0.0715  0.1860
  113OSM   H14A11687   4.123   5.483  10.757 -1.8049  1.3647  0.2355
  113OSM   H14B11688   4.090   5.318  10.696  0.3000  0.5659 -0.4680
  113OSM   H14C11689   4.094   5.354  10.867 -1.3903  0.4058  0.9251
  113OSM    C1311690   3.909   5.559  10.852  0.9517  0.3439 -0.0463
  113OSM   H13A11691   3.811   5.603  10.851  1.0869  0.7101  1.1242
  113OSM   H13B11692   3.980   5.638  10.832  1.0177  0.6878  1.3737
  113OSM   H13C11693   3.928   5.526  10.954  0.6295  0.3690  0.0227
  113OSM    C1211694   3.823   5.338  10.811 -0.0591 -0.2544  0.0791
  113OSM   H12A11695   3.733   5.389  10.842 -0.6899  0.2672 -2.3972
  113OSM   H12B11696   3.861   5.293  10.901 -2.6305  0.8656  1.8580
  113OSM    C1111697   3.783   5.222  10.707 -0.3138 -0.0003 -0.0439
  113OSM   H11A11698   3.742   5.282  10.623  1.1184  0.8303 -0.1879
  113OSM   H11B11699   3.699   5.159  10.742  0.2343 -1.7564 -1.7210
  113OSM      P11700   3.964   5.041  10.763  0.0958 -0.1684 -0.0565
  113OSM    O1311701   4.112   5.056  10.769 -0.1856  0.0398 -0.2148
  113OSM    O1411702   3.893   5.036  10.895  0.0560  0.0772 -0.1278
  113OSM    O1111703   3.936   4.902  10.695  0.5020  0.0088 -0.0637
  113OSM    O1211704   3.897   5.147  10.661  0.2305 -0.2488  0.1268
  113OSM    C1S11705   3.936   4.881  10.554 -0.1571 -0.2092  0.2512
  113OSM    H1S11706   3.896   4.967  10.497  0.4529  0.7137  1.1885
  113OSM    H1T11707   3.868   4.796  10.533 -0.5727  0.7750 -2.9552
  113OSM     NF11708   4.039   4.817  10.347 -0.6807  0.3152  0.3958
  113OSM    HNF11709   4.029   4.722  10.318 -0.0225  0.9663 -2.2220
  113OSM    C2S11710   4.073   4.843  10.489  0.2548 -0.1649 -0.0001
  113OSM    H2S11711   4.144   4.927  10.497 -0.9870  0.9714 -0.5660
  113OSM    C3S11712   4.143   4.723  10.560  0.2350 -0.5218 -0.5876
  113OSM    H3S11713   4.078   4.633  10.551 -2.3981  1.0323  1.3302
  113OSM     O311714   4.158   4.734  10.705 -0.5680 -0.0167  0.2215
  113OSM    HO311715   4.105   4.811  10.726 -0.8201 -0.1015 -0.0961
  113OSM    C4S11716   4.278   4.696  10.500 -0.5154  0.3200  0.3800
  113OSM    H4S11717   4.348   4.760  10.555 -1.1922 -0.8260  2.7451
  113OSM    C5S11718   4.312   4.610  10.403  0.0608 -0.1093  0.2382
  113OSM    H5S11719   4.235   4.558  10.343 -1.1587  1.5486  0.2855
  113OSM    C6S11720   4.456   4.601  10.364  0.1045 -0.4239 -0.2467
  113OSM    H6S11721   4.490   4.496  10.354 -0.2702 -0.5348 -0.3545
  113OSM    H6T11722   4.524   4.660  10.430 -0.0104  0.3316 -0.7960
  113OSM    C7S11723   4.475   4.671  10.229 -0.0487 -0.2500  0.0223
  113OSM    H7S11724   4.578   4.684  10.190  0.0714 -2.7619 -0.7401
  113OSM    H7T11725   4.438   4.775  10.236  2.5154  0.8125 -1.1871
  113OSM    C8S11726   4.382   4.611  10.119  0.5277  0.4921 -0.8420
  113OSM    H8S11727   4.273   4.635  10.122  0.0017 -1.6425 -1.0140
  113OSM    H8T11728   4.390   4.501  10.131  0.3412  0.5254 -0.3942
  113OSM    C9S11729   4.433   4.650   9.979  0.5677 -0.0570  0.4438
  113OSM    H9S11730   4.543   4.640   9.967  0.6378  0.3699  0.7014
  113OSM    H9T11731   4.400   4.754   9.960  0.0522 -0.4124 -0.7287
  113OSM   C10S11732   4.358   4.562   9.876 -0.7598 -0.2057  0.0394
  113OSM   H10S11733   4.248   4.562   9.889 -0.9278 -0.2600 -1.2708
  113OSM   H10T11734   4.374   4.454   9.901  1.1620 -0.1455 -0.7631
  113OSM   C11S11735   4.392   4.593   9.728 -0.3643 -0.0039 -0.0128
  113OSM   H11S11736   4.503   4.589   9.719 -0.2415 -2.6755  1.3954
  113OSM   H11T11737   4.359   4.695   9.701 -1.5818 -0.4668 -0.3481
  113OSM   C12S11738   4.333   4.490   9.625  0.2416 -0.4248  0.4315
  113OSM   H12S11739   4.225   4.512   9.640 -0.2790 -1.4239 -1.5932
  113OSM   H12T11740   4.356   4.389   9.664  0.9655 -0.9516 -1.2759
  113OSM   C13S11741   4.355   4.506   9.476 -0.2525  0.4629 -0.5056
  113OSM   H13S11742   4.304   4.436   9.407  3.0914  0.5005 -3.2845
  113OSM   H13T11743   4.459   4.469   9.464 -0.6547 -1.4349  1.2144
  113OSM   C14S11744   4.333   4.640   9.428  0.3720  0.6377 -0.0696
  113OSM   H14S11745   4.403   4.710   9.478  1.1418 -0.7784  0.9170
  113OSM   H14T11746   4.228   4.663   9.453  1.0627  1.4674  2.3516
  113OSM   C15S11747   4.359   4.644   9.278  0.0665 -0.7724 -0.0313
  113OSM   H15S11748   4.287   4.582   9.221 -1.5426  0.5018  0.5517
  113OSM   H15T11749   4.465   4.615   9.262 -0.1034 -1.6717  0.4117
  113OSM   C16S11750   4.342   4.789   9.223  0.4076 -0.3651  0.3356
  113OSM   H16S11751   4.398   4.862   9.286  1.1340 -0.4619 -0.1824
  113OSM   H16T11752   4.237   4.822   9.237  1.4944  2.9785  1.6391
  113OSM   C17S11753   4.402   4.816   9.082 -0.0834  0.1766  0.4102
  113OSM   H17S11754   4.336   4.780   9.000 -2.0683  2.5583  0.8449
  113OSM   H17T11755   4.508   4.786   9.068  0.0065  1.0440 -1.0655
  113OSM   C18S11756   4.407   4.970   9.053  0.2670  0.0685  0.2697
  113OSM   H18S11757   4.419   4.996   8.946  0.1179  0.0703  0.2530
  113OSM   H18T11758   4.502   5.007   9.099  0.9393  0.4361 -1.3587
  113OSM   H18U11759   4.317   5.017   9.098 -0.7766 -0.7744 -0.8983
  113OSM    C1F11760   4.025   4.915  10.259  0.0240  0.2648  0.0263
  113OSM     OF11761   4.022   5.030  10.287  0.2447 -0.1079 -0.4087
  113OSM    C2F11762   4.030   4.873  10.123  0.1579 -0.5774 -0.1108
  113OSM    H2F11763   3.992   4.769  10.114  0.1833 -0.4153 -3.1989
  113OSM    H2G11764   4.136   4.868  10.093 -0.0386 -1.2004 -0.7235
  113OSM    C3F11765   3.934   4.959  10.036 -0.0537 -0.1583  0.1400
  113OSM    H3F11766   3.983   5.059  10.036  1.7716 -0.9370  2.3546
  113OSM    H3G11767   3.831   4.961  10.078 -0.9570  0.4632 -2.0190
  113OSM    C4F11768   3.926   4.906   9.895  0.5915  0.5409  0.1708
  113OSM    H4F11769   3.902   4.798   9.888  1.5432  0.3318 -0.0009
  113OSM    H4G11770   4.026   4.906   9.846  0.6217 -0.8441  0.2060
  113OSM    C5F11771   3.840   4.993   9.806 -0.0961  0.0037 -0.3430
  113OSM    H5F11772   3.837   5.098   9.841  1.7259 -0.1904  0.4993
  113OSM    H5G11773   3.735   4.957   9.812 -0.2083  0.4848  0.8387
  113OSM    C6F11774   3.866   4.980   9.655  0.2498 -0.3060 -0.8688
  113OSM    H6F11775   3.969   5.016   9.635  0.7778 -1.8870 -1.1516
  113OSM    H6G11776   3.803   5.053   9.601 -1.0720  1.5628  2.8396
  113OSM    C7F11777   3.857   4.843   9.596  0.0853 -0.3250 -0.1587
  113OSM    H7F11778   3.932   4.772   9.636  0.7954  0.2616 -0.4338
  113OSM    H7G11779   3.881   4.850   9.488  1.9692  0.9182  0.2869
  113OSM    C8F11780   3.723   4.787   9.610  0.5285  1.1190  0.6254
  113OSM    H8F11781   3.692   4.776   9.716  0.7924  0.2334  0.6151
  113OSM    H8G11782   3.707   4.690   9.559 -2.1895  2.2526 -0.9493
  113OSM    C9F11783   3.631   4.882   9.533 -0.2972  0.2111 -0.3475
  113OSM    H9F11784   3.579   4.967   9.581  1.9205  1.7165 -0.4261
  113OSM   C10F11785   3.590   4.873   9.409  0.0853  0.0892  0.2639
  113OSM   H10F11786   3.513   4.940   9.368  0.7699  0.6914 -0.0475
  113OSM   C11F11787   3.604   4.752   9.312  0.2117  0.3781 -0.9212
  113OSM   H11F11788   3.523   4.676   9.314 -0.7999  1.3794  2.3725
  113OSM   H11G11789   3.692   4.688   9.333 -0.3158 -0.1036 -0.1101
  113OSM   C12F11790   3.617   4.817   9.171  0.0657 -0.2207 -0.5656
  113OSM   H12F11791   3.707   4.883   9.177 -1.7900  2.4480 -0.6836
  113OSM   H12G11792   3.529   4.878   9.145 -0.5267 -0.2350  1.2558
  113OSM   C13F11793   3.639   4.695   9.080 -0.8121  0.0970 -0.4170
  113OSM   H13F11794   3.553   4.627   9.098 -2.6060  2.2135 -0.5379
  113OSM   H13G11795   3.726   4.635   9.114  0.1201  0.7295 -1.6054
  113OSM   C14F11796   3.669   4.733   8.932 -0.0858  0.5304  1.1971
  113OSM   H14F11797   3.777   4.760   8.932  0.1435 -0.2749  2.7371
  113OSM   H14G11798   3.609   4.823   8.905 -0.1973 -0.1639 -1.1115
  113OSM   C15F11799   3.656   4.625   8.820 -0.2932 -0.0177  0.5316
  113OSM   H15F11800   3.553   4.586   8.810 -0.1272  0.0509 -1.8183
  113OSM   H15G11801   3.723   4.540   8.848  1.8282  0.4462 -2.5817
  113OSM   C16F11802   3.711   4.663   8.681  0.6003 -0.4977 -0.6004
  113OSM   H16F11803   3.807   4.719   8.696  0.8571 -1.1881  0.5035
  113OSM   H16G11804   3.652   4.746   8.638 -0.1470  0.6942  2.4670
  113OSM   C17F11805   3.727   4.543   8.593  0.3444 -0.8562  0.0857
  113OSM   H17F11806   3.624   4.500   8.587  0.1124 -0.3222  0.1710
  113OSM   H17G11807   3.792   4.466   8.639  1.1349 -1.1191 -1.3910
  113OSM   C18F11808   3.774   4.575   8.455 -0.2908  0.1378 -0.2407
  113OSM   H18F11809   3.788   4.487   8.387  0.0877 -0.3807  0.4899
  113OSM   H18G11810   3.873   4.625   8.460 -0.3932  0.3343 -0.1650
  113OSM   H18H11811   3.710   4.641   8.392  0.2491 -0.0093 -0.9587
  114OSM      N11812   0.541   2.375  11.216  0.2228 -0.1120 -0.1906
  114OSM    C1511813   0.628   2.490  11.263  0.3999 -0.7040  0.5167
  114OSM   H15A11814   0.684   2.464  11.352 -0.0018  0.7042  1.2074
  114OSM   H15B11815   0.570   2.577  11.288 -0.5548 -2.0452  3.4406
  114OSM   H15C11816   0.700   2.517  11.188 -0.3608  1.0495  0.3760
  114OSM    C1411817   0.466   2.404  11.085 -0.3854  0.4007  0.4234
  114OSM   H14A11818   0.416   2.317  11.043  0.5907 -0.1685  0.4128
  114OSM   H14B11819   0.537   2.437  11.011  0.2280  0.8013  1.1714
  114OSM   H14C11820   0.392   2.478  11.110  1.4617  2.0251  1.3346
  114OSM    C1311821   0.631   2.255  11.190  0.5122 -0.3740 -0.3560
  114OSM   H13A11822   0.690   2.272  11.102  1.4272  0.1745  0.3374
  114OSM   H13B11823   0.576   2.162  11.187 -0.7914  0.3870 -0.9155
  114OSM   H13C11824   0.700   2.260  11.273  0.2667  1.2203 -0.2050
  114OSM    C1211825   0.441   2.342  11.322 -0.1438  0.5152 -0.1034
  114OSM   H12A11826   0.501   2.324  11.410 -0.3258  2.1579  0.4044
  114OSM   H12B11827   0.386   2.255  11.292  0.9789 -1.3427  2.7888
  114OSM    C1111828   0.332   2.450  11.356 -0.2623 -0.5042  0.2417
  114OSM   H11A11829   0.258   2.416  11.432 -1.6348  0.9166 -0.4019
  114OSM   H11B11830   0.262   2.452  11.270 -0.8344  1.9142  0.6975
  114OSM      P11831   0.343   2.705  11.328 -0.1938 -0.4428 -0.0822
  114OSM    O1311832   0.238   2.771  11.406  0.2140 -0.9270  0.1010
  114OSM    O1411833   0.460   2.788  11.299  0.6362 -0.1107 -0.7808
  114OSM    O1111834   0.275   2.659  11.189  0.1769 -0.6148  0.4299
  114OSM    O1211835   0.384   2.578  11.400  0.1539  0.5198 -0.1173
  114OSM    C1S11836   0.190   2.748  11.118  0.0962 -0.5467 -0.0104
  114OSM    H1S11837   0.219   2.855  11.127  1.2584 -0.5071 -3.0874
  114OSM    H1T11838   0.087   2.734  11.156  0.8350 -0.9978  1.9551
  114OSM     NF11839   0.164   2.821  10.880  0.3616  0.2127 -0.1049
  114OSM    HNF11840   0.080   2.814  10.827  0.9233  2.0891 -1.3442
  114OSM    C2S11841   0.202   2.717  10.963  0.5223  0.8102 -0.1478
  114OSM    H2S11842   0.306   2.685  10.944  0.6635  1.0887  0.1436
  114OSM    C3S11843   0.116   2.579  10.936  0.0449 -0.3710  0.3502
  114OSM    H3S11844   0.010   2.609  10.950  0.0876  2.3382 -3.6624
  114OSM     O311845   0.144   2.471  11.018 -0.4030 -0.5224 -0.2994
  114OSM    HO311846   0.214   2.509  11.071  0.2384  0.5805 -1.8439
  114OSM    C4S11847   0.131   2.551  10.787  0.3831 -0.0479 -0.7208
  114OSM    H4S11848   0.043   2.579  10.727  1.9150 -0.0452 -3.1014
  114OSM    C5S11849   0.230   2.479  10.731  0.0716 -0.0996  0.8745
  114OSM    H5S11850   0.310   2.422  10.779  1.8683  0.7659 -0.9472
  114OSM    C6S11851   0.234   2.457  10.582 -0.3421 -0.8010  0.7422
  114OSM    H6S11852   0.136   2.427  10.539  0.4009  0.6297 -2.2038
  114OSM    H6T11853   0.306   2.376  10.557  0.9853  0.4028  0.5428
  114OSM    C7S11854   0.270   2.584  10.492  0.2255  0.1240 -0.5167
  114OSM    H7S11855   0.371   2.624  10.517  0.1935  0.3631 -0.7620
  114OSM    H7T11856   0.192   2.662  10.506 -0.4863 -0.6569 -0.0414
  114OSM    C8S11857   0.283   2.553  10.343 -0.6194  0.3476 -0.1163
  114OSM    H8S11858   0.190   2.514  10.296  1.2738 -1.4183 -2.7025
  114OSM    H8T11859   0.354   2.468  10.334 -1.3212 -0.1760 -0.8478
  114OSM    C9S11860   0.333   2.668  10.259 -0.2036 -0.0965 -0.7361
  114OSM    H9S11861   0.424   2.699  10.315  0.3627  0.6070 -2.0133
  114OSM    H9T11862   0.257   2.748  10.265 -0.5662 -0.5340  1.6837
  114OSM   C10S11863   0.381   2.634  10.115  0.3199 -0.3625  0.1663
  114OSM   H10S11864   0.440   2.718  10.073 -1.1861  0.0732 -1.1965
  114OSM   H10T11865   0.291   2.614  10.053  1.1216  0.8809 -1.4694
  114OSM   C11S11866   0.468   2.505  10.095 -0.1767 -0.3104 -0.2072
  114OSM   H11S11867   0.406   2.415  10.070 -0.1088 -0.0801 -1.2656
  114OSM   H11T11868   0.523   2.473  10.186  0.2065  2.8910  0.8055
  114OSM   C12S11869   0.568   2.533   9.984  0.1282 -0.5721  0.3084
  114OSM   H12S11870   0.637   2.446   9.984  0.7619 -0.0715  1.0673
  114OSM   H12T11871   0.625   2.626  10.002 -0.3658  0.2505 -1.9573
  114OSM   C13S11872   0.500   2.538   9.843  0.0301  0.0284  0.0398
  114OSM   H13S11873   0.421   2.617   9.847 -0.7807 -0.8047  0.8027
  114OSM   H13T11874   0.454   2.438   9.830  2.5216 -1.2983  0.8330
  114OSM   C14S11875   0.598   2.553   9.722  0.5144 -0.9020 -0.1374
  114OSM   H14S11876   0.690   2.607   9.753 -0.6819  1.5637 -0.6950
  114OSM   H14T11877   0.556   2.609   9.636 -1.2955 -0.5528  0.9285
  114OSM   C15S11878   0.646   2.411   9.688 -0.5910  0.3541 -0.7520
  114OSM   H15S11879   0.553   2.366   9.649 -0.1722 -3.2757  2.0171
  114OSM   H15T11880   0.681   2.347   9.771  0.8685 -0.8222 -2.2134
  114OSM   C16S11881   0.763   2.410   9.589 -0.7949 -0.3391  0.3289
  114OSM   H16S11882   0.799   2.309   9.560 -0.3057 -0.1048  0.1129
  114OSM   H16T11883   0.845   2.453   9.650 -0.4746  0.8904 -0.9150
  114OSM   C17S11884   0.756   2.499   9.463  0.1312  0.2307 -0.9077
  114OSM   H17S11885   0.651   2.515   9.432 -0.3551 -1.2495 -0.0799
  114OSM   H17T11886   0.799   2.439   9.380 -2.2013 -1.2127 -1.1455
  114OSM   C18S11887   0.817   2.640   9.468  0.0343  0.0123 -0.4459
  114OSM   H18S11888   0.806   2.691   9.370  3.2979 -0.4890 -1.2030
  114OSM   H18T11889   0.925   2.641   9.496  0.3051  1.9948 -1.4163
  114OSM   H18U11890   0.751   2.694   9.539 -1.1763 -1.2761 -0.5437
  114OSM    C1F11891   0.246   2.929  10.854 -0.1898  0.1363  0.4192
  114OSM     OF11892   0.354   2.932  10.898 -0.1412 -0.1345 -0.0069
  114OSM    C2F11893   0.194   3.033  10.767 -0.6378 -0.4734  0.3183
  114OSM    H2F11894   0.153   3.114  10.831  0.8020  1.9463 -1.6135
  114OSM    H2G11895   0.098   3.006  10.718 -1.0905  1.4488  0.0580
  114OSM    C3F11896   0.287   3.103  10.677 -0.7379  0.1103  0.3935
  114OSM    H3F11897   0.373   3.152  10.728 -0.7664 -0.3277  0.8699
  114OSM    H3G11898   0.221   3.176  10.626 -2.4179 -3.8555 -3.8186
  114OSM    C4F11899   0.352   3.013  10.568 -0.1615  0.3121  0.0812
  114OSM    H4F11900   0.277   2.948  10.518  0.3129  0.0823 -0.3419
  114OSM    H4G11901   0.422   2.950  10.628  0.0122  0.8523  0.4486
  114OSM    C5F11902   0.450   3.081  10.479  0.1433  0.4869  0.9630
  114OSM    H5F11903   0.526   3.020  10.427 -0.9265  0.5344 -0.7298
  114OSM    H5G11904   0.512   3.154  10.537  4.0492 -0.5988 -1.5021
  114OSM    C6F11905   0.372   3.164  10.365 -0.7695  0.6655  0.1542
  114OSM    H6F11906   0.444   3.239  10.326 -0.8110 -0.0967 -1.4407
  114OSM    H6G11907   0.277   3.208  10.405 -2.4535 -0.9152 -1.8869
  114OSM    C7F11908   0.359   3.069  10.241  0.1228 -0.4689 -0.3165
  114OSM    H7F11909   0.322   2.971  10.277  1.9492 -1.1782 -0.2804
  114OSM    H7G11910   0.465   3.058  10.208 -0.1189  3.1580 -3.0483
  114OSM    C8F11911   0.260   3.125  10.136 -0.2839  0.4776 -0.9018
  114OSM    H8F11912   0.180   3.147  10.210 -1.1827 -1.9698 -1.0660
  114OSM    H8G11913   0.235   3.048  10.061  1.2520  0.1213 -1.0855
  114OSM    C9F11914   0.296   3.252  10.059  0.3153  0.2477  0.1099
  114OSM    H9F11915   0.394   3.301  10.073 -0.8513  2.2736  1.6528
  114OSM   C10F11916   0.231   3.280   9.942 -0.7968  0.0144 -0.1589
  114OSM   H10F11917   0.275   3.362   9.884 -0.7034  1.3610  1.7283
  114OSM   C11F11918   0.118   3.208   9.875  0.2373 -0.3318 -0.1964
  114OSM   H11F11919   0.028   3.272   9.876  0.3983 -0.0908 -0.8661
  114OSM   H11G11920   0.082   3.122   9.935  1.2422 -0.7152 -0.1153
  114OSM   C12F11921   0.145   3.163   9.727  0.1824  0.3492  0.2382
  114OSM   H12F11922   0.083   3.073   9.705  0.1768 -0.1370  2.1255
  114OSM   H12G11923   0.248   3.125   9.736 -0.4547 -0.8299  3.9487
  114OSM   C13F11924   0.127   3.280   9.622 -0.4162  0.4927 -0.1309
  114OSM   H13F11925   0.190   3.365   9.654  1.9517 -0.6903 -1.3949
  114OSM   H13G11926   0.020   3.306   9.638  0.2158  1.1959  3.8544
  114OSM   C14F11927   0.140   3.233   9.479 -0.7704 -0.0880  0.5332
  114OSM   H14F11928   0.233   3.173   9.469  0.3703  1.6370  0.3011
  114OSM   H14G11929   0.152   3.322   9.414 -0.0935 -0.1441  0.5765
  114OSM   C15F11930   0.023   3.145   9.429  0.4166  0.4924  0.3192
  114OSM   H15F11931  -0.075   3.191   9.455  0.5456  0.2170  1.3553
  114OSM   H15G11932   0.031   3.053   9.490 -0.6873  0.1511 -0.0284
  114OSM   C16F11933   0.026   3.126   9.278 -0.6942 -0.1635  0.2709
  114OSM   H16F11934   0.126   3.087   9.249 -1.1466 -1.2619  0.1284
  114OSM   H16G11935  -0.005   3.218   9.224 -0.9068 -0.2549  0.2342
  114OSM   C17F11936  -0.077   3.020   9.231 -0.5509 -0.9936  0.3502
  114OSM   H17F11937  -0.180   3.062   9.230  0.4873  1.7989 -1.0048
  114OSM   H17G11938  -0.088   2.939   9.306 -1.1970 -0.1372  1.1976
  114OSM   C18F11939  -0.049   2.963   9.093  0.3428  0.1196 -0.0220
  114OSM   H18F11940  -0.043   3.044   9.018  2.3354 -0.1348 -0.1875
  114OSM   H18G11941  -0.134   2.895   9.067  0.7221 -1.4569  2.4750
  114OSM   H18H11942   0.038   2.895   9.081  0.9496  0.6107  1.4132
  115OSM      N11943   0.082   5.644   6.015  0.3109  0.4282  0.2270
  115OSM    C1511944   0.046   5.742   5.915  0.0743 -0.1241  1.0888
  115OSM   H15A11945   0.128   5.751   5.845  0.7087 -0.2588  1.7882
  115OSM   H15B11946   0.037   5.844   5.950  1.6181  1.1025 -1.7491
  115OSM   H15C11947  -0.047   5.712   5.870  0.6888 -1.0101  0.3624
  115OSM    C1411948   0.070   5.508   5.956  0.3984  0.2415 -0.2797
  115OSM   H14A11949   0.149   5.510   5.882 -0.6026  0.7950 -1.3584
  115OSM   H14B11950  -0.023   5.493   5.903  0.9481 -1.3361 -0.8782
  115OSM   H14C11951   0.080   5.428   6.028 -1.7018 -1.0293 -1.2990
  115OSM    C1311952   0.226   5.649   6.054 -0.3914  0.6833 -0.5476
  115OSM   H13A11953   0.249   5.559   6.110  0.6223  1.2718  0.0064
  115OSM   H13B11954   0.235   5.731   6.123 -0.6165 -0.4890  0.9132
  115OSM   H13C11955   0.290   5.645   5.966  0.4277 -0.2022  0.0671
  115OSM    C1211956  -0.008   5.654   6.145 -0.6014 -0.2266  0.2454
  115OSM   H12A11957   0.041   5.591   6.218 -0.0739 -0.9596 -0.7239
  115OSM   H12B11958  -0.103   5.612   6.119 -0.3243 -0.3803 -0.5488
  115OSM    C1111959  -0.025   5.791   6.214  0.1956  1.1644  0.0875
  115OSM   H11A11960  -0.067   5.775   6.316 -2.3206  0.6871 -0.9433
  115OSM   H11B11961  -0.091   5.853   6.150  0.8282  1.0847 -0.6556
  115OSM      P11962   0.152   5.984   6.191  0.1083  0.1246 -0.1401
  115OSM    O1311963   0.300   5.984   6.170  0.2321  0.1060  0.1087
  115OSM    O1411964   0.079   6.026   6.073  0.0402  0.6414  0.1102
  115OSM    O1111965   0.111   6.082   6.312 -0.1234  0.2959  0.4180
  115OSM    O1211966   0.098   5.847   6.237  0.2812  0.1742 -0.5149
  115OSM    C1S11967   0.154   6.030   6.438  0.1674 -0.5267 -0.6087
  115OSM    H1S11968   0.264   6.025   6.448  0.3162  1.2527 -1.0759
  115OSM    H1T11969   0.113   5.929   6.457 -1.1740 -0.3992 -2.5445
  115OSM     NF11970   0.189   6.092   6.674 -0.4303 -0.5853  0.3266
  115OSM    HNF11971   0.139   6.060   6.754  1.5353 -1.4770  1.2904
  115OSM    C2S11972   0.115   6.121   6.555 -0.3096  0.5089 -0.0166
  115OSM    H2S11973   0.145   6.222   6.519  2.2611  0.0211  0.5587
  115OSM    C3S11974  -0.041   6.120   6.560  0.4401  0.2014  0.0707
  115OSM    H3S11975  -0.073   6.017   6.585  1.5949  0.6099  3.8339
  115OSM     O311976  -0.103   6.155   6.431 -0.0110  0.2534 -0.7867
  115OSM    HO311977  -0.034   6.150   6.364 -0.0117  2.2463 -1.0048
  115OSM    C4S11978  -0.094   6.215   6.667  0.1025  0.4015  0.1961
  115OSM    H4S11979  -0.136   6.172   6.759 -2.0689  0.6134 -0.6372
  115OSM    C5S11980  -0.086   6.347   6.663  0.0282 -0.4621  0.5530
  115OSM    H5S11981  -0.046   6.396   6.573 -0.1559 -1.2986  0.0049
  115OSM    C6S11982  -0.128   6.448   6.772 -0.4376  0.7386  0.6538
  115OSM    H6S11983  -0.195   6.512   6.711  0.4178  1.6881  0.7010
  115OSM    H6T11984  -0.045   6.497   6.826  0.4747 -1.5175  1.4346
  115OSM    C7S11985  -0.217   6.394   6.886 -0.3133  0.3759 -0.2300
  115OSM    H7S11986  -0.172   6.307   6.938  0.0879  1.9739  2.2664
  115OSM    H7T11987  -0.322   6.366   6.860 -0.1372 -0.9440  0.4015
  115OSM    C8S11988  -0.218   6.493   7.002 -0.0985  0.2096 -0.1645
  115OSM    H8S11989  -0.294   6.572   6.981 -0.1877  0.0921 -0.2916
  115OSM    H8T11990  -0.126   6.553   7.016  0.5006 -0.1505 -2.2037
  115OSM    C9S11991  -0.261   6.426   7.137  0.2877 -0.2514 -0.0714
  115OSM    H9S11992  -0.220   6.324   7.155  0.8970  0.1205  0.7262
  115OSM    H9T11993  -0.371   6.421   7.133  0.3595 -1.7323 -0.6114
  115OSM   C10S11994  -0.221   6.503   7.260  0.2145  0.0573 -0.8561
  115OSM   H10S11995  -0.268   6.603   7.246  2.1779  0.9923 -1.0710
  115OSM   H10T11996  -0.111   6.504   7.249  0.5800 -1.6501  1.6992
  115OSM   C11S11997  -0.267   6.453   7.396 -0.2380  0.1469  0.1245
  115OSM   H11S11998  -0.227   6.351   7.415  1.2530  0.7683  0.5136
  115OSM   H11T11999  -0.377   6.443   7.390 -0.3978  0.5060  2.0580
  115OSM   C12S12000  -0.232   6.548   7.508  0.1396 -0.0286 -0.5952
  115OSM   H12S12001  -0.301   6.633   7.492 -1.0961 -0.6555  1.0293
  115OSM   H12T12002  -0.127   6.583   7.498 -0.4265  1.9381 -0.1238
  115OSM   C13S12003  -0.242   6.483   7.647 -1.1860 -0.6712 -0.2387
  115OSM   H13S12004  -0.167   6.540   7.705  0.4942 -1.2060 -1.7756
  115OSM   H13T12005  -0.199   6.381   7.648 -0.3811 -0.3403  0.0290
  115OSM   C14S12006  -0.372   6.490   7.712  0.0065  0.6463 -0.0743
  115OSM   H14S12007  -0.437   6.442   7.637  1.2087  0.8833 -1.3112
  115OSM   H14T12008  -0.413   6.593   7.707 -1.9714 -0.0467  0.7904
  115OSM   C15S12009  -0.390   6.428   7.853 -0.1725  0.0512 -0.3434
  115OSM   H15S12010  -0.366   6.320   7.844  2.0093  0.5717 -1.3640
  115OSM   H15T12011  -0.501   6.428   7.866 -0.5549 -3.7015 -2.2689
  115OSM   C16S12012  -0.307   6.499   7.965 -0.1177  0.2859 -0.5452
  115OSM   H16S12013  -0.360   6.585   8.013  1.4559 -0.0120  1.8848
  115OSM   H16T12014  -0.220   6.541   7.911  0.5804 -0.3669  0.0459
  115OSM   C17S12015  -0.257   6.405   8.074 -1.1194 -0.2618  0.4571
  115OSM   H17S12016  -0.356   6.363   8.101 -1.4876 -0.8217 -1.5449
  115OSM   H17T12017  -0.210   6.460   8.158  1.0926 -1.3961  0.0387
  115OSM   C18S12018  -0.155   6.298   8.027  0.2252  0.4923  0.0514
  115OSM   H18S12019  -0.075   6.339   7.962  2.8268 -1.8938  1.5176
  115OSM   H18T12020  -0.208   6.224   7.963 -3.7492  0.1562  3.3298
  115OSM   H18U12021  -0.107   6.243   8.111 -2.1758  0.1113  1.2558
  115OSM    C1F12022   0.314   6.132   6.698 -0.0906  0.2963  0.6162
  115OSM     OF12023   0.381   6.190   6.607  0.5519  0.1716  0.2328
  115OSM    C2F12024   0.370   6.097   6.836 -0.2966 -0.2164 -0.3331
  115OSM    H2F12025   0.421   5.998   6.835  0.0447 -0.0537  0.3663
  115OSM    H2G12026   0.290   6.097   6.913  1.0627 -0.1753  1.1240
  115OSM    C3F12027   0.472   6.193   6.906  0.4522  0.1671  0.4879
  115OSM    H3F12028   0.408   6.279   6.934  0.4279  0.4892 -0.5424
  115OSM    H3G12029   0.561   6.224   6.848  0.5165 -1.8289 -0.5702
  115OSM    C4F12030   0.519   6.135   7.044  0.8125  0.4053 -0.0040
  115OSM    H4F12031   0.552   6.031   7.024  1.0324 -0.0832  2.5318
  115OSM    H4G12032   0.435   6.127   7.116  0.7037  0.5349 -0.1172
  115OSM    C5F12033   0.645   6.206   7.107 -0.1786  1.4758 -0.6967
  115OSM    H5F12034   0.709   6.188   7.018 -1.5920 -2.5509 -1.0931
  115OSM    H5G12035   0.680   6.141   7.190 -0.4708 -2.0124 -3.0690
  115OSM    C6F12036   0.636   6.355   7.137  0.4625  1.0550  0.3194
  115OSM    H6F12037   0.602   6.392   7.037 -0.1215  2.0030  0.8538
  115OSM    H6G12038   0.740   6.392   7.150  1.1249 -0.8145  0.5983
  115OSM    C7F12039   0.532   6.377   7.249 -0.0078  0.4112 -0.6674
  115OSM    H7F12040   0.425   6.354   7.232 -0.8286  3.0150  0.5677
  115OSM    H7G12041   0.529   6.486   7.270 -0.6191  0.3939 -0.6451
  115OSM    C8F12042   0.562   6.302   7.380 -0.3496 -0.3990 -0.4835
  115OSM    H8F12043   0.546   6.193   7.366  1.4720 -0.7858  0.1619
  115OSM    H8G12044   0.488   6.328   7.458  0.6259  2.9070 -0.5173
  115OSM    C9F12045   0.703   6.338   7.431 -0.5354 -0.2070 -0.3334
  115OSM    H9F12046   0.783   6.279   7.383 -2.1108 -2.4964 -0.3098
  115OSM   C10F12047   0.746   6.428   7.525 -0.1983  0.0488 -0.0598
  115OSM   H10F12048   0.852   6.456   7.537 -0.0185 -0.4700 -0.3729
  115OSM   C11F12049   0.649   6.511   7.609  0.1330 -0.0011  0.1468
  115OSM   H11F12050   0.550   6.461   7.605 -0.5638  1.3207  0.3042
  115OSM   H11G12051   0.640   6.616   7.575  0.7771 -0.2096 -0.7041
  115OSM   C12F12052   0.717   6.515   7.744 -0.2113  0.9127  0.1659
  115OSM   H12F12053   0.826   6.535   7.750  0.2085 -1.1609  0.4945
  115OSM   H12G12054   0.713   6.414   7.791  2.2532  0.2311 -0.8958
  115OSM   C13F12055   0.649   6.610   7.840  0.1909 -0.0775  0.0944
  115OSM   H13F12056   0.542   6.583   7.830  0.5525 -2.0689  1.1946
  115OSM   H13G12057   0.665   6.705   7.784  1.1380 -0.9441 -1.1394
  115OSM   C14F12058   0.689   6.596   7.983  0.4063  0.3759  0.3912
  115OSM   H14F12059   0.800   6.590   7.989  0.4450 -0.6231 -0.8664
  115OSM   H14G12060   0.652   6.499   8.021 -1.6048 -0.0132 -2.2378
  115OSM   C15F12061   0.615   6.700   8.061  0.2169 -0.2108 -0.8660
  115OSM   H15F12062   0.506   6.685   8.051 -0.0592  1.2356 -0.1941
  115OSM   H15G12063   0.640   6.804   8.032  1.1582 -0.7626 -2.1588
  115OSM   C16F12064   0.655   6.702   8.212 -0.5603  0.2629  0.4194
  115OSM   H16F12065   0.621   6.796   8.260  0.6527  0.3436  1.1376
  115OSM   H16G12066   0.766   6.702   8.216 -0.4085 -1.8424 -1.5728
  115OSM   C17F12067   0.605   6.583   8.296  0.1343 -0.7443 -1.0021
  115OSM   H17F12068   0.650   6.488   8.260  0.7356 -1.1160  0.6343
  115OSM   H17G12069   0.495   6.579   8.286 -0.0563  1.6190 -0.5899
  115OSM   C18F12070   0.636   6.606   8.439  0.2994  0.2273 -0.4275
  115OSM   H18F12071   0.746   6.614   8.454  0.3637 -1.0335 -0.0802
  115OSM   H18G12072   0.610   6.524   8.510 -0.2508 -0.0478 -0.9298
  115OSM   H18H12073   0.601   6.705   8.474  0.7982  0.2763 -0.0600
  116OSM      N12074   5.902   3.340   5.941  0.2776 -0.3923 -0.0487
  116OSM    C1512075   5.974   3.207   5.897 -0.7875 -0.5291  0.1000
  116OSM   H15A12076   5.903   3.129   5.874  0.5040 -1.4330 -0.9402
  116OSM   H15B12077   6.034   3.176   5.982 -2.0094  0.0607  1.2101
  116OSM   H15C12078   6.031   3.220   5.807  0.8176  0.7735  1.2400
  116OSM    C1412079   5.825   3.389   5.822 -0.2276  0.1452  0.4109
  116OSM   H14A12080   5.781   3.487   5.833  0.5197  0.4925  0.4100
  116OSM   H14B12081   5.744   3.320   5.803 -0.1107 -0.0132  0.4872
  116OSM   H14C12082   5.896   3.393   5.741  0.3250 -1.6081  0.7722
  116OSM    C1312083   5.807   3.312   6.052  0.1950  0.3053 -0.2757
  116OSM   H13A12084   5.856   3.281   6.143 -0.9514  3.3795  1.5401
  116OSM   H13B12085   5.733   3.236   6.028 -1.8005  2.3805 -1.0262
  116OSM   H13C12086   5.748   3.399   6.076 -0.1573 -0.3283  1.3402
  116OSM    C1212087   5.994   3.451   5.987 -0.3667 -0.6945  0.4632
  116OSM   H12A12088   6.059   3.458   5.901  0.2962 -3.2267  0.6805
  116OSM   H12B12089   6.055   3.413   6.068  0.2375  0.9260  0.7987
  116OSM    C1112090   5.930   3.582   6.036  0.8238  0.1676  0.1536
  116OSM   H11A12091   5.871   3.614   5.947  0.0100 -0.9524  0.2775
  116OSM   H11B12092   6.005   3.664   6.043  0.5597  0.3876  0.4133
  116OSM      P12093   5.743   3.671   6.184  0.4168  0.2329  0.1838
  116OSM    O1312094   5.802   3.805   6.162  0.3556  0.0877  0.2032
  116OSM    O1412095   5.628   3.626   6.103 -0.1049 -0.0506 -0.2807
  116OSM    O1112096   5.712   3.665   6.332  0.1564  0.2251  0.1688
  116OSM    O1212097   5.861   3.564   6.164 -0.0359 -0.0326  0.2709
  116OSM    C1S12098   5.782   3.567   6.413 -0.3405 -0.1214 -0.7601
  116OSM    H1S12099   5.889   3.595   6.428 -0.3800 -0.1574 -0.3856
  116OSM    H1T12100   5.792   3.460   6.384  1.7080 -0.4223  0.7736
  116OSM     NF12101   5.817   3.493   6.646 -0.1550 -0.5468  0.8650
  116OSM    HNF12102   5.815   3.394   6.653  0.3558 -0.6155  0.0989
  116OSM    C2S12103   5.723   3.563   6.559  0.6603  0.0696  0.1902
  116OSM    H2S12104   5.697   3.667   6.590 -2.6688 -0.1301 -1.5005
  116OSM    C3S12105   5.586   3.488   6.561 -0.3070  0.4282  0.1829
  116OSM    H3S12106   5.605   3.385   6.524  2.9079  1.5970 -1.9202
  116OSM     O312107   5.493   3.527   6.459  0.4837  0.3674 -0.3578
  116OSM    HO312108   5.546   3.589   6.409  1.0802 -0.7761 -1.2143
  116OSM    C4S12109   5.523   3.500   6.699  0.3415  0.0077  0.4554
  116OSM    H4S12110   5.531   3.402   6.749 -1.0740  0.4507  1.6271
  116OSM    C5S12111   5.448   3.595   6.763  0.2722  0.6564 -0.2959
  116OSM    H5S12112   5.431   3.693   6.717  0.3268  1.5156  1.4523
  116OSM    C6S12113   5.379   3.571   6.892 -0.4667 -0.0667 -0.2422
  116OSM    H6S12114   5.354   3.463   6.897 -0.4049 -0.1017 -0.6163
  116OSM    H6T12115   5.284   3.626   6.909 -0.6006 -0.2098 -0.5299
  116OSM    C7S12116   5.465   3.605   7.015  0.4417 -0.0804  0.6674
  116OSM    H7S12117   5.480   3.715   7.020  2.0075 -0.1590 -1.2494
  116OSM    H7T12118   5.566   3.561   6.999  1.0757  1.5680 -0.1383
  116OSM    C8S12119   5.411   3.557   7.151 -0.2609 -0.5052 -0.8162
  116OSM    H8S12120   5.396   3.447   7.157 -1.3265 -0.3299  0.0435
  116OSM    H8T12121   5.315   3.612   7.162  1.2959  2.6380 -1.8144
  116OSM    C9S12122   5.508   3.594   7.268 -0.0220 -0.4650  0.8610
  116OSM    H9S12123   5.537   3.700   7.277  1.8172 -1.1002  3.3979
  116OSM    H9T12124   5.607   3.542   7.271  0.4268  0.1282 -1.5979
  116OSM   C10S12125   5.432   3.559   7.395 -0.8112  0.2889  0.3620
  116OSM   H10S12126   5.386   3.460   7.378 -0.6863  0.2068  0.5037
  116OSM   H10T12127   5.346   3.629   7.409 -0.8972  0.2217  0.1662
  116OSM   C11S12128   5.522   3.569   7.519  0.9635  0.9658 -0.0107
  116OSM   H11S12129   5.558   3.674   7.516  1.0026  0.9707  0.5651
  116OSM   H11T12130   5.612   3.505   7.510  0.3571 -0.0322  0.7690
  116OSM   C12S12131   5.450   3.542   7.651 -0.5224  0.1999  0.1884
  116OSM   H12S12132   5.419   3.436   7.657 -0.9547  0.3906  2.0057
  116OSM   H12T12133   5.363   3.609   7.672 -2.2475 -1.7931 -0.2715
  116OSM   C13S12134   5.553   3.567   7.757  0.1298 -0.5491 -0.8396
  116OSM   H13S12135   5.512   3.616   7.848  3.5243 -0.2885  0.7205
  116OSM   H13T12136   5.636   3.630   7.719 -0.0109  0.7059  0.8092
  116OSM   C14S12137   5.613   3.433   7.791 -0.1433  0.8593  0.5097
  116OSM   H14S12138   5.683   3.403   7.710 -1.2561 -0.2233 -0.0732
  116OSM   H14T12139   5.536   3.357   7.815 -0.5580  1.1708  0.1758
  116OSM   C15S12140   5.685   3.444   7.926  0.9305 -0.1040 -0.1436
  116OSM   H15S12141   5.740   3.540   7.929  1.5396 -0.2159 -3.3686
  116OSM   H15T12142   5.770   3.372   7.922  1.4079  0.5040 -1.9605
  116OSM   C16S12143   5.594   3.426   8.046 -0.7847  0.4561  0.0885
  116OSM   H16S12144   5.567   3.318   8.052 -1.0580  0.5045 -0.2865
  116OSM   H16T12145   5.497   3.477   8.026  0.3358  2.0841 -1.5015
  116OSM   C17S12146   5.664   3.478   8.173  0.1342 -0.6570  0.1293
  116OSM   H17S12147   5.691   3.586   8.175  0.0989 -0.6472  1.6986
  116OSM   H17T12148   5.764   3.431   8.188 -0.5178 -1.6032  1.8366
  116OSM   C18S12149   5.583   3.451   8.303 -0.3206 -0.2814 -0.3053
  116OSM   H18S12150   5.491   3.512   8.290 -1.3523 -0.9378  2.8726
  116OSM   H18T12151   5.640   3.474   8.396  0.5277  0.0579 -0.8903
  116OSM   H18U12152   5.552   3.345   8.305  0.3428 -0.5472 -2.1460
  116OSM    C1F12153   5.920   3.567   6.674 -0.4652  0.6179 -0.8909
  116OSM     OF12154   5.916   3.687   6.654 -0.0485  0.3575  0.4934
  116OSM    C2F12155   6.039   3.498   6.727 -0.1650  0.4162  1.1878
  116OSM    H2F12156   6.115   3.499   6.645  0.3774  0.6376  1.6878
  116OSM    H2G12157   6.014   3.392   6.746  0.8332 -0.0069  0.2593
  116OSM    C3F12158   6.109   3.573   6.847 -0.6825  0.2975  0.1874
  116OSM    H3F12159   6.138   3.674   6.813  0.2637 -0.6143 -1.9252
  116OSM    H3G12160   6.199   3.510   6.868 -1.7335 -0.4340  2.9086
  116OSM    C4F12161   6.028   3.578   6.980  0.1675  0.2851 -0.4620
  116OSM    H4F12162   5.936   3.640   6.971 -2.0460 -2.4121  1.5942
  116OSM    H4G12163   6.083   3.628   7.062 -1.3752 -0.0473  0.8426
  116OSM    C5F12164   5.994   3.441   7.049  1.1154 -0.5313 -0.1096
  116OSM    H5F12165   6.085   3.387   7.082 -1.3524 -2.4446  4.3284
  116OSM    H5G12166   5.950   3.368   6.977 -0.3540  1.8076 -1.7430
  116OSM    C6F12167   5.900   3.450   7.170  0.4375  0.4983 -1.4591
  116OSM    H6F12168   5.903   3.355   7.227 -4.4446  0.3600 -1.0128
  116OSM    H6G12169   5.799   3.444   7.123  0.2232  1.6102 -1.1800
  116OSM    C7F12170   5.923   3.561   7.273  0.8596  0.0667  0.4681
  116OSM    H7F12171   5.839   3.549   7.345  1.5419 -2.4597  0.9561
  116OSM    H7G12172   5.913   3.657   7.220 -1.5341  0.3096  1.2579
  116OSM    C8F12173   6.052   3.555   7.356  0.0989  0.8140 -0.0418
  116OSM    H8F12174   6.031   3.639   7.426  1.5610 -0.1524  1.6554
  116OSM    H8G12175   6.144   3.579   7.298 -0.2482 -0.5532 -1.1828
  116OSM    C9F12176   6.077   3.425   7.434  0.4831  0.4385 -0.6593
  116OSM    H9F12177   6.118   3.349   7.366 -0.8218 -0.2863 -0.6500
  116OSM   C10F12178   6.056   3.401   7.567 -0.7013  1.0177 -0.7043
  116OSM   H10F12179   6.069   3.298   7.602 -0.2846  0.6416 -1.9111
  116OSM   C11F12180   5.997   3.495   7.666  0.0997 -0.1437  0.6826
  116OSM   H11F12181   5.916   3.437   7.714 -1.1803  0.0343 -1.1294
  116OSM   H11G12182   5.947   3.585   7.622  1.9969  1.1436  1.0583
  116OSM   C12F12183   6.114   3.549   7.758 -0.1169  0.2617  0.4335
  116OSM   H12F12184   6.178   3.621   7.703 -0.8591  0.5510 -0.0594
  116OSM   H12G12185   6.167   3.458   7.795  1.2539 -0.4458 -2.9245
  116OSM   C13F12186   6.043   3.607   7.888  0.2437  0.7069  0.6404
  116OSM   H13F12187   5.978   3.536   7.943 -0.3259  0.1632 -0.6871
  116OSM   H13G12188   5.985   3.690   7.844  0.6511  0.8853  0.4323
  116OSM   C14F12189   6.147   3.672   7.977 -0.0270 -0.3184 -0.3428
  116OSM   H14F12190   6.231   3.719   7.922 -1.8741 -0.0254 -3.1218
  116OSM   H14G12191   6.199   3.591   8.033 -3.1526 -0.2892  3.0020
  116OSM   C15F12192   6.077   3.770   8.065  0.3867 -0.2613 -0.7860
  116OSM   H15F12193   5.973   3.735   8.083 -0.3400  2.4333  0.7398
  116OSM   H15G12194   6.073   3.869   8.014 -0.0704 -0.1156 -0.4770
  116OSM   C16F12195   6.157   3.784   8.194 -0.1682  0.0894 -0.1409
  116OSM   H16F12196   6.263   3.814   8.177 -0.5654  1.2019 -0.7198
  116OSM   H16G12197   6.153   3.693   8.259  0.4937  0.2313  0.1043
  116OSM   C17F12198   6.102   3.893   8.287 -0.3798 -0.3657 -0.0288
  116OSM   H17F12199   5.998   3.866   8.317 -0.1673 -2.1271 -0.7631
  116OSM   H17G12200   6.095   3.985   8.225  2.1849 -0.3514 -0.4028
  116OSM   C18F12201   6.190   3.926   8.406  0.3219  0.0362 -0.1021
  116OSM   H18F12202   6.202   3.832   8.463  1.0603 -0.2796 -0.7560
  116OSM   H18G12203   6.150   4.008   8.469  0.0382  0.4060 -0.7505
  116OSM   H18H12204   6.290   3.960   8.369 -0.2573  0.3401 -1.4533
  117OSM      N12205   4.661   5.106   6.236  0.8331 -0.4548 -0.6367
  117OSM    C1512206   4.786   5.188   6.253 -0.1515  0.2399  0.6272
  117OSM   H15A12207   4.836   5.189   6.157 -1.5616  0.3349 -0.1358
  117OSM   H15B12208   4.862   5.167   6.327  1.6855  3.5234 -0.1146
  117OSM   H15C12209   4.772   5.295   6.264  2.2179  0.8771 -1.5082
  117OSM    C1412210   4.598   5.155   6.107  0.0995 -0.0671 -0.2926
  117OSM   H14A12211   4.668   5.124   6.031  0.6194  0.3916 -0.0126
  117OSM   H14B12212   4.568   5.258   6.119  0.6020 -0.0253  0.7977
  117OSM   H14C12213   4.510   5.098   6.083  0.0274 -0.2894  0.4733
  117OSM    C1312214   4.706   4.969   6.205 -0.9915 -0.4369 -0.6376
  117OSM   H13A12215   4.761   4.966   6.112  1.7008 -0.8410  0.8488
  117OSM   H13B12216   4.621   4.906   6.186 -2.9811  2.1528 -0.8252
  117OSM   H13C12217   4.767   4.932   6.287 -2.8528  0.9376  1.4997
  117OSM    C1212218   4.572   5.120   6.359  0.0994 -0.3931  0.0843
  117OSM   H12A12219   4.629   5.121   6.451  1.3476  3.3381 -0.6035
  117OSM   H12B12220   4.510   5.031   6.363  2.1566 -2.0043 -1.6080
  117OSM    C1112221   4.475   5.242   6.368 -0.3729  0.8189  0.3098
  117OSM   H11A12222   4.415   5.234   6.461  2.2515 -1.1131  1.9793
  117OSM   H11B12223   4.405   5.229   6.282  0.6797 -1.0980 -0.3243
  117OSM      P12224   4.474   5.495   6.330 -0.3831  0.0956  0.0601
  117OSM    O1312225   4.584   5.572   6.276  0.3667 -0.2351 -0.4318
  117OSM    O1412226   4.355   5.470   6.249 -0.2761  0.2305 -0.3935
  117OSM    O1112227   4.430   5.547   6.471  0.5991  0.0968  0.2562
  117OSM    O1212228   4.546   5.355   6.370  0.2507  0.3373  0.2143
  117OSM    C1S12229   4.515   5.621   6.555  0.2331  0.3855  0.5738
  117OSM    H1S12230   4.539   5.712   6.497 -0.2415 -0.4765 -1.0377
  117OSM    H1T12231   4.608   5.561   6.566 -0.9234 -1.6603 -0.1323
  117OSM     NF12232   4.564   5.725   6.767 -0.0333 -0.6562  0.8498
  117OSM    HNF12233   4.622   5.675   6.830  1.6535  0.1846  0.0161
  117OSM    C2S12234   4.456   5.644   6.702 -0.1953  0.0773  0.3536
  117OSM    H2S12235   4.362   5.702   6.687 -2.5384 -2.9205  2.1861
  117OSM    C3S12236   4.425   5.507   6.763  0.1835  0.5801  0.2732
  117OSM    H3S12237   4.515   5.442   6.761 -1.7095 -2.2111  0.5089
  117OSM     O312238   4.330   5.435   6.682 -0.3243  0.4691  0.3045
  117OSM    HO312239   4.364   5.446   6.593  1.5465 -2.3079  0.5200
  117OSM    C4S12240   4.392   5.526   6.910  0.1166  0.8306  0.3606
  117OSM    H4S12241   4.471   5.553   6.981 -2.3185  2.0164  2.7837
  117OSM    C5S12242   4.272   5.516   6.962  0.1250  0.1675 -0.4809
  117OSM    H5S12243   4.188   5.482   6.900 -2.2021  1.3852  1.8156
  117OSM    C6S12244   4.231   5.525   7.106  0.2908  0.0209 -0.6001
  117OSM    H6S12245   4.172   5.439   7.145 -0.8570  2.1533  2.7804
  117OSM    H6T12246   4.160   5.610   7.114  0.0693 -0.2669  0.6014
  117OSM    C7S12247   4.342   5.523   7.203 -0.2179  0.7155 -0.2484
  117OSM    H7S12248   4.402   5.615   7.188 -2.9310  2.3670 -1.9866
  117OSM    H7T12249   4.402   5.430   7.191 -2.9025 -0.9011 -2.2221
  117OSM    C8S12250   4.297   5.536   7.350 -0.8630 -0.3131  0.4836
  117OSM    H8S12251   4.234   5.447   7.370 -0.6985 -0.4996  0.1671
  117OSM    H8T12252   4.237   5.630   7.357 -0.2350  0.3183 -1.8281
  117OSM    C9S12253   4.404   5.542   7.463  0.6757 -0.5090  1.1216
  117OSM    H9S12254   4.468   5.631   7.453  1.7638 -1.3795 -0.0463
  117OSM    H9T12255   4.473   5.455   7.456  0.5535 -0.5239 -0.2905
  117OSM   C10S12256   4.346   5.531   7.602 -0.1598  0.0838  0.0113
  117OSM   H10S12257   4.306   5.427   7.605  0.2284 -0.0751 -0.2902
  117OSM   H10T12258   4.257   5.596   7.617 -0.0444  0.4772 -0.9547
  117OSM   C11S12259   4.437   5.559   7.713 -0.2180  0.0558 -0.6729
  117OSM   H11S12260   4.524   5.491   7.728 -2.6052 -3.0516  0.2890
  117OSM   H11T12261   4.379   5.552   7.808 -0.1107 -2.5904 -0.7164
  117OSM   C12S12262   4.483   5.704   7.713 -0.5586 -0.9470 -0.0717
  117OSM   H12S12263   4.395   5.770   7.705  0.6212  0.5806 -0.8353
  117OSM   H12T12264   4.564   5.726   7.641 -1.0745  0.9628 -0.1212
  117OSM   C13S12265   4.556   5.754   7.841  0.3803 -0.0608 -0.4698
  117OSM   H13S12266   4.492   5.735   7.929 -0.4898 -1.8992 -1.4380
  117OSM   H13T12267   4.563   5.864   7.835  0.5543 -0.0585 -0.2331
  117OSM   C14S12268   4.698   5.703   7.858 -0.6415  0.9635 -0.3231
  117OSM   H14S12269   4.766   5.717   7.772  0.6825 -4.0459 -0.3956
  117OSM   H14T12270   4.700   5.594   7.879 -0.0302  0.5659 -2.2692
  117OSM   C15S12271   4.765   5.763   7.982 -0.6989  0.0283  0.4919
  117OSM   H15S12272   4.714   5.727   8.074  0.4862 -0.6315  0.9205
  117OSM   H15T12273   4.759   5.873   7.976  0.1019  0.0053 -1.0182
  117OSM   C16S12274   4.916   5.724   8.002 -0.0287  0.1242  0.0114
  117OSM   H16S12275   4.974   5.778   7.925 -1.8931 -0.1278 -1.6583
  117OSM   H16T12276   4.915   5.613   7.989  1.0046 -0.1102  1.6610
  117OSM   C17S12277   4.966   5.757   8.140 -0.1976 -0.1525  0.8459
  117OSM   H17S12278   4.891   5.724   8.216 -0.0316 -0.0424  1.0610
  117OSM   H17T12279   4.971   5.868   8.150  0.9391 -0.0056 -1.0276
  117OSM   C18S12280   5.105   5.699   8.172  0.5502 -0.2500 -0.8016
  117OSM   H18S12281   5.173   5.714   8.086  1.1527 -1.6795 -0.6169
  117OSM   H18T12282   5.089   5.590   8.191  0.9525 -0.0464  0.8057
  117OSM   H18U12283   5.143   5.742   8.266 -1.1614 -2.5475  1.0828
  117OSM    C1F12284   4.598   5.849   6.731  0.0554  1.2312 -0.9604
  117OSM     OF12285   4.556   5.901   6.633 -0.1162  0.4034  0.1459
  117OSM    C2F12286   4.703   5.922   6.826  0.0139  0.5359 -0.4048
  117OSM    H2F12287   4.714   5.855   6.913  0.4535  0.3778 -0.5780
  117OSM    H2G12288   4.646   6.014   6.849 -3.4047 -1.9744  2.3426
  117OSM    C3F12289   4.838   5.944   6.752  0.2433  0.1598 -0.1883
  117OSM    H3F12290   4.815   6.017   6.671  2.1443  3.5205  2.0556
  117OSM    H3G12291   4.872   5.849   6.706 -0.9163 -1.1696  1.5385
  117OSM    C4F12292   4.950   6.007   6.832  0.6729 -0.0895  0.2452
  117OSM    H4F12293   4.907   6.053   6.924 -1.2381 -0.9291 -0.1844
  117OSM    H4G12294   5.015   6.080   6.780  2.4518 -1.9308 -0.2252
  117OSM    C5F12295   5.049   5.903   6.891  0.7287  0.4364 -0.0349
  117OSM    H5F12296   5.092   5.853   6.802  0.6110  0.2006  0.0413
  117OSM    H5G12297   5.004   5.832   6.963  1.6495  0.7469  0.8768
  117OSM    C6F12298   5.163   5.968   6.972 -0.5403 -0.0853  0.1460
  117OSM    H6F12299   5.218   5.886   7.021 -2.5615 -2.3250 -1.1116
  117OSM    H6G12300   5.128   6.035   7.054  0.3719  0.0545  0.4251
  117OSM    C7F12301   5.245   6.067   6.889 -0.0106 -0.2623 -0.6332
  117OSM    H7F12302   5.184   6.157   6.865  1.1056  0.7888  0.3298
  117OSM    H7G12303   5.286   6.019   6.797 -0.4522 -0.8872 -0.5099
  117OSM    C8F12304   5.372   6.129   6.960 -0.6191 -0.3738 -0.1756
  117OSM    H8F12305   5.429   6.183   6.881  0.4318 -0.4445  0.5156
  117OSM    H8G12306   5.430   6.036   6.978  1.5320  0.3430 -2.7294
  117OSM    C9F12307   5.321   6.219   7.068  0.2994  0.3468  0.0333
  117OSM    H9F12308   5.213   6.242   7.063 -0.1172 -0.5462  3.1453
  117OSM   C10F12309   5.385   6.242   7.183 -0.3222  0.3110  0.1231
  117OSM   H10F12310   5.350   6.324   7.248  3.3428  3.1406 -1.1327
  117OSM   C11F12311   5.528   6.199   7.219 -0.7343  0.0723  0.1746
  117OSM   H11F12312   5.583   6.278   7.273 -0.3825 -0.8442  1.2084
  117OSM   H11G12313   5.596   6.171   7.135 -1.1639  1.1410 -0.5459
  117OSM   C12F12314   5.524   6.080   7.320  0.5292 -0.0730  0.3981
  117OSM   H12F12315   5.629   6.061   7.354  0.5557 -2.2833 -0.7414
  117OSM   H12G12316   5.494   5.989   7.263 -1.8257  0.5843  0.5119
  117OSM   C13F12317   5.427   6.097   7.448  0.5483 -0.4827  0.0520
  117OSM   H13F12318   5.426   6.001   7.504  0.9751 -1.3431 -1.3587
  117OSM   H13G12319   5.322   6.119   7.421  0.9925 -0.0819 -1.5076
  117OSM   C14F12320   5.478   6.205   7.549  0.3052 -0.6298  0.1309
  117OSM   H14F12321   5.473   6.304   7.500  1.3273 -0.6527 -0.0257
  117OSM   H14G12322   5.585   6.184   7.568  0.6847  0.5736 -0.5985
  117OSM   C15F12323   5.392   6.219   7.682  0.0074 -0.1259  0.5344
  117OSM   H15F12324   5.289   6.257   7.667 -0.4494 -1.2476  0.7186
  117OSM   H15G12325   5.450   6.286   7.749  0.9400 -0.1160 -0.2625
  117OSM   C16F12326   5.382   6.093   7.766  0.2373  0.1043  0.0689
  117OSM   H16F12327   5.486   6.054   7.767  0.3595  0.3875 -0.9121
  117OSM   H16G12328   5.322   6.014   7.717 -0.5654 -0.2518  1.5609
  117OSM   C17F12329   5.331   6.128   7.911  0.1002 -0.1347 -0.0056
  117OSM   H17F12330   5.379   6.210   7.968  1.7491  0.1719 -1.7373
  117OSM   H17G12331   5.224   6.158   7.908  0.2101  0.2879  0.1935
  117OSM   C18F12332   5.331   6.004   8.008  0.3957  0.1038 -0.0396
  117OSM   H18F12333   5.235   5.947   8.004  0.5850 -0.3236  1.0397
  117OSM   H18G12334   5.334   6.024   8.118  1.4040 -1.1180  0.1741
  117OSM   H18H12335   5.415   5.937   7.982  2.1548  2.4106 -0.5599
  118OSM      N12336   6.162   1.160   5.925  0.4153 -0.2901 -0.2918
  118OSM    C1512337   6.120   1.018   5.958 -0.1813  0.1876  0.2451
  118OSM   H15A12338   6.049   0.967   5.894  0.5248  0.5595 -0.8543
  118OSM   H15B12339   6.082   1.013   6.059 -2.3228  0.6607 -0.4887
  118OSM   H15C12340   6.206   0.952   5.955  0.2716  0.7812 -0.0473
  118OSM    C1412341   6.207   1.169   5.779  0.1698  0.0551  0.0411
  118OSM   H14A12342   6.234   1.268   5.748  0.9315 -0.3087 -0.4914
  118OSM   H14B12343   6.129   1.138   5.710 -0.3328 -1.8796  1.3837
  118OSM   H14C12344   6.287   1.097   5.771  0.9392  0.7667  1.1272
  118OSM    C1312345   6.046   1.250   5.934  0.4127  0.4087 -0.0978
  118OSM   H13A12346   6.009   1.257   6.036 -1.3908  0.5100 -0.7202
  118OSM   H13B12347   5.966   1.210   5.873 -0.3559 -1.5521  2.0604
  118OSM   H13C12348   6.074   1.352   5.915 -0.1498  1.2628  3.0418
  118OSM    C1212349   6.273   1.211   6.010  0.8837 -0.6263 -0.2225
  118OSM   H12A12350   6.315   1.306   5.981  0.1708  0.3700  1.8270
  118OSM   H12B12351   6.365   1.154   6.014  0.7583 -0.9025  4.1932
  118OSM    C1112352   6.245   1.219   6.170 -0.5917 -0.4089  0.2954
  118OSM   H11A12353   6.160   1.288   6.190  0.6781  0.7262  2.0202
  118OSM   H11B12354   6.322   1.275   6.226 -1.4882 -1.0438  2.2581
  118OSM      P12355   6.348   0.999   6.267 -0.5348 -0.0925 -0.2162
  118OSM    O1312356   6.317   0.869   6.209 -0.3638 -0.1285  0.2596
  118OSM    O1412357   6.474   1.063   6.224 -0.5754  0.3647 -0.2984
  118OSM    O1112358   6.351   0.995   6.428  0.6080  0.2810  0.2195
  118OSM    O1212359   6.228   1.095   6.241  0.6305 -0.4714 -0.0195
  118OSM    C1S12360   6.235   0.971   6.506  0.4477 -0.0110 -0.7493
  118OSM    H1S12361   6.184   0.879   6.471 -0.9502  0.6681 -0.5558
  118OSM    H1T12362   6.176   1.065   6.497 -0.7244 -0.4246  1.7336
  118OSM     NF12363   6.173   0.923   6.757  0.7976  0.1355 -0.4341
  118OSM    HNF12364   6.122   0.999   6.796  0.6629 -0.5096  0.7125
  118OSM    C2S12365   6.278   0.964   6.661  0.2296 -0.0526  0.2200
  118OSM    H2S12366   6.359   0.888   6.660 -0.7849 -1.1654 -0.4264
  118OSM    C3S12367   6.346   1.100   6.704  0.3436  0.7958  0.9704
  118OSM    H3S12368   6.263   1.172   6.721  1.6644  2.0932  2.1820
  118OSM     O312369   6.434   1.160   6.612  0.2939  0.6112 -0.0737
  118OSM    HO312370   6.420   1.126   6.524 -0.8145  0.7383  0.0454
  118OSM    C4S12371   6.414   1.101   6.840 -0.0728 -0.4199 -0.1711
  118OSM    H4S12372   6.364   1.153   6.923 -0.4483  1.4884 -1.5475
  118OSM    C5S12373   6.534   1.053   6.862  0.3493  0.2746 -0.7963
  118OSM    H5S12374   6.591   0.995   6.788  0.5561 -1.6148  0.7764
  118OSM    C6S12375   6.620   1.051   6.987  0.6481  0.0096  0.4759
  118OSM    H6S12376   6.706   1.119   6.971 -0.2019  1.0746  0.3079
  118OSM    H6T12377   6.665   0.950   6.998 -1.8588 -0.9447  3.5828
  118OSM    C7S12378   6.544   1.091   7.114 -0.0828  0.0602  0.4045
  118OSM    H7S12379   6.456   1.025   7.126 -2.7424  3.2478 -0.1431
  118OSM    H7T12380   6.509   1.196   7.119  1.2007  0.4810  1.4237
  118OSM    C8S12381   6.634   1.065   7.234  0.0932  0.3441 -0.7106
  118OSM    H8S12382   6.722   1.131   7.232 -0.0106  0.4623 -1.8581
  118OSM    H8T12383   6.665   0.959   7.217  2.3966  0.6443  1.1420
  118OSM    C9S12384   6.558   1.067   7.375 -0.2658  0.4631  0.3770
  118OSM    H9S12385   6.487   0.982   7.386  1.5065 -1.1264  0.1270
  118OSM    H9T12386   6.497   1.158   7.394 -0.7733 -0.0994  1.5921
  118OSM   C10S12387   6.663   1.067   7.487  0.4511 -0.1863  0.0683
  118OSM   H10S12388   6.743   1.137   7.454 -0.9773  1.3916 -0.1776
  118OSM   H10T12389   6.706   0.966   7.498 -0.9419 -0.9375 -1.0259
  118OSM   C11S12390   6.606   1.116   7.614 -0.1723  0.4569  0.0207
  118OSM   H11S12391   6.543   1.040   7.665  0.2542  0.5952  0.7779
  118OSM   H11T12392   6.549   1.210   7.595 -1.1367  1.1333  4.8551
  118OSM   C12S12393   6.712   1.160   7.715  0.2103 -0.1677  0.1402
  118OSM   H12S12394   6.670   1.156   7.817 -1.3450 -0.6632 -0.4986
  118OSM   H12T12395   6.747   1.264   7.699  2.8022 -0.7802  1.3096
  118OSM   C13S12396   6.835   1.067   7.703 -0.3243  0.6085  0.8639
  118OSM   H13S12397   6.890   1.095   7.611 -0.7305 -0.1944  0.3665
  118OSM   H13T12398   6.785   0.969   7.688  0.9071  0.3453 -2.2388
  118OSM   C14S12399   6.934   1.074   7.814 -0.0347 -0.2634 -0.0142
  118OSM   H14S12400   6.874   1.049   7.905 -0.0889 -1.2710 -0.3130
  118OSM   H14T12401   6.967   1.179   7.823 -1.8869  0.5031 -1.4169
  118OSM   C15S12402   7.044   0.977   7.799 -0.4473  0.0829  0.7415
  118OSM   H15S12403   7.102   0.996   7.707 -0.7245  2.1329  0.9405
  118OSM   H15T12404   6.989   0.881   7.793 -0.4200  0.1449 -3.7457
  118OSM   C16S12405   7.157   0.966   7.905 -0.7580 -0.0946 -0.1804
  118OSM   H16S12406   7.183   1.071   7.928  0.5439  0.0781 -2.1783
  118OSM   H16T12407   7.245   0.917   7.858 -1.2212 -0.4868 -0.6519
  118OSM   C17S12408   7.107   0.887   8.025 -0.7420  0.2154 -0.3093
  118OSM   H17S12409   7.048   0.796   8.002 -0.9341  0.0873  0.6821
  118OSM   H17T12410   7.020   0.950   8.052 -0.2995  1.5399 -1.7836
  118OSM   C18S12411   7.206   0.884   8.140 -0.4130  0.7157  0.0775
  118OSM   H18S12412   7.160   0.819   8.218 -2.0523  0.1369 -1.3155
  118OSM   H18T12413   7.254   0.978   8.175 -0.2494  0.0412  1.7750
  118OSM   H18U12414   7.289   0.822   8.101  0.6787  0.6734  2.2934
  118OSM    C1F12415   6.125   0.797   6.761  0.1554  0.1357  0.3234
  118OSM     OF12416   6.162   0.708   6.683  0.1580 -0.2265  0.5351
  118OSM    C2F12417   5.999   0.772   6.840  0.0547  0.0306 -0.1732
  118OSM    H2F12418   5.935   0.708   6.776  1.8224  1.4239 -3.6266
  118OSM    H2G12419   5.947   0.870   6.847  0.4312  0.1375  1.5564
  118OSM    C3F12420   6.029   0.729   6.981 -0.0302  0.1555  0.0315
  118OSM    H3F12421   6.103   0.801   7.020  1.6203 -1.9413  0.9897
  118OSM    H3G12422   6.089   0.635   6.985 -0.1621  0.0159 -0.8917
  118OSM    C4F12423   5.910   0.708   7.076  0.0440 -0.2962 -0.3773
  118OSM    H4F12424   5.822   0.656   7.034  0.9472 -1.1445 -1.2493
  118OSM    H4G12425   5.870   0.809   7.101 -0.8046 -0.8897  0.7848
  118OSM    C5F12426   5.965   0.651   7.205 -0.1151 -0.1925 -0.5510
  118OSM    H5F12427   6.065   0.693   7.228 -0.0326  0.1410 -1.5104
  118OSM    H5G12428   5.979   0.542   7.192  0.6420 -0.5259  2.2282
  118OSM    C6F12429   5.863   0.657   7.319  0.4910  0.0039  0.4557
  118OSM    H6F12430   5.784   0.582   7.299  2.9544 -2.6107 -0.0308
  118OSM    H6G12431   5.816   0.756   7.339  0.0383 -0.1742  0.2782
  118OSM    C7F12432   5.931   0.616   7.444  0.2649  0.9383 -0.6492
  118OSM    H7F12433   6.006   0.535   7.429 -0.6140  0.2910 -1.7099
  118OSM    H7G12434   5.856   0.572   7.513  0.0359 -0.8279 -1.9525
  118OSM    C8F12435   5.989   0.737   7.525  0.0840  0.3465  0.7505
  118OSM    H8F12436   5.919   0.823   7.523  0.3849  0.5977  0.9697
  118OSM    H8G12437   6.086   0.766   7.479  0.0436  0.1833  0.5612
  118OSM    C9F12438   6.030   0.713   7.670  0.4885 -0.9355  0.6029
  118OSM    H9F12439   6.132   0.671   7.677  0.1144 -1.6374  2.6275
  118OSM   C10F12440   5.952   0.730   7.781 -0.0600  0.4526 -0.7497
  118OSM   H10F12441   5.998   0.690   7.873 -0.5774 -1.2898 -1.2166
  118OSM   C11F12442   5.808   0.774   7.789 -0.4661  0.0604  1.0600
  118OSM   H11F12443   5.784   0.838   7.702  1.6519 -1.2882 -0.6124
  118OSM   H11G12444   5.789   0.839   7.877  1.2827  1.6221  0.3409
  118OSM   C12F12445   5.701   0.657   7.786  0.4135 -0.3577  0.1853
  118OSM   H12F12446   5.677   0.632   7.680  0.3003 -0.9118  0.3391
  118OSM   H12G12447   5.604   0.702   7.816 -0.4434 -2.3807  0.5607
  118OSM   C13F12448   5.718   0.533   7.872  0.6042 -0.0843  0.2307
  118OSM   H13F12449   5.808   0.483   7.830 -0.9531 -1.7644 -1.2882
  118OSM   H13G12450   5.629   0.466   7.868  0.9267 -0.6685  1.8580
  118OSM   C14F12451   5.752   0.569   8.014  0.0798 -0.7841  0.0435
  118OSM   H14F12452   5.667   0.629   8.054  0.4597  0.6210 -1.1623
  118OSM   H14G12453   5.838   0.637   8.031 -0.7130  0.3728 -0.4641
  118OSM   C15F12454   5.774   0.442   8.105  0.0991 -0.5183 -0.2177
  118OSM   H15F12455   5.748   0.348   8.051 -1.2357 -0.8253  0.8989
  118OSM   H15G12456   5.691   0.458   8.178 -0.5071  0.1387 -1.0293
  118OSM   C16F12457   5.918   0.438   8.159  0.2397  0.2218  0.3236
  118OSM   H16F12458   5.936   0.535   8.211  0.7696  1.5182 -2.1315
  118OSM   H16G12459   5.983   0.442   8.070 -1.7236 -2.2767 -1.3722
  118OSM   C17F12460   5.942   0.316   8.248  0.1253  0.3237 -0.7017
  118OSM   H17F12461   6.046   0.321   8.285  0.5198 -2.4628 -1.2239
  118OSM   H17G12462   5.942   0.225   8.184 -1.6567 -0.2902  0.0986
  118OSM   C18F12463   5.842   0.306   8.366  0.3842  0.7894  0.7007
  118OSM   H18F12464   5.736   0.285   8.340  0.7391 -0.4197  0.1432
  118OSM   H18G12465   5.841   0.401   8.424 -0.2779  0.6932  0.8535
  118OSM   H18H12466   5.862   0.217   8.429 -2.8805 -0.1056  0.6631
  119OSM      N12467   1.391   0.272   5.771 -0.2466 -0.2324 -0.0150
  119OSM    C1512468   1.260   0.207   5.761  0.7616  0.5245  0.2064
  119OSM   H15A12469   1.206   0.192   5.853 -0.9521  1.6468 -0.5579
  119OSM   H15B12470   1.274   0.109   5.717  1.6551  1.1990 -1.0719
  119OSM   H15C12471   1.200   0.265   5.692  1.6431  2.3665  0.9273
  119OSM    C1412472   1.488   0.177   5.838 -0.3855  0.2197  0.1050
  119OSM   H14A12473   1.469   0.160   5.943  0.8515 -0.5508  0.2249
  119OSM   H14B12474   1.588   0.214   5.826 -0.6468  0.5498 -1.2454
  119OSM   H14C12475   1.483   0.081   5.789  1.0087  1.1168 -1.9171
  119OSM    C1312476   1.441   0.318   5.635  0.7588 -0.1633 -0.0336
  119OSM   H13A12477   1.530   0.376   5.656  0.5324  0.2987 -0.3346
  119OSM   H13B12478   1.380   0.388   5.580  2.1144  0.1927 -1.1383
  119OSM   H13C12479   1.466   0.236   5.571  0.3944  0.7974 -1.4516
  119OSM    C1212480   1.357   0.392   5.856  0.1470 -0.2056  0.0116
  119OSM   H12A12481   1.344   0.362   5.959 -1.5917  0.8849  0.1443
  119OSM   H12B12482   1.263   0.429   5.819  1.9449  1.7193 -3.1230
  119OSM    C1112483   1.442   0.522   5.840  0.5388  0.5120  0.3374
  119OSM   H11A12484   1.388   0.607   5.887 -1.8979  0.1337 -1.5807
  119OSM   H11B12485   1.449   0.551   5.733 -0.7140  1.4915  0.5107
  119OSM      P12486   1.676   0.614   5.870  0.0094  0.0468  0.5019
  119OSM    O1312487   1.806   0.547   5.889 -0.6248 -0.4316 -0.0227
  119OSM    O1412488   1.653   0.686   5.743 -0.5507  0.4119  0.1391
  119OSM    O1112489   1.661   0.712   5.983  0.1080 -0.1151  0.5265
  119OSM    O1212490   1.565   0.503   5.900  0.0814  0.0571 -0.3810
  119OSM    C1S12491   1.591   0.710   6.110  0.3260  0.2514 -0.2174
  119OSM    H1S12492   1.490   0.669   6.089  1.2659 -0.9047 -2.9777
  119OSM    H1T12493   1.576   0.809   6.160 -0.6914 -0.4696  0.9874
  119OSM     NF12494   1.593   0.633   6.340 -0.5188  0.6738 -0.3962
  119OSM    HNF12495   1.616   0.699   6.411  0.3512 -0.0613  0.0183
  119OSM    C2S12496   1.673   0.630   6.215  0.6675  0.0339 -0.3841
  119OSM    H2S12497   1.672   0.525   6.179  0.2602  0.5453 -1.9199
  119OSM    C3S12498   1.822   0.672   6.230 -0.0439  0.6492 -0.5554
  119OSM    H3S12499   1.822   0.782   6.245  2.6892  0.5178  1.1886
  119OSM     O312500   1.905   0.647   6.113 -0.2729  0.3770  0.1199
  119OSM    HO312501   1.842   0.601   6.057 -0.2054 -0.8654  1.0122
  119OSM    C4S12502   1.877   0.605   6.353  1.1528 -0.5430 -0.0284
  119OSM    H4S12503   1.870   0.665   6.446 -0.0897  0.1666 -0.5577
  119OSM    C5S12504   1.922   0.481   6.368  0.4473  0.0442  0.6964
  119OSM    H5S12505   1.930   0.416   6.280  1.7397  0.4938  0.4538
  119OSM    C6S12506   1.978   0.420   6.489 -0.3884 -1.0535  0.2540
  119OSM    H6S12507   2.018   0.501   6.554 -1.0670  1.3387 -2.1584
  119OSM    H6T12508   2.064   0.360   6.450  1.0638 -0.1550  1.9174
  119OSM    C7S12509   1.895   0.334   6.584  0.0035 -0.1127 -0.4501
  119OSM    H7S12510   1.954   0.304   6.673 -0.0579  1.3177  0.1061
  119OSM    H7T12511   1.866   0.238   6.537  0.4424 -1.0672  1.1695
  119OSM    C8S12512   1.775   0.416   6.630  0.4193 -0.1927 -0.4580
  119OSM    H8S12513   1.707   0.418   6.542 -2.0041  1.0155  1.3267
  119OSM    H8T12514   1.816   0.515   6.660 -1.4211  0.8276 -1.1780
  119OSM    C9S12515   1.692   0.352   6.748 -0.4649  0.4069  0.0180
  119OSM    H9S12516   1.764   0.336   6.831  0.4039 -1.9718 -1.1051
  119OSM    H9T12517   1.653   0.252   6.718  2.2380 -0.5146 -0.7104
  119OSM   C10S12518   1.577   0.435   6.796 -0.5814  1.0328  0.1433
  119OSM   H10S12519   1.522   0.496   6.721  0.3567  0.2926 -1.2026
  119OSM   H10T12520   1.624   0.512   6.861 -0.5955  1.8777 -0.8305
  119OSM   C11S12521   1.478   0.369   6.891 -0.0821 -0.4079  0.2168
  119OSM   H11S12522   1.540   0.326   6.972 -0.6823 -1.7029  0.0161
  119OSM   H11T12523   1.431   0.278   6.848 -1.1132  0.1352  0.1521
  119OSM   C12S12524   1.371   0.470   6.931 -0.2266 -0.3839  0.3599
  119OSM   H12S12525   1.318   0.509   6.842 -2.0386 -0.7940  1.2252
  119OSM   H12T12526   1.437   0.546   6.977  0.4695 -0.7222 -0.0613
  119OSM   C13S12527   1.262   0.403   7.022  0.2593 -0.3812 -0.0908
  119OSM   H13S12528   1.307   0.349   7.109  1.0877 -0.2452 -0.4339
  119OSM   H13T12529   1.209   0.325   6.963  0.7640 -0.5203 -0.3653
  119OSM   C14S12530   1.165   0.503   7.076  0.1293  0.4923 -0.5180
  119OSM   H14S12531   1.129   0.569   6.994 -1.2346 -1.5129 -1.6198
  119OSM   H14T12532   1.211   0.564   7.156 -1.3010 -0.5700  1.1772
  119OSM   C15S12533   1.046   0.436   7.145  0.0705 -0.1391  0.2286
  119OSM   H15S12534   1.081   0.366   7.225  1.1703 -0.8169 -0.8007
  119OSM   H15T12535   0.989   0.371   7.076 -3.4796 -0.2520  2.9817
  119OSM   C16S12536   0.946   0.536   7.206 -0.5726 -0.0906  0.4770
  119OSM   H16S12537   0.910   0.601   7.123  0.0027 -0.9180 -0.4357
  119OSM   H16T12538   0.999   0.596   7.283  2.3485  0.4010 -1.7355
  119OSM   C17S12539   0.834   0.456   7.270  0.0285 -0.5086  0.2830
  119OSM   H17S12540   0.879   0.416   7.363 -2.0666 -0.0562  1.5657
  119OSM   H17T12541   0.794   0.379   7.201 -0.3240  0.5941 -0.7979
  119OSM   C18S12542   0.721   0.547   7.313 -0.5566  0.0417 -0.0885
  119OSM   H18S12543   0.765   0.636   7.362  0.1105  1.2568 -2.7117
  119OSM   H18T12544   0.637   0.498   7.366 -1.3240 -0.7125 -1.9371
  119OSM   H18U12545   0.663   0.584   7.226  0.2811 -2.1246 -1.6646
  119OSM    C1F12546   1.472   0.575   6.352 -0.9568 -1.0457 -0.8507
  119OSM     OF12547   1.435   0.496   6.266 -0.2265  0.2537  0.0742
  119OSM    C2F12548   1.389   0.614   6.471 -0.3619  0.1332  0.4008
  119OSM    H2F12549   1.431   0.702   6.525 -3.0553  0.9849  1.2473
  119OSM    H2G12550   1.378   0.521   6.530 -0.0785 -1.0877 -1.4061
  119OSM    C3F12551   1.248   0.648   6.427 -0.2724  0.5374  0.5961
  119OSM    H3F12552   1.193   0.555   6.402  0.5587  0.1323  0.2266
  119OSM    H3G12553   1.253   0.709   6.334 -0.6479 -1.8454 -1.0858
  119OSM    C4F12554   1.173   0.739   6.530  0.2080  0.1689 -0.0699
  119OSM    H4F12555   1.085   0.781   6.478 -0.3432 -0.9541 -0.0597
  119OSM    H4G12556   1.244   0.820   6.559  1.5500 -0.3306 -1.7926
  119OSM    C5F12557   1.130   0.657   6.654 -0.7742  0.1943 -0.5811
  119OSM    H5F12558   1.219   0.640   6.718 -0.7987  0.0839 -0.5761
  119OSM    H5G12559   1.090   0.558   6.623  0.6189 -0.9588  1.0853
  119OSM    C6F12560   1.028   0.731   6.745 -0.3327  0.4004 -0.8190
  119OSM    H6F12561   0.992   0.655   6.817 -3.2891  2.0536 -0.4182
  119OSM    H6G12562   0.950   0.766   6.674  0.7807  2.8847 -0.9615
  119OSM    C7F12563   1.080   0.862   6.821 -0.0982  0.6876  0.6279
  119OSM    H7F12564   1.093   0.944   6.747 -0.2005  1.5434  1.5315
  119OSM    H7G12565   1.181   0.835   6.856 -0.6732 -2.3625  0.2011
  119OSM    C8F12566   0.994   0.914   6.944 -0.7721 -0.0052 -0.1601
  119OSM    H8F12567   0.972   0.826   7.007  1.3999 -1.2504 -1.0496
  119OSM    H8G12568   0.904   0.968   6.905  0.3667  0.9974 -1.4925
  119OSM    C9F12569   1.080   1.005   7.029 -0.3762  0.0021 -0.7042
  119OSM    H9F12570   1.092   1.099   6.974  0.7048 -0.9135 -2.1085
  119OSM   C10F12571   1.144   0.990   7.149  0.2185  0.2356  0.7004
  119OSM   H10F12572   1.190   1.080   7.193  0.7651  0.9804 -1.2624
  119OSM   C11F12573   1.149   0.869   7.234  0.0824 -0.4937 -0.3191
  119OSM   H11F12574   1.254   0.834   7.241 -0.0561 -1.1967 -1.4786
  119OSM   H11G12575   1.101   0.781   7.186  1.8924 -2.1704  0.7936
  119OSM   C12F12576   1.106   0.887   7.380  0.6656  0.5515 -0.2642
  119OSM   H12F12577   1.092   0.785   7.421 -0.2482  0.2380 -1.3256
  119OSM   H12G12578   1.021   0.957   7.394  1.5066  1.6488 -0.4642
  119OSM   C13F12579   1.220   0.956   7.460  1.0311 -0.7512 -0.6688
  119OSM   H13F12580   1.233   1.058   7.419 -1.0089  0.2247  0.9448
  119OSM   H13G12581   1.306   0.886   7.448  1.9582 -0.1383  1.7382
  119OSM   C14F12582   1.180   0.971   7.605  0.2407 -0.6718  0.5516
  119OSM   H14F12583   1.119   0.885   7.640 -0.0680  0.1171  2.0483
  119OSM   H14G12584   1.110   1.057   7.612  2.4384  1.3657 -1.1181
  119OSM   C15F12585   1.294   1.007   7.704  0.3966 -0.0602 -0.4001
  119OSM   H15F12586   1.251   1.023   7.806  2.5107  0.7928  0.4117
  119OSM   H15G12587   1.358   1.091   7.671 -2.7126  1.9274 -1.7869
  119OSM   C16F12588   1.390   0.889   7.732  0.2578  0.0858  0.2316
  119OSM   H16F12589   1.413   0.829   7.642  1.2865 -0.0869  0.5917
  119OSM   H16G12590   1.341   0.820   7.804 -0.7708  0.5031 -0.0593
  119OSM   C17F12591   1.515   0.935   7.813 -0.0011 -0.2891 -0.5951
  119OSM   H17F12592   1.500   1.017   7.885  0.2425  0.4950 -1.4167
  119OSM   H17G12593   1.588   0.974   7.739  1.3325 -0.9165  0.3370
  119OSM   C18F12594   1.592   0.817   7.874 -0.6577 -0.4708  0.1662
  119OSM   H18F12595   1.649   0.769   7.792 -1.4020  0.7177 -1.0931
  119OSM   H18G12596   1.523   0.757   7.936 -0.1108 -0.9131  0.3517
  119OSM   H18H12597   1.671   0.857   7.941 -1.2700  1.7786 -0.3667
  120OSM      N12598   5.740   4.842   6.092 -0.0001 -0.2855 -0.1621
  120OSM    C1512599   5.841   4.925   6.010 -0.5860  0.1344  0.1651
  120OSM   H15A12600   5.841   4.890   5.908  0.6711  0.1298  0.1528
  120OSM   H15B12601   5.939   4.905   6.053 -0.4425 -0.5331 -0.4385
  120OSM   H15C12602   5.808   5.026   6.029 -0.9768  0.1798 -0.7170
  120OSM    C1412603   5.621   4.864   6.001  0.0022  0.7505  0.6124
  120OSM   H14A12604   5.609   4.783   5.930  0.7030 -0.2268  1.5630
  120OSM   H14B12605   5.617   4.963   5.958  1.4744  0.7802  0.5110
  120OSM   H14C12606   5.534   4.872   6.065 -0.8305  0.4350 -0.4481
  120OSM    C1312607   5.776   4.704   6.091 -0.2128  0.5976 -0.2990
  120OSM   H13A12608   5.880   4.696   6.120  0.0621  0.6508 -1.2309
  120OSM   H13B12609   5.775   4.657   5.993  0.7053  0.2918 -0.1709
  120OSM   H13C12610   5.716   4.634   6.148 -0.0228  0.3345 -0.4202
  120OSM    C1212611   5.723   4.918   6.225 -0.1658  0.6548  0.0485
  120OSM   H12A12612   5.711   5.023   6.202 -0.2186  0.2139 -2.1656
  120OSM   H12B12613   5.818   4.908   6.275 -0.2012  1.2424  0.2379
  120OSM    C1112614   5.602   4.875   6.320  0.3476  0.5771  0.0534
  120OSM   H11A12615   5.604   4.906   6.426  0.4993 -0.2681  0.3066
  120OSM   H11B12616   5.591   4.765   6.316  1.0006  0.4821  0.6858
  120OSM      P12617   5.421   5.059   6.287 -0.1807  0.1536  0.2112
  120OSM    O1312618   5.528   5.160   6.249  0.5090  0.1024  0.3786
  120OSM    O1412619   5.285   5.072   6.230  0.1317 -0.0873 -1.0640
  120OSM    O1112620   5.402   5.070   6.441  0.0912  0.0431  0.0774
  120OSM    O1212621   5.476   4.913   6.269 -0.5585 -0.1089 -0.4747
  120OSM    C1S12622   5.284   5.012   6.505  0.0568  0.2779  0.1622
  120OSM    H1S12623   5.253   4.918   6.454 -0.1562 -0.1890  1.1383
  120OSM    H1T12624   5.202   5.087   6.504  0.3347  0.5787 -0.2957
  120OSM     NF12625   5.187   4.904   6.702  0.4034  0.3319 -0.2088
  120OSM    HNF12626   5.122   4.964   6.748 -0.4931  0.6623 -1.8154
  120OSM    C2S12627   5.307   4.979   6.658 -0.1604 -0.3279 -0.3952
  120OSM    H2S12628   5.400   4.919   6.671 -0.1986 -0.5465 -1.0814
  120OSM    C3S12629   5.332   5.120   6.729  0.2418  0.2016  0.1860
  120OSM    H3S12630   5.246   5.189   6.721 -0.3784 -0.1281  3.0173
  120OSM     O312631   5.453   5.184   6.682 -0.1054 -0.0764 -0.3550
  120OSM    HO312632   5.479   5.140   6.601 -0.0200  1.9484 -1.5046
  120OSM    C4S12633   5.346   5.085   6.876  0.6265 -0.6402  0.7830
  120OSM    H4S12634   5.263   5.117   6.940  0.8244  0.5006  0.4762
  120OSM    C5S12635   5.447   5.021   6.935 -0.4230  0.0507 -0.4542
  120OSM    H5S12636   5.522   4.979   6.867 -2.3449 -0.4658 -2.3493
  120OSM    C6S12637   5.446   4.989   7.083 -0.5934  0.4993 -0.1236
  120OSM    H6S12638   5.512   5.052   7.146 -0.5648  0.3726 -0.0262
  120OSM    H6T12639   5.488   4.886   7.083 -1.7741 -0.0092  0.8127
  120OSM    C7S12640   5.321   4.975   7.165  0.0765  0.0445  0.3796
  120OSM    H7S12641   5.277   4.879   7.131  1.1917 -0.2128 -0.3717
  120OSM    H7T12642   5.253   5.060   7.139  0.7343 -0.2203 -2.5352
  120OSM    C8S12643   5.356   4.973   7.316  0.0375  0.2039  0.2853
  120OSM    H8S12644   5.401   5.071   7.345 -2.9103  1.5713  0.6825
  120OSM    H8T12645   5.426   4.889   7.330  1.3610  1.3108  0.5345
  120OSM    C9S12646   5.234   4.953   7.399 -0.1940  0.0657 -0.8292
  120OSM    H9S12647   5.180   4.860   7.373  0.4778 -0.6758  0.3241
  120OSM    H9T12648   5.158   5.034   7.387 -3.4973 -3.0039 -2.6484
  120OSM   C10S12649   5.253   4.949   7.551 -0.3392 -0.0464  0.3987
  120OSM   H10S12650   5.339   4.883   7.572 -0.5842 -0.4147  0.2560
  120OSM   H10T12651   5.164   4.904   7.599  0.5963 -0.9650  1.3164
  120OSM   C11S12652   5.258   5.087   7.623 -0.8754  0.3133 -0.8013
  120OSM   H11S12653   5.171   5.148   7.590 -1.7765 -0.2967  0.3619
  120OSM   H11T12654   5.359   5.124   7.595  0.1321 -1.2471  0.6050
  120OSM   C12S12655   5.249   5.066   7.782  0.4067  0.5077 -0.3300
  120OSM   H12S12656   5.314   4.980   7.806  0.1442  0.0019 -1.3624
  120OSM   H12T12657   5.145   5.040   7.809  0.7477  0.4196  0.9246
  120OSM   C13S12658   5.309   5.188   7.860 -0.4165 -0.1965  0.7836
  120OSM   H13S12659   5.266   5.281   7.818 -1.2158 -0.8732  0.0688
  120OSM   H13T12660   5.417   5.176   7.836 -0.4934  1.6629 -0.6106
  120OSM   C14S12661   5.291   5.180   8.011 -0.2766 -0.7547 -0.0173
  120OSM   H14S12662   5.325   5.083   8.052  0.1551 -0.2267  0.8974
  120OSM   H14T12663   5.181   5.190   8.027 -0.7410  0.7986 -3.1808
  120OSM   C15S12664   5.359   5.299   8.085 -0.6537 -0.1204 -0.6118
  120OSM   H15S12665   5.297   5.390   8.064 -1.4884 -0.5397 -0.0271
  120OSM   H15T12666   5.452   5.326   8.031 -2.2795  1.2625 -2.9273
  120OSM   C16S12667   5.395   5.269   8.230 -0.4286 -0.0274 -0.5135
  120OSM   H16S12668   5.473   5.190   8.229 -0.1001  0.2976 -0.7640
  120OSM   H16T12669   5.307   5.225   8.281  1.4663 -2.4278  0.9374
  120OSM   C17S12670   5.456   5.381   8.315 -0.4847 -0.9040  0.3418
  120OSM   H17S12671   5.558   5.407   8.277 -0.3198 -0.7176  0.9019
  120OSM   H17T12672   5.470   5.344   8.419  0.0356  1.4933  1.1959
  120OSM   C18S12673   5.378   5.509   8.316 -0.3409 -0.6278  0.4929
  120OSM   H18S12674   5.350   5.544   8.214 -0.5894 -0.4586  0.6177
  120OSM   H18T12675   5.429   5.588   8.375  1.7705 -1.2791 -0.3838
  120OSM   H18U12676   5.283   5.483   8.367  0.3608  0.8448  2.7111
  120OSM    C1F12677   5.167   4.782   6.663 -0.3564 -0.0665  0.0481
  120OSM     OF12678   5.255   4.726   6.602  0.3454 -0.1771 -0.4639
  120OSM    C2F12679   5.039   4.716   6.710 -0.9978 -0.0342  0.3476
  120OSM    H2F12680   4.982   4.697   6.617  1.0949  0.4155 -1.0951
  120OSM    H2G12681   4.984   4.784   6.779 -0.8976 -1.0936  1.5124
  120OSM    C3F12682   5.082   4.595   6.797 -0.2074 -0.0864 -0.0621
  120OSM    H3F12683   5.153   4.529   6.743 -2.1804 -0.3430 -2.5655
  120OSM    H3G12684   5.002   4.518   6.798  1.9250 -2.4332  0.6707
  120OSM    C4F12685   5.127   4.642   6.934  0.2833  0.6123 -0.0772
  120OSM    H4F12686   5.046   4.693   6.992  0.8154  0.2778  0.9814
  120OSM    H4G12687   5.203   4.723   6.927 -0.8432  1.8899  1.3149
  120OSM    C5F12688   5.190   4.533   7.019  0.6067  0.3456  0.1860
  120OSM    H5F12689   5.286   4.512   6.967  0.5601  3.3175 -1.2894
  120OSM    H5G12690   5.123   4.446   7.005  1.4015 -0.4353  1.1033
  120OSM    C6F12691   5.199   4.553   7.169  0.1158 -0.2621  0.7027
  120OSM    H6F12692   5.099   4.569   7.215  0.6225 -1.8060  2.4545
  120OSM    H6G12693   5.252   4.648   7.191  0.9105 -0.3597 -0.6585
  120OSM    C7F12694   5.257   4.430   7.239 -0.9945  0.1051  0.5559
  120OSM    H7F12695   5.347   4.389   7.189 -1.3636  1.8714 -1.6948
  120OSM    H7G12696   5.181   4.349   7.239 -0.8260 -0.0873 -1.1599
  120OSM    C8F12697   5.291   4.446   7.388  0.4521  0.1380 -0.8965
  120OSM    H8F12698   5.370   4.525   7.387 -0.3405  0.9550 -1.0647
  120OSM    H8G12699   5.346   4.355   7.419  1.8175  1.9025  2.3317
  120OSM    C9F12700   5.174   4.496   7.474 -0.1252  0.0611 -0.2473
  120OSM    H9F12701   5.092   4.546   7.421  0.4949  1.6170  0.2039
  120OSM   C10F12702   5.164   4.451   7.604 -0.0165 -0.1896  0.2019
  120OSM   H10F12703   5.077   4.482   7.665 -0.0214 -0.6560  0.4331
  120OSM   C11F12704   5.262   4.363   7.681  0.1464  0.3035 -0.2996
  120OSM   H11F12705   5.365   4.355   7.639  0.2684  0.0858  0.0382
  120OSM   H11G12706   5.223   4.259   7.686 -0.8692  0.7315  1.3196
  120OSM   C12F12707   5.290   4.422   7.827 -0.0743  0.3090  0.6772
  120OSM   H12F12708   5.340   4.521   7.826  1.9257 -0.5909 -2.1111
  120OSM   H12G12709   5.365   4.347   7.859 -0.6880 -0.6799 -0.1293
  120OSM   C13F12710   5.170   4.412   7.912 -0.0782 -0.5952  0.1992
  120OSM   H13F12711   5.125   4.310   7.908  1.0180 -1.0635 -0.8798
  120OSM   H13G12712   5.095   4.480   7.867 -0.2523  0.7913  2.4197
  120OSM   C14F12713   5.207   4.462   8.053 -0.5648 -0.3893  0.0532
  120OSM   H14F12714   5.122   4.478   8.123  0.2007 -0.2023  0.9618
  120OSM   H14G12715   5.258   4.558   8.031 -0.4425 -1.4124 -5.7286
  120OSM   C15F12716   5.319   4.389   8.141  0.3308  0.1650  0.3545
  120OSM   H15F12717   5.420   4.404   8.097  0.7930  2.5170  2.0442
  120OSM   H15G12718   5.285   4.283   8.142 -2.0132  0.7354 -2.8500
  120OSM   C16F12719   5.331   4.432   8.291 -0.4641 -0.6435  0.2656
  120OSM   H16F12720   5.255   4.369   8.343 -0.0465 -1.7532 -0.4349
  120OSM   H16G12721   5.308   4.540   8.307  0.8039 -0.4132  0.6101
  120OSM   C17F12722   5.470   4.386   8.352 -0.3467  0.0466 -0.0739
  120OSM   H17F12723   5.554   4.407   8.284  0.0019 -1.2899 -0.0863
  120OSM   H17G12724   5.466   4.275   8.364 -1.4035 -0.3351 -3.1039
  120OSM   C18F12725   5.499   4.453   8.483  0.0012 -0.3485 -0.6056
  120OSM   H18F12726   5.599   4.429   8.524 -0.1302 -0.2764 -0.2431
  120OSM   H18G12727   5.424   4.410   8.553  0.4975  2.4382  1.8049
  120OSM   H18H12728   5.467   4.559   8.480  0.0238 -0.3541 -1.0448
  121OSM      N12729   6.330   6.352   6.401  1.3611  0.1682 -0.7253
  121OSM    C1512730   6.368   6.378   6.551 -0.8978 -0.4774  0.1447
  121OSM   H15A12731   6.396   6.482   6.557  0.6503 -0.8254 -0.5318
  121OSM   H15B12732   6.454   6.321   6.581 -0.5842 -0.0151  0.1463
  121OSM   H15C12733   6.281   6.362   6.612  0.1594  0.3383  1.9381
  121OSM    C1412734   6.268   6.214   6.392  0.1927  1.1036 -0.0609
  121OSM   H14A12735   6.345   6.139   6.406  1.3419  2.0465 -1.0473
  121OSM   H14B12736   6.227   6.205   6.292 -0.7715  2.3066  0.2065
  121OSM   H14C12737   6.185   6.202   6.459  0.5111 -4.6523 -0.2010
  121OSM    C1312738   6.235   6.456   6.357  0.9682  0.4996 -0.0163
  121OSM   H13A12739   6.172   6.479   6.442  1.8802 -0.5429  0.9734
  121OSM   H13B12740   6.176   6.442   6.268 -0.3491 -1.3125  1.0662
  121OSM   H13C12741   6.291   6.548   6.352  2.5911 -0.1310  3.4906
  121OSM    C1212742   6.454   6.352   6.305 -0.1475 -0.3638  0.6044
  121OSM   H12A12743   6.429   6.327   6.203 -1.0889  0.3104  0.6508
  121OSM   H12B12744   6.527   6.278   6.332  0.7029  0.0461 -0.4946
  121OSM    C1112745   6.525   6.483   6.281 -0.0252  0.0855 -0.5173
  121OSM   H11A12746   6.630   6.465   6.250 -0.5274 -2.5345 -0.8829
  121OSM   H11B12747   6.529   6.529   6.382 -0.6557 -2.2407  0.6268
  121OSM      P12748   6.521   6.718   6.156  0.0048  0.1795  0.0499
  121OSM    O1312749   6.612   6.706   6.042 -0.3696  0.1861 -0.6384
  121OSM    O1412750   6.415   6.821   6.150 -0.2139  0.9978 -0.1390
  121OSM    O1112751   6.621   6.754   6.276  0.2987 -0.2151 -0.3817
  121OSM    O1212752   6.461   6.572   6.189  0.1852  0.1724 -0.0374
  121OSM    C1S12753   6.570   6.805   6.394  0.7859 -0.6821 -0.7554
  121OSM    H1S12754   6.463   6.781   6.413  0.9844 -0.2328  1.1509
  121OSM    H1T12755   6.565   6.916   6.393 -0.2265 -0.6181  1.8256
  121OSM     NF12756   6.599   6.820   6.646 -0.6646  0.0683  0.7123
  121OSM    HNF12757   6.635   6.907   6.680  0.0993  0.8886 -1.9145
  121OSM    C2S12758   6.659   6.768   6.521  0.5764 -0.6572 -0.1316
  121OSM    H2S12759   6.659   6.657   6.522  0.0717 -0.7511 -3.1138
  121OSM    C3S12760   6.800   6.825   6.494 -0.3323 -0.1665 -0.7342
  121OSM    H3S12761   6.794   6.936   6.484  0.2674 -0.0149  0.4336
  121OSM     O312762   6.856   6.796   6.369 -0.1818 -0.1482  0.3156
  121OSM    HO312763   6.776   6.789   6.317  0.6405 -1.2730 -0.8580
  121OSM    C4S12764   6.895   6.800   6.615  0.3314  0.0835  0.5329
  121OSM    H4S12765   6.908   6.880   6.689 -0.0559  2.1582 -1.5514
  121OSM    C5S12766   6.971   6.693   6.634  0.2500  0.2407 -0.1071
  121OSM    H5S12767   6.961   6.619   6.553  1.5413  0.8096 -0.8225
  121OSM    C6S12768   7.079   6.671   6.746  0.0823  0.3028 -0.0808
  121OSM    H6S12769   7.100   6.767   6.798  0.1389  1.5809 -2.3412
  121OSM    H6T12770   7.172   6.639   6.693  0.5279  0.0055  0.8537
  121OSM    C7S12771   7.065   6.559   6.851 -0.6238 -0.2518 -0.9484
  121OSM    H7S12772   7.159   6.512   6.887  0.3894  2.2654 -0.1064
  121OSM    H7T12773   7.005   6.480   6.799 -1.8833  0.6705 -0.9512
  121OSM    C8S12774   6.988   6.607   6.978 -0.1403 -0.3875  0.5916
  121OSM    H8S12775   6.921   6.525   7.014  0.1569 -0.4332  1.0537
  121OSM    H8T12776   6.930   6.698   6.951  1.8037  0.1805 -2.0290
  121OSM    C9S12777   7.079   6.645   7.090 -0.4685  0.3164 -1.0314
  121OSM    H9S12778   7.092   6.755   7.088  0.0852  0.3377  1.0810
  121OSM    H9T12779   7.173   6.586   7.086 -0.5545 -0.1009  1.5642
  121OSM   C10S12780   7.005   6.621   7.223 -0.1622 -0.7844 -0.2473
  121OSM   H10S12781   6.974   6.515   7.236 -0.0302 -0.8060 -0.1040
  121OSM   H10T12782   6.909   6.677   7.227  0.0042 -0.4278 -1.1838
  121OSM   C11S12783   7.092   6.657   7.350 -0.0713 -0.8664 -0.7183
  121OSM   H11S12784   7.115   6.766   7.345 -0.1982 -0.6429  2.0503
  121OSM   H11T12785   7.181   6.591   7.348  0.1152 -0.6758  0.5157
  121OSM   C12S12786   7.010   6.625   7.485  0.5261  0.0807  0.5424
  121OSM   H12S12787   7.007   6.515   7.500  0.4671  0.4892  4.3973
  121OSM   H12T12788   6.906   6.662   7.477 -0.1677 -1.6878  0.9163
  121OSM   C13S12789   7.062   6.701   7.604 -1.0783  0.6648 -0.7515
  121OSM   H13S12790   7.054   6.811   7.592  0.3100  0.8971  0.2351
  121OSM   H13T12791   7.169   6.676   7.620 -1.3853 -0.2829 -0.0689
  121OSM   C14S12792   6.996   6.662   7.744  1.0644  0.3384 -0.2148
  121OSM   H14S12793   6.996   6.551   7.751 -1.5644  0.3113  0.0309
  121OSM   H14T12794   6.891   6.696   7.731  1.1951  1.3553  1.2021
  121OSM   C15S12795   7.060   6.726   7.871 -0.3932 -0.3965 -0.0702
  121OSM   H15S12796   7.057   6.837   7.865 -0.4202 -0.3534  0.7232
  121OSM   H15T12797   7.167   6.698   7.860 -0.4516 -0.8201  0.4474
  121OSM   C16S12798   7.023   6.657   8.003 -0.1829  0.3999 -0.4812
  121OSM   H16S12799   7.104   6.690   8.071  0.0657  1.7971 -1.4173
  121OSM   H16T12800   7.026   6.546   7.997  0.5793  0.2955  1.2603
  121OSM   C17S12801   6.884   6.698   8.048  0.2680 -0.2446 -0.4238
  121OSM   H17S12802   6.802   6.671   7.978 -1.6770  0.7121  1.3689
  121OSM   H17T12803   6.890   6.808   8.060 -1.7134 -0.3945  3.6625
  121OSM   C18S12804   6.859   6.649   8.190 -0.2093  0.0068  0.3865
  121OSM   H18S12805   6.758   6.681   8.224 -0.6357 -1.5074  0.6146
  121OSM   H18T12806   6.927   6.698   8.264  1.4982  0.1260 -1.1774
  121OSM   H18U12807   6.869   6.539   8.196  0.4081  0.1157  1.8330
  121OSM    C1F12808   6.479   6.772   6.681  0.2222 -0.0461 -0.4421
  121OSM     OF12809   6.447   6.660   6.647  0.4229 -0.0021  0.5751
  121OSM    C2F12810   6.383   6.864   6.760 -0.0829  0.2141 -0.5622
  121OSM    H2F12811   6.333   6.797   6.832  2.2722 -1.2912 -0.2254
  121OSM    H2G12812   6.318   6.906   6.680 -0.1683 -0.0742 -0.6447
  121OSM    C3F12813   6.454   6.968   6.857 -0.2162 -0.2982  0.4755
  121OSM    H3F12814   6.366   7.021   6.898 -2.1843 -1.9742 -1.3240
  121OSM    H3G12815   6.523   7.029   6.795 -1.2899  0.4581 -0.0047
  121OSM    C4F12816   6.508   6.889   6.974 -0.2403  0.6348 -0.8543
  121OSM    H4F12817   6.593   6.821   6.952  0.2526  0.0937  2.2994
  121OSM    H4G12818   6.436   6.829   7.032  1.1828  1.2594  1.7075
  121OSM    C5F12819   6.560   6.991   7.084 -0.2246 -0.7377  0.0820
  121OSM    H5F12820   6.477   7.063   7.092  0.9968  0.8649 -0.9864
  121OSM    H5G12821   6.647   7.050   7.047 -0.1323  0.3550  1.9402
  121OSM    C6F12822   6.602   6.920   7.210 -0.5620 -0.1523 -0.2714
  121OSM    H6F12823   6.654   6.825   7.188 -0.5492 -0.2202  0.0517
  121OSM    H6G12824   6.513   6.894   7.272  1.9068 -1.5138  3.0172
  121OSM    C7F12825   6.687   7.010   7.297  0.0045 -0.0663  0.0093
  121OSM    H7F12826   6.629   7.103   7.317 -0.8331  0.1184 -2.8666
  121OSM    H7G12827   6.780   7.039   7.245 -0.8911 -1.4662 -2.5139
  121OSM    C8F12828   6.719   6.942   7.434 -0.6202  0.3704  0.0105
  121OSM    H8F12829   6.799   7.001   7.485  0.7875 -0.5180 -1.0900
  121OSM    H8G12830   6.751   6.836   7.422  0.6343  0.6151  0.9697
  121OSM    C9F12831   6.596   6.950   7.523 -0.2494 -0.0120  0.1302
  121OSM    H9F12832   6.506   6.979   7.466  0.0938  1.2989  0.2256
  121OSM   C10F12833   6.586   6.932   7.656  0.6778  0.7787 -0.1240
  121OSM   H10F12834   6.489   6.936   7.707  0.4516 -0.4407 -0.4149
  121OSM   C11F12835   6.688   6.904   7.765 -0.2146 -0.7632  1.1527
  121OSM   H11F12836   6.790   6.912   7.722 -0.4279 -0.3509  0.7088
  121OSM   H11G12837   6.677   6.797   7.793 -0.7213 -1.4967 -1.5141
  121OSM   C12F12838   6.684   6.985   7.890  0.4230 -0.2418  0.3602
  121OSM   H12F12839   6.669   7.090   7.857  1.9071  0.3794  1.5642
  121OSM   H12G12840   6.782   6.986   7.942 -0.4497 -1.1991  2.0871
  121OSM   C13F12841   6.566   6.955   7.988 -0.0291  0.6131  0.2625
  121OSM   H13F12842   6.549   6.846   7.984 -0.5764  0.7302 -1.0207
  121OSM   H13G12843   6.481   7.012   7.943 -1.2018 -0.3015  1.2576
  121OSM   C14F12844   6.598   7.005   8.128 -0.9843  0.8611  0.0921
  121OSM   H14F12845   6.635   7.110   8.126 -0.1255  0.5527 -0.6317
  121OSM   H14G12846   6.685   6.942   8.159 -0.9530  0.3328 -1.0224
  121OSM   C15F12847   6.471   6.996   8.214  0.3215 -0.7074  0.8881
  121OSM   H15F12848   6.425   6.895   8.218  1.8479 -1.4043  1.8552
  121OSM   H15G12849   6.389   7.058   8.174  0.0630 -0.7803  1.3017
  121OSM   C16F12850   6.483   7.035   8.361 -0.1567  0.2153 -0.6381
  121OSM   H16F12851   6.523   7.138   8.368 -0.1452  0.1639  0.1442
  121OSM   H16G12852   6.562   6.967   8.401 -1.9742 -2.0895 -0.7271
  121OSM   C17F12853   6.351   7.042   8.440  0.2365 -0.1006 -0.0346
  121OSM   H17F12854   6.275   7.103   8.387 -1.8645 -1.0760  1.7349
  121OSM   H17G12855   6.366   7.098   8.535  2.7769  1.2270 -1.1159
  121OSM   C18F12856   6.288   6.909   8.470  0.0729  0.0179 -0.1192
  121OSM   H18F12857   6.223   6.878   8.385  0.2963  0.4693 -0.4591
  121OSM   H18G12858   6.229   6.913   8.564  2.2319 -0.6335  1.3436
  121OSM   H18H12859   6.372   6.837   8.480 -1.1521 -1.2790  1.2234
  122OSM      N12860   6.553   1.825   5.873  0.0935 -0.4227  0.6348
  122OSM    C1512861   6.420   1.897   5.856 -0.2057  0.1640  0.0676
  122OSM   H15A12862   6.412   1.942   5.758  1.2579  0.3707  0.0212
  122OSM   H15B12863   6.412   1.974   5.931 -0.0626  1.2995 -1.0544
  122OSM   H15C12864   6.333   1.834   5.865 -1.1847  0.9245 -3.0162
  122OSM    C1412865   6.564   1.713   5.773  0.2795 -0.8179 -0.1888
  122OSM   H14A12866   6.667   1.696   5.744  0.7198  0.0294  0.8418
  122OSM   H14B12867   6.507   1.741   5.685 -1.3492  0.1053  1.1051
  122OSM   H14C12868   6.523   1.622   5.814 -0.0832 -0.9878 -0.8985
  122OSM    C1312869   6.663   1.918   5.841 -0.1416  0.5167 -0.1453
  122OSM   H13A12870   6.672   1.993   5.918  0.0836  0.7878 -0.4339
  122OSM   H13B12871   6.672   1.959   5.742 -1.6137  1.2747  0.0044
  122OSM   H13C12872   6.751   1.857   5.848 -0.0074  0.7620  0.3495
  122OSM    C1212873   6.555   1.782   6.018 -0.6268 -0.9590  0.0590
  122OSM   H12A12874   6.460   1.731   6.031 -1.0961 -0.4867 -1.3381
  122OSM   H12B12875   6.550   1.872   6.079 -0.8803  1.0855 -2.7899
  122OSM    C1112876   6.663   1.686   6.063 -0.4277 -0.1085  0.3741
  122OSM   H11A12877   6.643   1.675   6.172  0.8486  0.9656  0.7408
  122OSM   H11B12878   6.764   1.729   6.051 -0.1224 -0.5838  1.2154
  122OSM      P12879   6.573   1.433   6.058  0.1132  0.2270 -0.3120
  122OSM    O1312880   6.460   1.421   5.965 -0.0845  0.0553 -0.1465
  122OSM    O1412881   6.664   1.313   6.076 -0.0676 -0.3355 -0.1108
  122OSM    O1112882   6.514   1.475   6.197  0.2598  0.2062  0.2171
  122OSM    O1212883   6.660   1.555   6.003 -0.6176 -0.1199 -0.1985
  122OSM    C1S12884   6.558   1.430   6.321  0.3209  0.1115 -0.4150
  122OSM    H1S12885   6.668   1.430   6.332  0.1381 -0.8533  2.0346
  122OSM    H1T12886   6.523   1.325   6.333  1.6588 -0.2329  0.6419
  122OSM     NF12887   6.560   1.426   6.567  0.0420  0.5638  0.2412
  122OSM    HNF12888   6.507   1.352   6.607  1.3617  0.3904  1.7930
  122OSM    C2S12889   6.500   1.493   6.454 -0.0724  1.3466 -0.3892
  122OSM    H2S12890   6.536   1.598   6.448  0.6804  1.0871 -0.5377
  122OSM    C3S12891   6.346   1.493   6.455  0.1827 -0.3343  0.1888
  122OSM    H3S12892   6.314   1.392   6.489  0.0435  0.0564  1.2823
  122OSM     O312893   6.276   1.512   6.332  0.3043 -0.1166 -0.7910
  122OSM    HO312894   6.341   1.498   6.262 -0.3216 -0.5655 -1.2900
  122OSM    C4S12895   6.309   1.585   6.559  0.1256  0.0950  1.0585
  122OSM    H4S12896   6.372   1.674   6.569 -0.6943  1.0919 -1.8132
  122OSM    C5S12897   6.199   1.575   6.639  0.1872 -0.0834 -0.3528
  122OSM    H5S12898   6.129   1.491   6.636  1.3322 -1.0351 -1.7502
  122OSM    C6S12899   6.160   1.677   6.750 -0.6925 -0.8188  1.2585
  122OSM    H6S12900   6.104   1.767   6.717  1.6873  0.2233 -0.2029
  122OSM    H6T12901   6.247   1.738   6.782 -0.0016 -1.5783  0.8686
  122OSM    C7S12902   6.113   1.621   6.884  0.4454 -0.2378  1.4249
  122OSM    H7S12903   6.188   1.544   6.912  0.3620 -1.8681 -2.2189
  122OSM    H7T12904   6.020   1.567   6.858  1.3199 -1.3005  0.3950
  122OSM    C8S12905   6.065   1.725   6.985  0.5055 -0.0707 -0.2835
  122OSM    H8S12906   5.986   1.786   6.936  0.9511  0.2877 -0.5683
  122OSM    H8T12907   6.155   1.786   7.009 -1.3828  2.4765  0.7116
  122OSM    C9S12908   6.014   1.659   7.120  0.0998  0.5039  0.3696
  122OSM    H9S12909   6.065   1.566   7.153  1.9834  2.2542  2.7627
  122OSM    H9T12910   5.914   1.623   7.087  0.4293  0.6869 -0.8777
  122OSM   C10S12911   6.016   1.756   7.241 -0.1537 -0.4514  0.0959
  122OSM   H10S12912   5.931   1.827   7.234  1.0512  1.0868  0.5461
  122OSM   H10T12913   6.103   1.824   7.226 -1.3981  0.6533 -3.0572
  122OSM   C11S12914   5.993   1.689   7.372 -0.8967  0.3523 -0.0541
  122OSM   H11S12915   6.069   1.608   7.371 -0.3607  0.8398  0.2683
  122OSM   H11T12916   5.896   1.637   7.379 -1.8843  1.7640 -2.1709
  122OSM   C12S12917   6.013   1.780   7.495 -0.4610 -0.5583 -0.0503
  122OSM   H12S12918   5.933   1.857   7.494 -0.5340 -0.6036 -1.9605
  122OSM   H12T12919   6.108   1.834   7.474 -0.2969 -1.8590 -3.1752
  122OSM   C13S12920   6.034   1.700   7.621  0.7894 -0.8372  0.4073
  122OSM   H13S12921   6.106   1.616   7.606  0.0074 -1.2350 -1.4486
  122OSM   H13T12922   5.936   1.653   7.646  0.0501  0.1705 -0.4960
  122OSM   C14S12923   6.070   1.791   7.746  0.2244  0.2599  0.0735
  122OSM   H14S12924   5.994   1.872   7.749 -1.7313 -1.4033 -1.6825
  122OSM   H14T12925   6.162   1.847   7.718  0.4321  0.1050  0.4432
  122OSM   C15S12926   6.092   1.707   7.869  0.0307  0.2863  0.6078
  122OSM   H15S12927   6.179   1.642   7.845  1.2151  1.6158  1.1551
  122OSM   H15T12928   6.003   1.643   7.886  0.7997 -2.2859 -3.5725
  122OSM   C16S12929   6.133   1.787   7.995  0.2965  0.3004  0.7188
  122OSM   H16S12930   6.061   1.870   8.015 -1.4416  0.1915 -3.9543
  122OSM   H16T12931   6.231   1.829   7.962  0.8885 -1.9134 -0.5636
  122OSM   C17S12932   6.164   1.695   8.120 -0.1393 -0.3299  0.6210
  122OSM   H17S12933   6.073   1.642   8.154 -1.5306  2.0540  0.8489
  122OSM   H17T12934   6.203   1.763   8.199  0.4473  1.1460 -0.8753
  122OSM   C18S12935   6.273   1.593   8.100  0.6491 -0.3762 -0.9678
  122OSM   H18S12936   6.357   1.656   8.062  0.3389  2.3470  2.2818
  122OSM   H18T12937   6.249   1.508   8.034 -1.0032  0.7295 -1.8378
  122OSM   H18U12938   6.303   1.553   8.199 -1.0437  0.2582 -0.1521
  122OSM    C1F12939   6.687   1.426   6.595  0.6570 -0.3080  0.1079
  122OSM     OF12940   6.762   1.503   6.540  0.1349 -0.1362  0.2304
  122OSM    C2F12941   6.741   1.322   6.690  0.6777  0.2080 -0.2954
  122OSM    H2F12942   6.746   1.223   6.640 -1.2172  0.8291 -1.8485
  122OSM    H2G12943   6.666   1.311   6.771  1.8228  0.5942  0.8626
  122OSM    C3F12944   6.881   1.360   6.751 -0.3252  0.2097 -0.3858
  122OSM    H3F12945   6.890   1.467   6.780  1.3019 -0.4905  1.9186
  122OSM    H3G12946   6.959   1.337   6.675 -0.4193  0.6170 -0.6129
  122OSM    C4F12947   6.899   1.280   6.878 -0.0463 -0.1710 -0.4418
  122OSM    H4F12948   6.862   1.177   6.862  2.1370 -1.0969  0.0900
  122OSM    H4G12949   6.842   1.330   6.959  0.1491 -1.6628  0.6666
  122OSM    C5F12950   7.044   1.262   6.932  0.2191  0.2749 -0.0997
  122OSM    H5F12951   7.088   1.364   6.922  1.1187 -0.0251  0.7478
  122OSM    H5G12952   7.102   1.190   6.871 -1.7316 -2.2422  0.8248
  122OSM    C6F12953   7.052   1.202   7.076  0.1373  0.0893  0.1470
  122OSM    H6F12954   7.160   1.178   7.087  0.0982 -0.0030  0.3347
  122OSM    H6G12955   6.985   1.113   7.079 -1.6037  1.3799  1.2303
  122OSM    C7F12956   7.023   1.298   7.186  0.0047 -0.2459 -0.5353
  122OSM    H7F12957   6.933   1.363   7.174  0.7663  1.1601  0.9989
  122OSM    H7G12958   7.113   1.361   7.205 -0.7466  0.9123 -0.7069
  122OSM    C8F12959   6.994   1.231   7.320  0.0729 -0.1904 -0.1515
  122OSM    H8F12960   6.907   1.162   7.315 -0.1021 -0.1979  1.9317
  122OSM    H8G12961   6.963   1.306   7.396  0.8394 -0.9953  0.9771
  122OSM    C9F12962   7.106   1.148   7.385 -0.2102 -0.7938 -0.3390
  122OSM    H9F12963   7.122   1.047   7.345 -0.3436 -0.9507 -0.0013
  122OSM   C10F12964   7.174   1.185   7.496  0.3018  0.2191 -0.2165
  122OSM   H10F12965   7.258   1.124   7.530  0.9784  1.2024 -0.1014
  122OSM   C11F12966   7.158   1.303   7.582 -0.2279 -0.2280 -0.4306
  122OSM   H11F12967   7.104   1.258   7.668  0.1394 -1.0101 -0.6015
  122OSM   H11G12968   7.084   1.377   7.543 -1.1524  0.3546  2.1872
  122OSM   C12F12969   7.288   1.374   7.621 -0.5023  0.2614 -0.0956
  122OSM   H12F12970   7.266   1.477   7.656  2.0325  1.3776 -1.5162
  122OSM   H12G12971   7.336   1.395   7.524 -1.4791  0.1052 -0.6280
  122OSM   C13F12972   7.388   1.292   7.713  0.2772 -0.0618  0.1070
  122OSM   H13F12973   7.405   1.196   7.660 -1.6334 -0.7564  0.6526
  122OSM   H13G12974   7.338   1.271   7.810  1.5087 -2.0704  0.3850
  122OSM   C14F12975   7.512   1.357   7.760  0.4580 -0.5418 -0.4716
  122OSM   H14F12976   7.494   1.450   7.819  0.1955 -0.5976 -0.4659
  122OSM   H14G12977   7.557   1.390   7.664  1.1151  1.0584  0.3531
  122OSM   C15F12978   7.600   1.253   7.835 -0.4876 -0.4977 -0.1691
  122OSM   H15F12979   7.644   1.181   7.763  0.2172  1.6228 -1.9601
  122OSM   H15G12980   7.535   1.197   7.906  0.2249  0.6786  1.4374
  122OSM   C16F12981   7.725   1.317   7.901 -0.3540 -0.3625  0.1269
  122OSM   H16F12982   7.703   1.383   7.988 -0.2256 -0.7543  0.4552
  122OSM   H16G12983   7.779   1.375   7.823  0.9382 -4.1550 -2.0095
  122OSM   C17F12984   7.829   1.212   7.959  0.3068 -0.2115  0.2821
  122OSM   H17F12985   7.854   1.143   7.875 -1.3669 -0.9534  0.3372
  122OSM   H17G12986   7.782   1.150   8.039  1.9805  1.1797  2.4802
  122OSM   C18F12987   7.956   1.278   8.023  0.4741  0.3113 -0.2409
  122OSM   H18F12988   7.925   1.331   8.115 -1.6455  1.1585 -1.3935
  122OSM   H18G12989   7.994   1.345   7.943  0.3836 -1.1442 -1.5611
  122OSM   H18H12990   8.032   1.200   8.045 -0.0785 -0.0501  0.4084
  123OSM      N12991   4.066   2.249   6.419  0.2149  0.4686  0.0219
  123OSM    C1512992   4.024   2.129   6.498 -0.5555 -0.1386  0.0859
  123OSM   H15A12993   3.957   2.164   6.575 -1.5567  1.6835 -1.5109
  123OSM   H15B12994   4.111   2.076   6.533 -0.3252 -0.5935 -1.1269
  123OSM   H15C12995   3.962   2.064   6.437  0.3285 -2.4886  1.5622
  123OSM    C1412996   4.130   2.192   6.294  1.1005  0.8598 -0.7737
  123OSM   H14A12997   4.050   2.165   6.226  0.4074  1.1401 -0.0791
  123OSM   H14B12998   4.189   2.104   6.317 -0.6754  0.1977  1.6581
  123OSM   H14C12999   4.201   2.255   6.243 -0.2851  1.1321 -2.4931
  123OSM    C1313000   3.949   2.331   6.382 -0.0819 -0.1148  0.0937
  123OSM   H13A13001   3.875   2.265   6.338 -0.0270 -0.9631  1.2222
  123OSM   H13B13002   3.972   2.414   6.317  1.8503  0.2096  1.1209
  123OSM   H13C13003   3.901   2.374   6.468  0.3273 -0.2485  0.3914
  123OSM    C1213004   4.168   2.328   6.493 -0.2269 -0.6053 -0.4910
  123OSM   H12A13005   4.242   2.259   6.531 -1.2235 -2.1423 -1.1950
  123OSM   H12B13006   4.119   2.368   6.580  2.0723 -2.1426  1.6676
  123OSM    C1113007   4.243   2.443   6.427 -0.4910  0.2211  0.5375
  123OSM   H11A13008   4.294   2.401   6.338  0.0710  0.7960  0.5804
  123OSM   H11B13009   4.321   2.490   6.491 -0.3798 -0.8211  1.1869
  123OSM      P13010   4.080   2.643   6.491 -0.0929  0.3986  0.4350
  123OSM    O1313011   4.144   2.778   6.475 -0.1009 -0.0068 -0.3544
  123OSM    O1413012   3.934   2.628   6.475  0.2629 -0.3316  0.1779
  123OSM    O1113013   4.120   2.583   6.633  0.3329  0.0174 -0.0761
  123OSM    O1213014   4.159   2.554   6.383  0.1709  0.1500  0.3404
  123OSM    C1S13015   4.060   2.643   6.744  0.8306 -0.2512  0.4206
  123OSM    H1S13016   3.966   2.587   6.765 -0.6610  1.4643 -1.2679
  123OSM    H1T13017   4.028   2.745   6.716 -0.7292 -0.3879  1.5815
  123OSM     NF13018   4.079   2.686   6.991  0.4051  1.1065  0.4340
  123OSM    HNF13019   4.081   2.784   7.007 -2.4816  1.4622 -0.6893
  123OSM    C2S13020   4.146   2.633   6.877  0.3852  0.6437  0.0667
  123OSM    H2S13021   4.161   2.523   6.887 -0.6991  0.4057 -0.6860
  123OSM    C3S13022   4.285   2.686   6.840 -0.0364  0.4247 -0.4024
  123OSM    H3S13023   4.280   2.791   6.805 -0.0543  0.3387 -0.6584
  123OSM     O313024   4.366   2.614   6.744 -0.3134 -0.8921  0.3009
  123OSM    HO313025   4.301   2.586   6.680  1.3571 -1.4572 -1.2401
  123OSM    C4S13026   4.376   2.675   6.963  0.4347 -0.5135  0.5679
  123OSM    H4S13027   4.387   2.574   7.006 -1.3203  0.0549  2.4699
  123OSM    C5S13028   4.422   2.780   7.030 -0.6266 -0.1342  0.6997
  123OSM    H5S13029   4.386   2.876   6.991  1.1044 -0.3437 -1.5783
  123OSM    C6S13030   4.502   2.777   7.162  0.1964 -0.2174 -0.6180
  123OSM    H6S13031   4.455   2.839   7.241  1.2730  3.3143 -2.5195
  123OSM    H6T13032   4.598   2.829   7.144  0.4379 -0.7105 -0.7690
  123OSM    C7S13033   4.537   2.637   7.213 -0.1605  0.4307 -0.1578
  123OSM    H7S13034   4.600   2.596   7.132 -2.7504 -0.9769 -1.5623
  123OSM    H7T13035   4.446   2.573   7.221 -0.6135  1.1298  0.4635
  123OSM    C8S13036   4.606   2.636   7.351  0.5149  0.3347  0.3869
  123OSM    H8S13037   4.700   2.696   7.344  0.8784 -0.1871  0.7179
  123OSM    H8T13038   4.638   2.532   7.370 -1.9556 -0.1118  2.6896
  123OSM    C9S13039   4.512   2.671   7.467 -0.3098  0.2573 -0.6918
  123OSM    H9S13040   4.419   2.618   7.439  0.0561 -1.2492  0.7579
  123OSM    H9T13041   4.494   2.780   7.465  2.2889  0.7490 -2.5302
  123OSM   C10S13042   4.564   2.615   7.596 -0.8884  0.0063 -0.2641
  123OSM   H10S13043   4.663   2.659   7.621 -1.4538  2.3224 -1.7982
  123OSM   H10T13044   4.572   2.505   7.585  1.4030  0.2760 -1.7318
  123OSM   C11S13045   4.470   2.649   7.722 -0.9407 -0.5276  0.7018
  123OSM   H11S13046   4.385   2.578   7.715 -1.2812 -0.0808  0.3264
  123OSM   H11T13047   4.422   2.748   7.710 -1.5025 -1.0885 -2.5864
  123OSM   C12S13048   4.544   2.629   7.854  0.6831  0.1584 -0.0660
  123OSM   H12S13049   4.639   2.687   7.854  0.7461  0.0571  0.3649
  123OSM   H12T13050   4.574   2.525   7.875 -1.2633 -0.0312  2.4205
  123OSM   C13S13051   4.448   2.662   7.972  0.0946 -0.4879 -0.0389
  123OSM   H13S13052   4.368   2.587   7.955 -2.3839  2.1347 -0.7849
  123OSM   H13T13053   4.394   2.758   7.957 -0.1835 -0.8170 -1.2036
  123OSM   C14S13054   4.522   2.652   8.106 -0.0071 -0.2600  0.9635
  123OSM   H14S13055   4.585   2.744   8.111  0.0450 -0.2281 -0.0221
  123OSM   H14T13056   4.591   2.565   8.106  0.4011  0.0585  1.1687
  123OSM   C15S13057   4.430   2.663   8.230 -0.1161 -0.5295 -0.2517
  123OSM   H15S13058   4.407   2.558   8.258  1.5392 -1.1846 -1.1949
  123OSM   H15T13059   4.340   2.716   8.193  0.5974  0.8659 -0.0686
  123OSM   C16S13060   4.497   2.743   8.342  0.1765 -0.5095  0.3034
  123OSM   H16S13061   4.533   2.843   8.309 -0.0118 -1.3673 -2.8527
  123OSM   H16T13062   4.586   2.682   8.369 -0.0366 -1.4771 -1.0610
  123OSM   C17S13063   4.409   2.743   8.472 -0.8034 -0.1490  0.2228
  123OSM   H17S13064   4.479   2.764   8.556 -1.7954  2.0115  0.5824
  123OSM   H17T13065   4.364   2.642   8.480 -1.8787 -0.0834 -3.2152
  123OSM   C18S13066   4.302   2.850   8.471 -0.1147  0.1953 -0.1641
  123OSM   H18S13067   4.231   2.837   8.386  0.3936 -1.6303 -0.3538
  123OSM   H18T13068   4.350   2.949   8.456  1.7784 -0.2847  2.0450
  123OSM   H18U13069   4.246   2.849   8.567 -0.5668 -2.2920 -0.3839
  123OSM    C1F13070   3.990   2.604   7.048  0.9812 -0.6138 -0.1576
  123OSM     OF13071   3.974   2.493   7.010  0.4460 -0.3805 -0.3253
  123OSM    C2F13072   3.914   2.655   7.162  0.3155 -0.2330 -0.3169
  123OSM    H2F13073   3.805   2.640   7.148  0.0061  1.9268 -0.5160
  123OSM    H2G13074   3.929   2.765   7.172  0.6724 -0.3937  1.1740
  123OSM    C3F13075   3.972   2.596   7.292 -0.3618 -0.4269  0.7478
  123OSM    H3F13076   4.080   2.612   7.307  0.0849 -1.1135 -1.3509
  123OSM    H3G13077   3.970   2.485   7.281  3.5825 -0.6007  0.3894
  123OSM    C4F13078   3.899   2.645   7.417 -0.0557  0.4473  0.3285
  123OSM    H4F13079   3.798   2.600   7.416  0.8737 -1.8636 -1.9626
  123OSM    H4G13080   3.889   2.755   7.411 -0.1012  0.5009  1.2457
  123OSM    C5F13081   3.966   2.606   7.554  0.1093  0.0618  0.0118
  123OSM    H5F13082   4.074   2.628   7.540 -0.2261  0.5974 -2.2989
  123OSM    H5G13083   3.948   2.498   7.573  0.9919  0.3076  2.5380
  123OSM    C6F13084   3.915   2.685   7.676 -0.2149  0.1219 -0.1194
  123OSM    H6F13085   3.817   2.633   7.692 -0.0007 -0.4296 -0.5388
  123OSM    H6G13086   3.909   2.793   7.652  1.6729  0.5972  1.3765
  123OSM    C7F13087   3.998   2.671   7.803  0.3501  0.3640  0.0117
  123OSM    H7F13088   4.095   2.724   7.801  2.0171 -2.1960  3.0809
  123OSM    H7G13089   4.025   2.564   7.817  1.4683  0.7545  1.0135
  123OSM    C8F13090   3.921   2.715   7.929 -0.4178  0.2824 -0.6082
  123OSM    H8F13091   3.823   2.664   7.942 -0.0594 -0.0493  1.1098
  123OSM    H8G13092   3.890   2.821   7.917 -0.8426  0.1661 -0.5532
  123OSM    C9F13093   3.999   2.705   8.059  0.4572 -0.3888  0.0577
  123OSM    H9F13094   4.025   2.604   8.096 -1.8410 -0.9879  0.1806
  123OSM   C10F13095   4.035   2.802   8.145  0.0998 -0.0558  0.0750
  123OSM   H10F13096   4.075   2.780   8.245 -0.9931  0.5921  0.6755
  123OSM   C11F13097   4.004   2.944   8.130 -0.1291 -0.1456 -0.1696
  123OSM   H11F13098   3.980   2.966   8.024  1.9334 -3.4420 -1.4671
  123OSM   H11G13099   4.089   3.014   8.146 -0.1588  0.2353 -1.5870
  123OSM   C12F13100   3.887   2.971   8.221  0.0598 -0.6904  0.0513
  123OSM   H12F13101   3.801   2.905   8.198 -0.8372  0.0693  1.1076
  123OSM   H12G13102   3.854   3.076   8.205 -1.5320 -1.0660  0.7331
  123OSM   C13F13103   3.922   2.980   8.377 -0.0974  0.2593 -0.0460
  123OSM   H13F13104   3.990   2.898   8.408 -0.5094 -0.5128 -1.0858
  123OSM   H13G13105   3.834   2.964   8.443  0.6704  0.0604  0.9511
  123OSM   C14F13106   3.977   3.115   8.420 -0.6796 -0.6056 -0.1916
  123OSM   H14F13107   3.899   3.185   8.382  0.2020  0.0814 -0.7620
  123OSM   H14G13108   4.075   3.124   8.368  0.5765 -0.3682  2.0853
  123OSM   C15F13109   4.002   3.147   8.573 -0.6702 -0.6430 -0.2060
  123OSM   H15F13110   4.057   3.243   8.582  0.1203 -0.9760 -1.2479
  123OSM   H15G13111   4.062   3.069   8.625  2.0543  2.0450  0.9253
  123OSM   C16F13112   3.870   3.156   8.640  1.0343 -0.4964  0.2787
  123OSM   H16F13113   3.806   3.067   8.625 -1.1320  1.0708 -0.3835
  123OSM   H16G13114   3.802   3.235   8.600  2.0984  1.1598  1.5884
  123OSM   C17F13115   3.882   3.189   8.792 -0.5637  0.3158 -0.2381
  123OSM   H17F13116   3.917   3.293   8.810 -1.9752  0.6471  0.7688
  123OSM   H17G13117   3.963   3.127   8.834 -0.1684  0.1542 -1.2253
  123OSM   C18F13118   3.746   3.180   8.866 -0.4159 -0.2077  0.4255
  123OSM   H18F13119   3.757   3.205   8.974 -0.6492 -1.1329  0.6678
  123OSM   H18G13120   3.707   3.076   8.864 -0.2672 -0.2564  0.1078
  123OSM   H18H13121   3.676   3.254   8.821  0.6198  0.2299 -0.4867
  124OSM      N13122   4.395   0.565   6.215  0.1604 -0.3127  1.2463
  124OSM    C1513123   4.543   0.571   6.182 -0.0437 -0.4937  0.5038
  124OSM   H15A13124   4.565   0.661   6.128 -0.2478  0.4355  1.9339
  124OSM   H15B13125   4.573   0.488   6.119  1.4821 -1.7237  2.7079
  124OSM   H15C13126   4.613   0.554   6.262  1.3119 -0.9383 -0.7410
  124OSM    C1413127   4.371   0.647   6.339 -0.0866  0.1647 -0.2076
  124OSM   H14A13128   4.412   0.747   6.332 -0.0460  0.1621 -0.0161
  124OSM   H14B13129   4.419   0.586   6.414 -1.5888 -3.1936 -1.7919
  124OSM   H14C13130   4.268   0.645   6.372 -0.1294 -1.1980 -0.3872
  124OSM    C1313131   4.313   0.630   6.107 -0.5867  0.6839  0.5044
  124OSM   H13A13132   4.344   0.732   6.090  1.9156  0.0557  0.8994
  124OSM   H13B13133   4.210   0.628   6.142 -1.0686  0.0108 -0.8693
  124OSM   H13C13134   4.313   0.573   6.015 -1.1936 -0.0551  0.9418
  124OSM    C1213135   4.341   0.427   6.244  0.4917 -0.1197 -0.3849
  124OSM   H12A13136   4.239   0.443   6.276 -0.6470 -0.6131 -3.4349
  124OSM   H12B13137   4.407   0.388   6.321  0.3930  0.8533  0.2159
  124OSM    C1113138   4.330   0.333   6.124  0.4283 -0.6957  0.0597
  124OSM   H11A13139   4.255   0.382   6.058  2.1476  3.3032  0.8083
  124OSM   H11B13140   4.280   0.247   6.173 -0.3933  0.7292  1.8679
  124OSM      P13141   4.530   0.167   6.054  0.1488 -0.2111  0.3060
  124OSM    O1313142   4.483   0.071   6.157  0.2989 -0.4443 -0.1226
  124OSM    O1413143   4.518   0.119   5.919  0.0846 -0.7586  0.2898
  124OSM    O1113144   4.684   0.216   6.079  0.5235  0.3890 -0.1293
  124OSM    O1213145   4.448   0.306   6.061  0.1113  0.1818 -0.2917
  124OSM    C1S13146   4.714   0.275   6.207  0.5356  0.5566 -0.2224
  124OSM    H1S13147   4.629   0.335   6.245  0.1444 -1.8804  3.1877
  124OSM    H1T13148   4.804   0.340   6.197  0.1100  1.0751 -0.7233
  124OSM     NF13149   4.735   0.257   6.455 -0.0605  0.1105 -0.3342
  124OSM    HNF13150   4.825   0.268   6.496 -0.3337  0.2161  0.2490
  124OSM    C2S13151   4.730   0.178   6.338  0.1148  0.5549  0.8150
  124OSM    H2S13152   4.639   0.115   6.344  0.1719  0.0005 -2.2515
  124OSM    C3S13153   4.854   0.090   6.315 -0.2783  0.5339  0.4051
  124OSM    H3S13154   4.944   0.149   6.291 -0.1678 -0.3322 -1.5049
  124OSM     O313155   4.853   0.012   6.192  0.1815  0.1947  0.2028
  124OSM    HO313156   4.763   0.032   6.164  0.2421  2.7577  1.5605
  124OSM    C4S13157   4.861  -0.016   6.424  0.1621  0.2915  0.1922
  124OSM    H4S13158   4.778  -0.088   6.419 -0.2938  0.8704 -1.4935
  124OSM    C5S13159   4.971  -0.022   6.504  0.6206 -0.1298 -0.2547
  124OSM    H5S13160   5.036   0.067   6.506  0.4137  0.0159  0.6143
  124OSM    C6S13161   5.013  -0.121   6.608 -0.1122 -0.4581 -0.6415
  124OSM    H6S13162   5.044  -0.072   6.703 -1.4751 -1.1935  0.2091
  124OSM    H6T13163   5.093  -0.185   6.565  0.8990  0.7260 -0.5832
  124OSM    C7S13164   4.891  -0.192   6.663  0.5023  0.3521 -0.8051
  124OSM    H7S13165   4.857  -0.262   6.584  3.1654 -0.8143 -1.0373
  124OSM    H7T13166   4.815  -0.119   6.697  0.6083  0.9955 -1.9370
  124OSM    C8S13167   4.929  -0.280   6.778 -0.2330  0.0004 -0.6519
  124OSM    H8S13168   4.974  -0.222   6.861  0.4540  0.8784 -1.6029
  124OSM    H8T13169   5.001  -0.359   6.749  0.5647  0.5719 -0.2564
  124OSM    C9S13170   4.810  -0.357   6.841 -0.1858  0.0610 -0.2711
  124OSM    H9S13171   4.749  -0.405   6.761 -0.6603  1.9664 -1.1318
  124OSM    H9T13172   4.753  -0.283   6.902  0.9978  0.5170  0.3073
  124OSM   C10S13173   4.852  -0.466   6.945 -0.3442  0.5715  0.1779
  124OSM   H10S13174   4.914  -0.547   6.901 -0.8476  0.7709 -0.9487
  124OSM   H10T13175   4.758  -0.507   6.989 -0.6580 -1.9153 -2.4900
  124OSM   C11S13176   4.933  -0.400   7.064 -0.3573 -0.0745  0.0385
  124OSM   H11S13177   4.873  -0.315   7.102 -2.2474 -1.0844 -0.5414
  124OSM   H11T13178   5.030  -0.357   7.032  0.8430 -3.2075 -0.9563
  124OSM   C12S13179   4.948  -0.510   7.168  0.0981 -0.2806  0.6188
  124OSM   H12S13180   5.004  -0.591   7.117  0.6012  1.7463 -2.2843
  124OSM   H12T13181   4.845  -0.531   7.206 -0.2948  0.1899 -0.1649
  124OSM   C13S13182   5.044  -0.473   7.285 -0.2328 -0.5742 -0.2748
  124OSM   H13S13183   5.024  -0.375   7.334  0.7206 -1.0607  1.1411
  124OSM   H13T13184   5.138  -0.457   7.229  0.6970  0.1761  1.4251
  124OSM   C14S13185   5.067  -0.581   7.386  0.6567  0.2138  0.2366
  124OSM   H14S13186   5.176  -0.578   7.406  0.5668 -0.1284  0.8186
  124OSM   H14T13187   5.039  -0.679   7.342  3.0148  0.0399 -1.0085
  124OSM   C15S13188   4.986  -0.552   7.513  0.2396  0.3150  0.7663
  124OSM   H15S13189   4.882  -0.526   7.482  1.1028  2.0642 -0.8742
  124OSM   H15T13190   5.029  -0.464   7.566 -2.1132  1.0653  1.5490
  124OSM   C16S13191   4.976  -0.668   7.619  0.5676 -0.2382 -0.5109
  124OSM   H16S13192   5.079  -0.706   7.634 -0.0493 -1.9132 -0.3179
  124OSM   H16T13193   4.920  -0.757   7.583  2.5689 -0.5411 -3.1669
  124OSM   C17S13194   4.917  -0.614   7.754  0.0056 -0.0268  0.1304
  124OSM   H17S13195   4.821  -0.567   7.722 -0.2577  0.5332  1.6653
  124OSM   H17T13196   4.984  -0.538   7.800  1.9565 -2.0110  0.7495
  124OSM   C18S13197   4.889  -0.733   7.850  0.1442  0.2069 -0.0912
  124OSM   H18S13198   4.984  -0.776   7.887 -0.1746 -0.2460  0.2055
  124OSM   H18T13199   4.833  -0.815   7.799  1.8661 -0.9453 -0.2093
  124OSM   H18U13200   4.826  -0.710   7.938  1.0202  0.2851  0.5264
  124OSM    C1F13201   4.632   0.327   6.502 -0.6579 -0.3920  0.5033
  124OSM     OF13202   4.524   0.314   6.448  0.1142 -0.4171  0.1130
  124OSM    C2F13203   4.653   0.423   6.619  0.7091 -0.3052 -0.0212
  124OSM    H2F13204   4.669   0.526   6.581 -0.3953  0.0016  0.3216
  124OSM    H2G13205   4.748   0.383   6.662  1.9793  0.7950 -1.6717
  124OSM    C3F13206   4.542   0.419   6.725  0.9520  0.0772  0.7274
  124OSM    H3F13207   4.528   0.317   6.766 -1.4569  0.3751  0.7343
  124OSM    H3G13208   4.444   0.455   6.689  2.1028  1.6192 -1.0957
  124OSM    C4F13209   4.553   0.511   6.851  0.1720 -0.7317  0.2957
  124OSM    H4F13210   4.522   0.613   6.818  3.4573  0.7221  1.2956
  124OSM    H4G13211   4.653   0.527   6.895 -0.6407 -0.9503  2.3319
  124OSM    C5F13212   4.454   0.455   6.952  0.1022  0.0749  0.2660
  124OSM    H5F13213   4.474   0.348   6.976 -0.0409  0.2876  1.3805
  124OSM    H5G13214   4.352   0.456   6.910  0.5177 -2.5194 -1.0144
  124OSM    C6F13215   4.462   0.522   7.088  0.3571  0.7112 -0.3462
  124OSM    H6F13216   4.456   0.632   7.075  1.1119  1.0620  1.7513
  124OSM    H6G13217   4.566   0.504   7.123  0.2882 -1.1924 -1.0305
  124OSM    C7F13218   4.341   0.474   7.175 -0.5884 -0.1527  0.5300
  124OSM    H7F13219   4.358   0.502   7.281 -0.5236 -0.9996  0.7557
  124OSM    H7G13220   4.338   0.364   7.192  0.1834 -0.0630  1.3548
  124OSM    C8F13221   4.204   0.535   7.131  0.5795 -0.8863 -0.1043
  124OSM    H8F13222   4.183   0.486   7.033  0.3724 -2.0288  0.5030
  124OSM    H8G13223   4.218   0.645   7.126 -2.2357 -0.3304  2.0697
  124OSM    C9F13224   4.106   0.500   7.237  0.4387  0.4238  0.1344
  124OSM    H9F13225   4.116   0.403   7.289  0.7431  1.3870  1.9360
  124OSM   C10F13226   4.006   0.573   7.293  0.2595  0.3651  0.4778
  124OSM   H10F13227   3.950   0.526   7.376 -1.9919 -0.6355 -1.4859
  124OSM   C11F13228   3.968   0.707   7.249  0.6684  0.2053 -0.0929
  124OSM   H11F13229   3.999   0.713   7.142  2.6039 -3.3895  0.1253
  124OSM   H11G13230   4.022   0.783   7.309  0.1442 -0.2746  1.0152
  124OSM   C12F13231   3.817   0.740   7.277  0.1946 -0.0939  0.4980
  124OSM   H12F13232   3.749   0.676   7.217  1.5480 -0.3238 -0.8531
  124OSM   H12G13233   3.803   0.845   7.244  0.1341 -0.6386 -1.3041
  124OSM   C13F13234   3.771   0.734   7.425  0.4210 -0.1602  0.3016
  124OSM   H13F13235   3.799   0.634   7.464 -0.8571 -0.8277 -0.3910
  124OSM   H13G13236   3.660   0.738   7.426  0.3611  1.4703 -2.6576
  124OSM   C14F13237   3.825   0.837   7.522 -0.1721 -0.5803  0.3972
  124OSM   H14F13238   3.813   0.934   7.471 -0.2454 -0.5573  0.4575
  124OSM   H14G13239   3.935   0.823   7.529 -0.0951 -0.4318 -0.4922
  124OSM   C15F13240   3.773   0.826   7.664 -0.2898 -0.1974  0.0595
  124OSM   H15F13241   3.781   0.719   7.691  0.2531 -0.3053 -0.5144
  124OSM   H15G13242   3.664   0.849   7.661 -0.2768 -0.0722  0.3824
  124OSM   C16F13243   3.836   0.927   7.766  0.0817  0.3103 -0.4269
  124OSM   H16F13244   3.806   1.026   7.724  2.1139  0.6110 -1.2974
  124OSM   H16G13245   3.945   0.929   7.744  0.4474 -0.6631  1.1772
  124OSM   C17F13246   3.789   0.916   7.905 -0.2824  0.2881  0.0752
  124OSM   H17F13247   3.679   0.901   7.903 -0.3516  0.8185 -0.0502
  124OSM   H17G13248   3.807   1.009   7.963 -0.1667  1.1722 -1.3539
  124OSM   C18F13249   3.863   0.807   7.987  0.6427 -0.9294 -0.0608
  124OSM   H18F13250   3.973   0.825   7.991  0.1677  2.4327  3.2220
  124OSM   H18G13251   3.838   0.707   7.945 -0.9898 -0.5292 -0.1209
  124OSM   H18H13252   3.836   0.815   8.095  0.4178 -1.0339 -0.1089
  125OSM      N13253   6.534   4.541   6.333  0.0247 -0.1790 -0.1818
  125OSM    C1513254   6.414   4.531   6.252 -0.7093  0.4049 -0.4452
  125OSM   H15A13255   6.443   4.517   6.149 -0.5499 -2.8136 -0.0624
  125OSM   H15B13256   6.349   4.617   6.263  0.1345  1.2816 -2.0096
  125OSM   H15C13257   6.355   4.445   6.280  1.0732 -0.6125  0.2778
  125OSM    C1413258   6.619   4.650   6.278 -0.2857  0.0171 -0.3841
  125OSM   H14A13259   6.708   4.658   6.339 -0.8271 -0.3941  0.4743
  125OSM   H14B13260   6.570   4.746   6.277  1.5865  1.0239 -1.8976
  125OSM   H14C13261   6.645   4.637   6.174 -0.0852  1.6414 -0.5620
  125OSM    C1313262   6.499   4.598   6.467  0.1620  0.4163 -0.2374
  125OSM   H13A13263   6.458   4.523   6.533 -1.0146  2.1759  1.1461
  125OSM   H13B13264   6.418   4.669   6.457 -1.4597 -1.0362  1.7006
  125OSM   H13C13265   6.583   4.645   6.517 -0.9979  1.7963  0.4922
  125OSM    C1213266   6.604   4.416   6.350 -0.1311  0.4196 -0.0830
  125OSM   H12A13267   6.526   4.358   6.398  1.5943 -1.2548  0.8571
  125OSM   H12B13268   6.680   4.422   6.427 -0.2205 -0.2554  0.0596
  125OSM    C1113269   6.664   4.345   6.227  0.1148  0.2277 -0.9858
  125OSM   H11A13270   6.585   4.351   6.148 -2.2099  3.5067  1.3164
  125OSM   H11B13271   6.678   4.238   6.255  0.1049  0.9503  2.1612
  125OSM      P13272   6.918   4.380   6.245 -0.0405  0.1459  0.6036
  125OSM    O1313273   6.996   4.278   6.169  0.3962 -0.1744 -0.0459
  125OSM    O1413274   6.984   4.509   6.266 -0.1510 -0.1518 -0.4799
  125OSM    O1113275   6.885   4.308   6.383  0.0017 -0.3658 -0.8149
  125OSM    O1213276   6.786   4.399   6.177  0.0655 -0.4808 -0.0811
  125OSM    C1S13277   6.985   4.319   6.488  0.2108  0.1334 -0.5562
  125OSM    H1S13278   6.987   4.427   6.514 -1.4053  0.3781 -1.3504
  125OSM    H1T13279   7.085   4.280   6.458 -0.7453 -2.2359 -0.9098
  125OSM     NF13280   7.022   4.295   6.727  0.7793 -0.5229 -0.3102
  125OSM    HNF13281   7.107   4.248   6.748  0.3146 -0.7555  1.1684
  125OSM    C2S13282   6.946   4.248   6.611  0.2965 -0.0612 -0.2672
  125OSM    H2S13283   6.842   4.277   6.639  0.1043 -0.7731 -0.2238
  125OSM    C3S13284   6.959   4.091   6.583 -0.6477 -0.3313 -0.4104
  125OSM    H3S13285   7.065   4.066   6.561 -0.3362  0.2914  0.3433
  125OSM     O313286   6.891   4.052   6.466  0.2648  0.0471 -0.6095
  125OSM    HO313287   6.861   4.135   6.427  1.1936  1.0213  0.6678
  125OSM    C4S13288   6.912   4.025   6.708  0.4965  0.8344  0.7395
  125OSM    H4S13289   6.989   4.000   6.783  0.7664  0.6138  0.3919
  125OSM    C5S13290   6.786   3.991   6.735 -0.2625  0.3573 -0.9222
  125OSM    H5S13291   6.713   4.008   6.655 -0.7794 -2.0262 -1.0171
  125OSM    C6S13292   6.738   3.926   6.864  0.1757 -0.1970 -0.3337
  125OSM    H6S13293   6.713   3.820   6.843  0.5340 -0.5318  0.8188
  125OSM    H6T13294   6.645   3.976   6.899 -1.0161 -1.6396 -1.3184
  125OSM    C7S13295   6.822   3.922   6.997 -0.5647 -0.4123  0.4597
  125OSM    H7S13296   6.848   4.027   7.019 -0.3288 -0.7320  1.8223
  125OSM    H7T13297   6.916   3.863   6.999  0.6101  1.3994  0.5717
  125OSM    C8S13298   6.740   3.860   7.112 -0.6458 -0.0930  0.0518
  125OSM    H8S13299   6.759   3.753   7.090  0.7701  0.2164 -0.3152
  125OSM    H8T13300   6.632   3.883   7.106 -0.0685  2.8468 -0.6071
  125OSM    C9S13301   6.806   3.909   7.242  0.0856  0.0325 -0.6897
  125OSM    H9S13302   6.779   4.014   7.269 -0.9096 -0.8440  2.0316
  125OSM    H9T13303   6.914   3.924   7.218  0.1740  2.5582  0.8666
  125OSM   C10S13304   6.777   3.824   7.367  0.0027  0.5800  0.8929
  125OSM   H10S13305   6.815   3.724   7.336 -0.5126  0.0964  1.7958
  125OSM   H10T13306   6.667   3.827   7.383 -0.1584 -0.3749  0.0431
  125OSM   C11S13307   6.837   3.886   7.490 -0.3907 -0.0754 -0.1917
  125OSM   H11S13308   6.785   3.980   7.518 -2.8643 -0.7782 -2.0602
  125OSM   H11T13309   6.947   3.903   7.484 -0.1513 -1.2669  0.5821
  125OSM   C12S13310   6.826   3.807   7.620  0.4456 -0.0028 -0.1831
  125OSM   H12S13311   6.916   3.742   7.631  0.3476 -0.1941 -0.5055
  125OSM   H12T13312   6.740   3.737   7.617  0.9034 -0.5881  0.0324
  125OSM   C13S13313   6.818   3.900   7.742  0.7862  0.1856  0.7886
  125OSM   H13S13314   6.727   3.962   7.727  3.0893  3.7524  0.2889
  125OSM   H13T13315   6.894   3.981   7.748 -0.3997  1.3833  0.0136
  125OSM   C14S13316   6.800   3.836   7.875 -0.1437  0.1726 -0.8708
  125OSM   H14S13317   6.862   3.746   7.895 -1.7999 -0.9251 -0.4740
  125OSM   H14T13318   6.703   3.783   7.877 -0.3285  0.4000 -2.3150
  125OSM   C15S13319   6.797   3.951   7.982 -0.4662 -0.0673 -0.5163
  125OSM   H15S13320   6.722   4.028   7.958 -0.2985  0.6080  1.0111
  125OSM   H15T13321   6.893   4.005   7.967  0.4512 -1.1761  1.0534
  125OSM   C16S13322   6.757   3.901   8.126  0.2120 -0.1677  1.1061
  125OSM   H16S13323   6.832   3.822   8.149 -0.8738 -2.0952 -1.5334
  125OSM   H16T13324   6.659   3.850   8.129  0.3926 -0.4810  2.0910
  125OSM   C17S13325   6.755   4.019   8.220  0.4196 -0.1294  0.3837
  125OSM   H17S13326   6.680   4.087   8.174 -1.0470 -1.6743  0.3921
  125OSM   H17T13327   6.853   4.069   8.205 -1.2903  3.3775 -0.1584
  125OSM   C18S13328   6.725   3.999   8.366 -0.0279  0.3315 -0.2581
  125OSM   H18S13329   6.625   3.974   8.406 -0.2286 -2.0203 -2.0323
  125OSM   H18T13330   6.770   4.068   8.441  0.0521 -1.1751  1.1439
  125OSM   H18U13331   6.772   3.900   8.387 -2.8734 -1.0844 -0.0376
  125OSM    C1F13332   6.995   4.408   6.789 -0.4944 -0.1190  0.3841
  125OSM     OF13333   6.892   4.468   6.754 -0.0624  0.7124 -0.4714
  125OSM    C2F13334   7.086   4.458   6.896  0.4209 -0.6153  0.4584
  125OSM    H2F13335   7.188   4.468   6.854 -0.1153  1.8957 -0.4175
  125OSM    H2G13336   7.086   4.385   6.979  0.4724 -2.0710 -0.7874
  125OSM    C3F13337   7.039   4.596   6.957 -0.4440  0.4437 -0.4711
  125OSM    H3F13338   6.937   4.576   6.996 -1.7676  2.6913 -2.4910
  125OSM    H3G13339   7.039   4.683   6.888  1.3485 -0.1561 -1.2928
  125OSM    C4F13340   7.120   4.638   7.073  0.1574 -0.6862  0.1582
  125OSM    H4F13341   7.213   4.674   7.025 -1.0822  2.2670 -0.2808
  125OSM    H4G13342   7.140   4.552   7.140 -1.1828 -0.9060  0.3066
  125OSM    C5F13343   7.056   4.759   7.154 -0.1977  0.7735  0.6821
  125OSM    H5F13344   7.025   4.840   7.085 -2.6954 -3.4753 -3.8893
  125OSM    H5G13345   7.136   4.799   7.220 -1.2770  0.8745  1.9715
  125OSM    C6F13346   6.929   4.721   7.230 -0.4711  0.5154 -0.1066
  125OSM    H6F13347   6.941   4.627   7.288 -2.5564 -0.7332 -1.5913
  125OSM    H6G13348   6.848   4.697   7.158 -0.0905 -1.8000  0.1522
  125OSM    C7F13349   6.876   4.845   7.311 -1.1821  0.0001 -0.0499
  125OSM    H7F13350   6.814   4.910   7.246 -3.2592 -1.2676  0.5368
  125OSM    H7G13351   6.959   4.898   7.362 -1.6649  0.0045  0.7681
  125OSM    C8F13352   6.771   4.802   7.425  0.3840 -0.4764  0.0574
  125OSM    H8F13353   6.815   4.717   7.482 -0.1863  0.4997  2.0775
  125OSM    H8G13354   6.677   4.764   7.381 -0.4662  0.8497  0.6882
  125OSM    C9F13355   6.741   4.918   7.529 -0.0332  0.7292  0.5971
  125OSM    H9F13356   6.695   5.005   7.481 -0.7172 -0.2528 -0.5707
  125OSM   C10F13357   6.775   4.929   7.663  0.0174 -0.5610  0.1162
  125OSM   H10F13358   6.748   5.028   7.703 -1.9740 -0.1550 -2.0081
  125OSM   C11F13359   6.848   4.833   7.756  0.4102  0.5102  0.4027
  125OSM   H11F13360   6.925   4.771   7.706  0.8286  0.0090  1.6114
  125OSM   H11G13361   6.789   4.755   7.810  1.2515 -1.0991 -0.9193
  125OSM   C12F13362   6.939   4.894   7.867 -0.0805  0.3228  0.1768
  125OSM   H12F13363   7.019   4.959   7.824  1.2469 -0.4608  1.3688
  125OSM   H12G13364   6.973   4.801   7.917 -2.8717 -0.5976  0.5320
  125OSM   C13F13365   6.852   4.969   7.966 -0.2796 -0.3450 -0.0635
  125OSM   H13F13366   6.771   4.907   8.008  1.3852 -0.5762  3.1384
  125OSM   H13G13367   6.818   5.048   7.896  1.1544 -0.7901 -1.3346
  125OSM   C14F13368   6.941   5.023   8.081  0.1153  0.6758 -0.0934
  125OSM   H14F13369   6.873   5.088   8.141 -1.3440  0.7167 -1.6995
  125OSM   H14G13370   7.025   5.078   8.035 -1.4611  2.1185 -1.3774
  125OSM   C15F13371   6.982   4.913   8.180 -0.4497  0.0938  0.1785
  125OSM   H15F13372   7.018   4.821   8.129 -2.0071  0.0658 -0.9629
  125OSM   H15G13373   6.897   4.876   8.241 -0.3570 -0.2258  0.1142
  125OSM   C16F13374   7.092   4.949   8.285  0.1394 -0.1444  0.7984
  125OSM   H16F13375   7.186   4.976   8.233  0.9942 -0.4219  2.1733
  125OSM   H16G13376   7.114   4.861   8.349  0.8556  0.7485  1.8195
  125OSM   C17F13377   7.054   5.065   8.376 -0.1550 -0.2598 -0.3810
  125OSM   H17F13378   6.967   5.038   8.440  0.0802  1.9393  0.9858
  125OSM   H17G13379   7.016   5.154   8.319  0.9897  0.1389 -0.5454
  125OSM   C18F13380   7.159   5.099   8.476  0.0226 -0.6076  0.4794
  125OSM   H18F13381   7.145   5.198   8.525  2.6004 -1.0992  2.4303
  125OSM   H18G13382   7.248   5.119   8.412 -0.7607  2.0670  0.1081
  125OSM   H18H13383   7.170   5.022   8.556 -1.2896  1.0254  2.3303
  126OSM      N13384   4.558   3.032   6.595 -0.1761 -0.0159 -0.0507
  126OSM    C1513385   4.470   2.914   6.626 -0.2609 -0.0479  0.5020
  126OSM   H15A13386   4.534   2.828   6.617  0.1309  0.2914 -0.0045
  126OSM   H15B13387   4.390   2.889   6.557  1.1572 -1.7243 -0.6120
  126OSM   H15C13388   4.427   2.913   6.725 -2.1402  0.1880 -0.2630
  126OSM    C1413389   4.621   3.016   6.461 -0.5500  0.3354  0.6499
  126OSM   H14A13390   4.693   3.093   6.437 -3.2468  2.4184 -1.5421
  126OSM   H14B13391   4.554   3.038   6.379  1.6723  1.5627 -0.9641
  126OSM   H14C13392   4.668   2.920   6.451  1.1919  1.0457  1.6019
  126OSM    C1313393   4.477   3.156   6.600  0.1662 -0.1473  0.1074
  126OSM   H13A13394   4.435   3.177   6.697  0.2154  4.9692 -0.7248
  126OSM   H13B13395   4.404   3.165   6.521  1.0066 -0.9231 -0.7799
  126OSM   H13C13396   4.544   3.240   6.589 -1.1514  0.9626  0.3587
  126OSM    C1213397   4.664   3.048   6.704 -0.4588 -0.0400 -0.6052
  126OSM   H12A13398   4.604   3.065   6.792  0.3556 -3.1133  0.7105
  126OSM   H12B13399   4.726   3.132   6.678  1.4831 -1.5189 -0.9966
  126OSM    C1113400   4.753   2.918   6.730  0.1597  0.0182 -0.6398
  126OSM   H11A13401   4.694   2.824   6.736  0.8128 -0.3453  0.1430
  126OSM   H11B13402   4.799   2.925   6.831  0.8254 -0.9436 -0.8617
  126OSM      P13403   4.897   2.778   6.560 -0.1747  0.3457 -0.2041
  126OSM    O1313404   4.789   2.738   6.466 -0.3305 -0.3706  0.1177
  126OSM    O1413405   5.033   2.787   6.504  0.4834  0.2479  0.3583
  126OSM    O1113406   4.904   2.668   6.677  0.2464  0.3307 -0.0032
  126OSM    O1213407   4.851   2.909   6.626  0.4881  0.2791 -0.3930
  126OSM    C1S13408   5.004   2.673   6.781  0.4606  0.0922 -0.5263
  126OSM    H1S13409   5.044   2.776   6.798  1.9309 -0.4093 -0.8114
  126OSM    H1T13410   5.092   2.611   6.756  1.3122  1.1978 -0.3525
  126OSM     NF13411   5.040   2.673   7.014 -0.0562 -0.7521 -0.0166
  126OSM    HNF13412   5.108   2.609   7.047  0.4747 -0.0917  0.1798
  126OSM    C2S13413   4.942   2.627   6.916 -0.4505  0.7377 -0.3934
  126OSM    H2S13414   4.843   2.675   6.921 -3.2839 -4.3251 -0.7930
  126OSM    C3S13415   4.909   2.466   6.911 -0.1390 -0.7685  0.6004
  126OSM    H3S13416   5.008   2.418   6.896 -0.3813 -1.4414  1.1022
  126OSM     O313417   4.831   2.438   6.800 -0.0646  0.2121  0.1856
  126OSM    HO313418   4.838   2.521   6.752 -0.5317  0.2991  0.2561
  126OSM    C4S13419   4.833   2.421   7.031  0.8481  0.2946 -1.0348
  126OSM    H4S13420   4.726   2.445   7.026 -0.2851 -3.0092  2.2595
  126OSM    C5S13421   4.877   2.352   7.143  0.9404 -0.7083 -0.4842
  126OSM    H5S13422   4.983   2.323   7.140  1.2697  0.1858  1.1622
  126OSM    C6S13423   4.805   2.309   7.266  0.2095 -0.8562  0.2078
  126OSM    H6S13424   4.816   2.198   7.268  0.1010 -0.9397 -1.9890
  126OSM    H6T13425   4.695   2.325   7.277  0.3121 -0.7893  1.2495
  126OSM    C7S13426   4.870   2.384   7.385  1.1080 -0.0816  0.1904
  126OSM    H7S13427   4.841   2.490   7.369  0.2999  0.0391  2.1689
  126OSM    H7T13428   4.980   2.367   7.386  1.2620  0.7737 -0.6611
  126OSM    C8S13429   4.813   2.352   7.529 -0.6357  0.3761  0.2375
  126OSM    H8S13430   4.847   2.247   7.549  0.4368  0.4079 -1.2665
  126OSM    H8T13431   4.703   2.358   7.517 -0.5121  2.1982 -0.2802
  126OSM    C9S13432   4.866   2.438   7.642 -0.3836 -0.0824 -0.3831
  126OSM    H9S13433   4.846   2.545   7.618  0.8758  0.4156  0.6609
  126OSM    H9T13434   4.976   2.422   7.647 -0.1716  0.8119 -1.5656
  126OSM   C10S13435   4.819   2.391   7.779  0.2967  0.0293  0.2655
  126OSM   H10S13436   4.848   2.284   7.788  0.3579  0.0603  0.4451
  126OSM   H10T13437   4.712   2.407   7.804  0.1061  1.3038 -1.2662
  126OSM   C11S13438   4.893   2.464   7.889  0.0455  0.5118 -0.3164
  126OSM   H11S13439   4.856   2.569   7.893  0.9734  0.8528 -0.4449
  126OSM   H11T13440   5.003   2.463   7.877 -0.2148 -0.5379 -3.4816
  126OSM   C12S13441   4.868   2.390   8.020  0.3033 -0.4880 -0.1724
  126OSM   H12S13442   4.897   2.284   8.002 -1.8395 -1.1563  0.0717
  126OSM   H12T13443   4.761   2.382   8.047  0.6703 -1.3962  1.1415
  126OSM   C13S13444   4.930   2.452   8.143  0.0272 -0.6170  0.7940
  126OSM   H13S13445   5.039   2.443   8.122 -0.2369  1.2816 -1.8489
  126OSM   H13T13446   4.910   2.408   8.243  2.0822  0.3428  1.7009
  126OSM   C14S13447   4.895   2.599   8.162  0.4917 -0.2885  0.3244
  126OSM   H14S13448   4.792   2.617   8.124  0.3338  1.4768  1.4775
  126OSM   H14T13449   4.960   2.654   8.091  1.8944 -0.7784  1.1899
  126OSM   C15S13450   4.912   2.652   8.310 -0.1458  0.5078 -0.3303
  126OSM   H15S13451   5.018   2.637   8.336 -0.7544 -0.4687  1.7641
  126OSM   H15T13452   4.855   2.599   8.389  0.1370  1.5329  0.5860
  126OSM   C16S13453   4.883   2.801   8.334  0.0576 -0.4287  0.0549
  126OSM   H16S13454   4.791   2.822   8.275  1.0182 -0.9557 -1.7187
  126OSM   H16T13455   4.973   2.852   8.293  1.9315 -2.2441  1.6891
  126OSM   C17S13456   4.873   2.846   8.476  0.4431  0.7145  0.1873
  126OSM   H17S13457   4.802   2.777   8.526  2.4099 -0.9945  0.8067
  126OSM   H17T13458   4.824   2.945   8.485  1.8409  1.3490  1.2161
  126OSM   C18S13459   5.005   2.842   8.551  0.6110 -0.2111  0.2679
  126OSM   H18S13460   5.061   2.934   8.522  0.8562 -0.9281 -1.6916
  126OSM   H18T13461   5.069   2.756   8.522  0.0821  0.2096 -2.3937
  126OSM   H18U13462   4.986   2.852   8.660  0.8364  1.5566  0.1842
  126OSM    C1F13463   5.047   2.800   7.069 -1.0756 -0.1790 -0.7657
  126OSM     OF13464   4.977   2.891   7.036 -0.0387 -0.2682  0.7740
  126OSM    C2F13465   5.164   2.821   7.172  0.0520  1.1954 -0.1418
  126OSM    H2F13466   5.172   2.929   7.197  0.3798  1.0503  0.3880
  126OSM    H2G13467   5.265   2.795   7.133  1.0468  1.8055  1.8927
  126OSM    C3F13468   5.143   2.750   7.309 -0.0160  0.1311 -0.7119
  126OSM    H3F13469   5.101   2.647   7.304 -1.1659  0.3911  1.9835
  126OSM    H3G13470   5.072   2.822   7.354  1.7142  0.1248  2.3348
  126OSM    C4F13471   5.262   2.758   7.409  0.4565 -0.0923 -0.0418
  126OSM    H4F13472   5.303   2.861   7.411  1.1823 -0.2213 -3.0676
  126OSM    H4G13473   5.346   2.702   7.363  0.9898  0.7852 -0.1470
  126OSM    C5F13474   5.226   2.705   7.546  0.0680 -0.4915  0.0413
  126OSM    H5F13475   5.194   2.600   7.533 -0.9050  0.1215 -3.4277
  126OSM    H5G13476   5.137   2.759   7.585 -0.0235 -0.2857 -0.4465
  126OSM    C6F13477   5.348   2.726   7.636 -0.1133 -0.0896 -0.6641
  126OSM    H6F13478   5.366   2.831   7.667 -0.6150  0.1762 -1.2511
  126OSM    H6G13479   5.435   2.681   7.584  0.2184 -1.8430  1.2974
  126OSM    C7F13480   5.317   2.642   7.768  0.5269 -0.1485  0.0790
  126OSM    H7F13481   5.326   2.536   7.738  1.9397  0.4608 -1.8308
  126OSM    H7G13482   5.208   2.653   7.783  0.4755 -0.9843  0.3792
  126OSM    C8F13483   5.406   2.654   7.886 -0.2142  0.5383 -0.0908
  126OSM    H8F13484   5.466   2.747   7.895 -0.1590  0.5691 -0.7216
  126OSM    H8G13485   5.485   2.577   7.874  2.1272  2.8645 -0.4878
  126OSM    C9F13486   5.326   2.636   8.014  0.0272 -0.2556 -0.2747
  126OSM    H9F13487   5.251   2.713   8.038  0.3469 -0.3419  1.0687
  126OSM   C10F13488   5.348   2.544   8.106  0.2661  0.0035  0.4934
  126OSM   H10F13489   5.269   2.524   8.180  0.4793 -1.1717  0.4328
  126OSM   C11F13490   5.461   2.442   8.108  0.6471  0.3931 -0.2354
  126OSM   H11F13491   5.540   2.465   8.033 -0.1063 -0.4725 -1.3335
  126OSM   H11G13492   5.413   2.346   8.079 -0.3802  0.8269 -0.0241
  126OSM   C12F13493   5.533   2.444   8.251  0.6511  0.1819 -0.6833
  126OSM   H12F13494   5.456   2.434   8.331 -0.5271  0.4872 -1.7554
  126OSM   H12G13495   5.580   2.542   8.274 -1.8803  1.5759 -1.0059
  126OSM   C13F13496   5.637   2.333   8.256 -0.2397 -0.4772  0.2013
  126OSM   H13F13497   5.728   2.361   8.199  0.3699  0.4919  1.5902
  126OSM   H13G13498   5.590   2.240   8.218 -2.3510  1.0886 -1.2607
  126OSM   C14F13499   5.682   2.301   8.399 -0.3391  0.3475 -0.2257
  126OSM   H14F13500   5.592   2.280   8.461 -1.2804  0.1858 -1.6048
  126OSM   H14G13501   5.726   2.391   8.446  0.8336 -0.3559  0.0899
  126OSM   C15F13502   5.784   2.187   8.416  0.3365 -0.8872 -0.3146
  126OSM   H15F13503   5.855   2.190   8.331 -1.3780 -0.5620 -1.7893
  126OSM   H15G13504   5.737   2.087   8.409  3.5787 -2.5099 -1.2672
  126OSM   C16F13505   5.865   2.185   8.549 -0.0256 -0.6945  0.0983
  126OSM   H16F13506   5.908   2.286   8.567 -2.2541  0.1355  1.2097
  126OSM   H16G13507   5.953   2.120   8.531  2.2994  1.5675  2.4024
  126OSM   C17F13508   5.790   2.116   8.661  0.2805  0.1367 -0.2186
  126OSM   H17F13509   5.747   2.026   8.612  2.9721 -0.7832 -1.1125
  126OSM   H17G13510   5.712   2.190   8.688  2.0634  1.2338  2.3409
  126OSM   C18F13511   5.867   2.071   8.782 -0.0703 -0.3983  0.5883
  126OSM   H18F13512   5.811   1.999   8.845  0.1046 -0.6860  0.4156
  126OSM   H18G13513   5.895   2.163   8.837 -1.9006  0.3383  0.3539
  126OSM   H18H13514   5.959   2.019   8.747  0.4351  1.1632 -0.5045
  127OSM      N13515   3.811   2.794   6.077 -0.0733  0.2050  0.0422
  127OSM    C1513516   3.951   2.794   6.017  0.3933  0.8350  0.7033
  127OSM   H15A13517   3.940   2.798   5.910 -0.2365 -2.0012  0.6022
  127OSM   H15B13518   3.999   2.698   6.027 -2.6406 -0.8866 -0.2983
  127OSM   H15C13519   4.007   2.880   6.052  1.0792 -0.1011  2.0163
  127OSM    C1413520   3.753   2.927   6.043 -0.2585 -0.1322  0.2064
  127OSM   H14A13521   3.778   3.010   6.106  0.7005  1.0958 -1.6840
  127OSM   H14B13522   3.647   2.924   6.058  0.0084 -0.7517  2.3133
  127OSM   H14C13523   3.779   2.966   5.945  1.6113  2.4965  1.6122
  127OSM    C1313524   3.732   2.684   6.010  0.1168 -0.9945 -0.1257
  127OSM   H13A13525   3.662   2.647   6.084 -0.2077 -2.6581 -1.2086
  127OSM   H13B13526   3.795   2.602   5.979  1.5482  1.0119 -2.9658
  127OSM   H13C13527   3.689   2.736   5.926 -0.3274  3.3188  2.4894
  127OSM    C1213528   3.807   2.786   6.227 -0.8325 -0.2156  0.4156
  127OSM   H12A13529   3.844   2.693   6.268 -0.0396 -0.0302  0.1373
  127OSM   H12B13530   3.703   2.792   6.256 -0.3680 -0.3337  2.2371
  127OSM    C1113531   3.879   2.910   6.307 -0.8773  0.3555 -0.3463
  127OSM   H11A13532   3.982   2.934   6.272 -0.6272 -0.6211 -0.3240
  127OSM   H11B13533   3.884   2.872   6.411 -1.1103  0.8390 -0.1567
  127OSM      P13534   3.674   3.037   6.392  0.2419  0.4157  0.4151
  127OSM    O1313535   3.654   3.187   6.393  0.0252  0.0909 -0.3994
  127OSM    O1413536   3.567   2.954   6.337  0.3720  0.0101 -0.3332
  127OSM    O1113537   3.712   2.992   6.545 -0.7273 -0.6279  0.9430
  127OSM    O1213538   3.798   3.019   6.302  0.3773  0.4669 -0.1972
  127OSM    C1S13539   3.818   3.061   6.614  0.2687  0.2734 -0.0887
  127OSM    H1S13540   3.821   3.168   6.584  1.5875  0.0138 -0.9656
  127OSM    H1T13541   3.919   3.028   6.584  0.1345 -0.1322 -0.1043
  127OSM     NF13542   3.858   3.159   6.838 -0.0568  0.5804 -0.1221
  127OSM    HNF13543   3.944   3.127   6.877 -0.2332  0.4408  0.1536
  127OSM    C2S13544   3.779   3.064   6.771  0.8019  0.7562 -0.2574
  127OSM    H2S13545   3.672   3.091   6.780  0.1216 -0.3520 -3.5587
  127OSM    C3S13546   3.789   2.915   6.835  0.2330 -0.3815 -0.1682
  127OSM    H3S13547   3.892   2.880   6.861 -0.4101 -3.2015 -0.9809
  127OSM     O313548   3.729   2.799   6.764  0.4068 -0.2381 -0.5234
  127OSM    HO313549   3.694   2.840   6.685  0.9834  0.1737 -0.5686
  127OSM    C4S13550   3.729   2.928   6.978  0.5079 -0.2465 -0.0623
  127OSM    H4S13551   3.796   2.930   7.065  1.0732  0.3012 -0.4991
  127OSM    C5S13552   3.599   2.914   7.013  0.2790 -0.0940 -0.3227
  127OSM    H5S13553   3.528   2.879   6.936  0.5448 -3.0474  0.6484
  127OSM    C6S13554   3.542   2.923   7.152 -0.9226  0.0489  0.1321
  127OSM    H6S13555   3.454   2.855   7.161 -0.3952 -0.3698  3.1710
  127OSM    H6T13556   3.512   3.027   7.177  2.7100  0.8943  1.5483
  127OSM    C7S13557   3.639   2.883   7.271 -0.7040 -0.2825 -0.0114
  127OSM    H7S13558   3.727   2.950   7.277  0.7887 -2.0916 -0.8014
  127OSM    H7T13559   3.673   2.782   7.240 -2.0699 -0.5455 -0.6985
  127OSM    C8S13560   3.574   2.876   7.403  0.2902  0.0834  0.3226
  127OSM    H8S13561   3.504   2.960   7.421 -0.2417 -0.2491 -0.1510
  127OSM    H8T13562   3.652   2.877   7.483  2.6211  0.3140 -1.8179
  127OSM    C9S13563   3.498   2.740   7.414  0.1134 -0.1274 -0.5350
  127OSM    H9S13564   3.567   2.659   7.382 -1.6768 -2.1445  0.4360
  127OSM    H9T13565   3.411   2.741   7.344  0.3534  0.0181 -0.8306
  127OSM   C10S13566   3.465   2.709   7.560 -0.7192  0.1801 -0.3395
  127OSM   H10S13567   3.406   2.790   7.607  0.3084  0.4462  0.5427
  127OSM   H10T13568   3.557   2.689   7.618 -1.6692 -0.9220  0.8496
  127OSM   C11S13569   3.376   2.587   7.587  0.1785 -0.2832  0.2227
  127OSM   H11S13570   3.416   2.505   7.524  1.1529  2.4150 -2.9094
  127OSM   H11T13571   3.279   2.602   7.536  0.8779  1.7310 -0.5907
  127OSM   C12S13572   3.365   2.545   7.731 -0.0620 -0.4138 -0.1275
  127OSM   H12S13573   3.298   2.459   7.754  1.2194 -0.9577  1.8564
  127OSM   H12T13574   3.310   2.625   7.785 -2.2690 -0.3110 -2.3355
  127OSM   C13S13575   3.501   2.521   7.805  0.2024  0.8819  0.0687
  127OSM   H13S13576   3.549   2.615   7.839  1.0155  1.0854 -1.5514
  127OSM   H13T13577   3.579   2.487   7.733  1.2495  1.8378  0.7186
  127OSM   C14S13578   3.489   2.405   7.908 -0.5296 -0.5729  0.0458
  127OSM   H14S13579   3.494   2.306   7.859  0.0325 -1.6844  2.2104
  127OSM   H14T13580   3.393   2.419   7.963 -0.0623 -1.4524  1.1113
  127OSM   C15S13581   3.603   2.412   8.014  0.1560 -0.1672 -0.4829
  127OSM   H15S13582   3.704   2.395   7.972  0.5958 -1.5346  1.0234
  127OSM   H15T13583   3.587   2.323   8.078 -1.0216  0.2039 -0.2221
  127OSM   C16S13584   3.600   2.521   8.115 -0.1498 -0.1326  0.0135
  127OSM   H16S13585   3.505   2.505   8.171 -0.5218  0.0332 -0.5594
  127OSM   H16T13586   3.595   2.622   8.068  0.8597 -0.3425 -0.5642
  127OSM   C17S13587   3.708   2.527   8.220  0.2835 -0.2634 -0.0673
  127OSM   H17S13588   3.695   2.625   8.271  1.9904  1.1133 -2.1094
  127OSM   H17T13589   3.799   2.536   8.157 -0.6739  0.5550 -1.3903
  127OSM   C18S13590   3.712   2.414   8.320  0.4363 -0.6739  0.1209
  127OSM   H18S13591   3.798   2.425   8.389  2.1418 -3.6117 -1.2965
  127OSM   H18T13592   3.720   2.319   8.263 -1.2515 -0.6189 -0.2534
  127OSM   H18U13593   3.616   2.406   8.376 -0.8075  0.0951 -1.7978
  127OSM    C1F13594   3.846   3.288   6.827  0.1907 -0.4443 -0.0583
  127OSM     OF13595   3.741   3.334   6.783 -0.5348  0.2517  0.1675
  127OSM    C2F13596   3.956   3.384   6.866  0.1679  0.3485 -0.6085
  127OSM    H2F13597   3.990   3.445   6.780 -1.6282  3.0146  0.4148
  127OSM    H2G13598   4.045   3.332   6.908 -0.3194  0.0109  0.0225
  127OSM    C3F13599   3.904   3.502   6.965 -0.0572 -1.0076 -0.5339
  127OSM    H3F13600   3.873   3.448   7.058 -0.0498 -0.2108 -0.0586
  127OSM    H3G13601   3.820   3.549   6.910 -0.0379  2.4466  2.0141
  127OSM    C4F13602   4.020   3.604   7.004 -0.5151 -0.5735 -0.4259
  127OSM    H4F13603   4.035   3.665   6.912  0.3283  1.9743  1.3057
  127OSM    H4G13604   4.117   3.556   7.025 -0.8368 -1.2799 -0.5239
  127OSM    C5F13605   3.994   3.694   7.122 -0.2999 -0.0890  0.2461
  127OSM    H5F13606   3.903   3.757   7.110 -0.8589 -0.6832  1.2390
  127OSM    H5G13607   4.082   3.762   7.127  1.8345 -2.7165  0.8352
  127OSM    C6F13608   3.980   3.629   7.260  0.8655  0.1642 -0.2450
  127OSM    H6F13609   4.056   3.549   7.273  0.3948 -0.4438 -1.0991
  127OSM    H6G13610   3.879   3.583   7.268 -0.2223  2.3618 -0.5107
  127OSM    C7F13611   3.985   3.743   7.372  0.5555  0.7246  0.3977
  127OSM    H7F13612   3.893   3.799   7.347 -0.2696 -1.2317 -1.2802
  127OSM    H7G13613   4.073   3.807   7.353  1.3987 -0.3157  0.6944
  127OSM    C8F13614   3.971   3.686   7.511 -0.7168 -0.0108  0.7368
  127OSM    H8F13615   4.029   3.591   7.515  0.0359  0.4000 -0.1534
  127OSM    H8G13616   3.866   3.655   7.528 -0.3252 -0.7751  1.9093
  127OSM    C9F13617   4.036   3.776   7.619  0.1433 -0.3552 -0.2266
  127OSM    H9F13618   4.132   3.818   7.587  1.4288 -0.9556  2.5087
  127OSM   C10F13619   3.988   3.810   7.746  0.0577 -0.6082  0.3614
  127OSM   H10F13620   4.054   3.886   7.789  0.3365 -0.8406  0.3514
  127OSM   C11F13621   3.860   3.765   7.810  0.6007 -0.2145  0.3351
  127OSM   H11F13622   3.788   3.716   7.741 -0.2842 -3.7119  3.3954
  127OSM   H11G13623   3.808   3.847   7.863  1.7006  1.0869 -0.5434
  127OSM   C12F13624   3.884   3.658   7.916 -0.0101  0.0864 -0.2715
  127OSM   H12F13625   3.924   3.712   8.005 -0.1812  1.7721 -1.1884
  127OSM   H12G13626   3.966   3.590   7.883 -0.8771 -1.1473  0.0583
  127OSM   C13F13627   3.765   3.590   7.975  0.3129 -0.3585 -0.8623
  127OSM   H13F13628   3.726   3.533   7.888  3.1821 -1.7820 -1.3189
  127OSM   H13G13629   3.685   3.650   8.024 -0.7386 -1.2942 -1.3927
  127OSM   C14F13630   3.796   3.487   8.089  0.0157  0.0211 -0.0226
  127OSM   H14F13631   3.824   3.550   8.176 -0.5539  0.8473 -0.4207
  127OSM   H14G13632   3.866   3.407   8.059 -0.7973 -0.1330 -1.5818
  127OSM   C15F13633   3.663   3.421   8.138  0.6915 -0.0005 -0.1617
  127OSM   H15F13634   3.615   3.357   8.061 -2.1694  0.1132  1.4158
  127OSM   H15G13635   3.593   3.501   8.168 -3.3264 -2.3508 -2.3750
  127OSM   C16F13636   3.703   3.347   8.269 -0.7555 -0.3731  0.5183
  127OSM   H16F13637   3.752   3.417   8.340 -0.8746  0.7305 -0.4368
  127OSM   H16G13638   3.777   3.271   8.237 -2.0239 -1.2746 -0.3721
  127OSM   C17F13639   3.594   3.280   8.352  0.3270  0.1443  0.7010
  127OSM   H17F13640   3.640   3.205   8.420 -0.3361 -1.2962 -0.3862
  127OSM   H17G13641   3.526   3.225   8.284 -0.6932 -1.3099  2.8303
  127OSM   C18F13642   3.503   3.379   8.435 -0.4538  0.1511  0.3176
  127OSM   H18F13643   3.552   3.418   8.527 -1.4540 -1.1110  1.4287
  127OSM   H18G13644   3.403   3.333   8.452 -0.5779  0.1838 -0.2896
  127OSM   H18H13645   3.482   3.467   8.370  1.1866 -0.1628 -0.6936
  128OSM      N13646   3.693   0.663   6.006  0.0001 -0.2952 -0.3459
  128OSM    C1513647   3.575   0.716   5.943  0.1706 -0.1012 -0.0879
  128OSM   H15A13648   3.584   0.823   5.938 -0.5714 -0.0682 -0.8693
  128OSM   H15B13649   3.486   0.691   6.000  0.9242 -0.5851  0.9199
  128OSM   H15C13650   3.564   0.686   5.840  0.1934  0.4066 -0.2366
  128OSM    C1413651   3.654   0.516   6.030 -0.5236 -0.4368  0.0912
  128OSM   H14A13652   3.591   0.509   6.117 -0.6922 -2.7384 -0.1373
  128OSM   H14B13653   3.739   0.453   6.055 -0.3802  0.2422  1.3760
  128OSM   H14C13654   3.603   0.473   5.945 -0.4845 -1.3876  0.5403
  128OSM    C1313655   3.810   0.666   5.911 -0.3963  0.1832 -0.4593
  128OSM   H13A13656   3.784   0.629   5.813  2.0018  0.0147 -1.1043
  128OSM   H13B13657   3.880   0.591   5.947  0.7263 -0.8825 -4.3721
  128OSM   H13C13658   3.854   0.764   5.905  0.1943  0.0745  1.5057
  128OSM    C1213659   3.726   0.728   6.138  0.1992  0.1859 -0.3816
  128OSM   H12A13660   3.801   0.665   6.185  0.5733  0.5352 -0.5023
  128OSM   H12B13661   3.637   0.731   6.198  1.4439 -1.6866  1.7359
  128OSM    C1113662   3.766   0.876   6.127 -0.0544 -0.2742 -0.1354
  128OSM   H11A13663   3.758   0.920   6.228  0.6131 -1.2241  0.3460
  128OSM   H11B13664   3.684   0.924   6.069  1.8800  0.5807 -2.3191
  128OSM      P13665   4.023   0.867   6.129  0.1677 -0.3102  0.0405
  128OSM    O1313666   4.030   0.722   6.162  0.9704  0.1925  0.5285
  128OSM    O1413667   4.124   0.929   6.047 -0.1285 -0.4348  0.5749
  128OSM    O1113668   3.999   0.954   6.258  0.0806 -0.1466  0.0739
  128OSM    O1213669   3.884   0.903   6.053 -0.7329 -0.2754 -0.3004
  128OSM    C1S13670   4.016   0.882   6.380  0.2552 -0.6807 -0.2020
  128OSM    H1S13671   4.115   0.834   6.396  1.1507  1.3251  0.5382
  128OSM    H1T13672   3.925   0.819   6.394  0.2044 -0.6069 -0.1997
  128OSM     NF13673   4.066   0.913   6.638 -0.2248 -0.5994  0.0046
  128OSM    HNF13674   4.002   0.884   6.709  0.4098 -1.5864  0.1909
  128OSM    C2S13675   4.020   0.980   6.508 -0.2156  0.1032 -0.5782
  128OSM    H2S13676   4.095   1.055   6.478  0.7157 -0.8318 -0.6579
  128OSM    C3S13677   3.876   1.049   6.522  0.3684  0.0836 -0.0887
  128OSM    H3S13678   3.801   0.969   6.539  1.3487 -1.1890 -1.4863
  128OSM     O313679   3.839   1.124   6.402  0.1753 -0.2097 -0.3289
  128OSM    HO313680   3.901   1.086   6.339  0.2331 -1.6690  0.5733
  128OSM    C4S13681   3.878   1.124   6.656 -0.0038 -0.6627 -0.1795
  128OSM    H4S13682   3.879   1.064   6.748  1.4247 -1.4469 -0.6733
  128OSM    C5S13683   3.914   1.255   6.671 -0.1176  0.4007 -0.3671
  128OSM    H5S13684   3.949   1.311   6.584  0.3436  0.7140  0.0123
  128OSM    C6S13685   3.930   1.321   6.802  0.1871 -0.7515 -0.3371
  128OSM    H6S13686   3.854   1.403   6.802 -0.6819 -1.5394 -1.5242
  128OSM    H6T13687   4.027   1.375   6.805  0.5757 -1.4431 -0.4820
  128OSM    C7S13688   3.939   1.239   6.936  0.5450 -0.3272  0.0556
  128OSM    H7S13689   4.034   1.181   6.932  1.3596  0.5271  3.5638
  128OSM    H7T13690   3.857   1.164   6.936  1.2054 -1.0934  1.5018
  128OSM    C8S13691   3.955   1.317   7.060  0.4061 -0.0212  0.0578
  128OSM    H8S13692   3.889   1.405   7.051  1.2429  0.6653  0.4852
  128OSM    H8T13693   4.063   1.343   7.075  0.4409 -1.2493  2.4709
  128OSM    C9S13694   3.908   1.251   7.194 -0.3710  0.3680 -0.3176
  128OSM    H9S13695   3.943   1.146   7.201 -1.5616 -0.0795 -0.7805
  128OSM    H9T13696   3.799   1.233   7.185 -0.1938 -0.9422 -0.0632
  128OSM   C10S13697   3.946   1.339   7.311 -0.2009 -0.2540 -0.3197
  128OSM   H10S13698   3.912   1.444   7.294  2.0946  0.8229  1.1947
  128OSM   H10T13699   4.057   1.342   7.312 -0.1888  2.6065 -0.1810
  128OSM   C11S13700   3.901   1.287   7.443 -0.7600  0.1819  0.1216
  128OSM   H11S13701   3.911   1.176   7.449  2.1305  0.3748  0.3634
  128OSM   H11T13702   3.794   1.304   7.465 -0.3093  0.7520  2.0714
  128OSM   C12S13703   3.994   1.331   7.563  0.0399  0.8066 -0.0073
  128OSM   H12S13704   4.037   1.429   7.536  0.3248  0.1218 -2.1828
  128OSM   H12T13705   4.071   1.251   7.567 -1.1402 -0.3736 -0.1021
  128OSM   C13S13706   3.922   1.339   7.692  0.4137 -0.0893 -0.0532
  128OSM   H13S13707   3.886   1.239   7.724 -1.5404  0.8030  0.6953
  128OSM   H13T13708   3.835   1.407   7.680  1.4999  1.1532 -1.2570
  128OSM   C14S13709   4.003   1.392   7.808 -0.2283  0.3845 -0.1911
  128OSM   H14S13710   3.949   1.372   7.903  2.1527 -3.4278  0.5593
  128OSM   H14T13711   4.015   1.503   7.810 -0.4127  0.4010  0.3225
  128OSM   C15S13712   4.134   1.324   7.829  0.2068  0.1615 -0.4067
  128OSM   H15S13713   4.181   1.380   7.913 -3.1888  3.0841 -0.2494
  128OSM   H15T13714   4.207   1.334   7.746 -0.6753  1.2992 -1.0751
  128OSM   C16S13715   4.116   1.177   7.863  0.4658 -0.3294 -0.1552
  128OSM   H16S13716   4.066   1.115   7.786 -0.0429  0.1451 -0.2127
  128OSM   H16T13717   4.040   1.171   7.944  1.2869 -0.2268  0.6371
  128OSM   C17S13718   4.239   1.108   7.912  0.3059  0.0714  0.1310
  128OSM   H17S13719   4.291   1.181   7.978  2.6186 -0.5946 -0.8370
  128OSM   H17T13720   4.314   1.093   7.831  1.3568  0.2617  1.0477
  128OSM   C18S13721   4.217   0.975   7.982 -0.1713 -0.7075  0.5372
  128OSM   H18S13722   4.319   0.934   8.000  1.3609  2.7410  0.7316
  128OSM   H18T13723   4.159   0.907   7.917  0.0142  0.9608 -1.4659
  128OSM   H18U13724   4.155   0.985   8.074 -2.5178  0.0102 -1.0328
  128OSM    C1F13725   4.195   0.878   6.657  0.4750  0.1740 -0.2127
  128OSM     OF13726   4.283   0.914   6.580  0.0896 -0.3879 -0.1238
  128OSM    C2F13727   4.224   0.784   6.768 -0.5107 -0.4298  0.0172
  128OSM    H2F13728   4.282   0.697   6.732  1.6723  1.4307 -1.2141
  128OSM    H2G13729   4.129   0.747   6.814 -1.3386 -0.5719 -1.7149
  128OSM    C3F13730   4.323   0.838   6.871  0.1745  0.0098 -0.4498
  128OSM    H3F13731   4.416   0.871   6.819  0.5848 -2.6271 -1.5383
  128OSM    H3G13732   4.361   0.755   6.934  1.1265 -0.1906 -1.2532
  128OSM    C4F13733   4.273   0.958   6.953 -0.2183  0.4514 -1.0034
  128OSM    H4F13734   4.185   0.920   7.009 -0.7741 -0.4704 -2.4482
  128OSM    H4G13735   4.224   1.040   6.896  0.4980  0.4008 -1.7044
  128OSM    C5F13736   4.377   1.023   7.046 -0.5731  0.0033 -0.2810
  128OSM    H5F13737   4.422   1.107   6.989 -0.7003  0.8763  0.8636
  128OSM    H5G13738   4.445   0.945   7.085 -0.5350 -0.2808 -0.9086
  128OSM    C6F13739   4.308   1.095   7.166 -0.2166 -0.5219  0.3565
  128OSM    H6F13740   4.225   1.162   7.138 -0.5418 -0.1379  2.1368
  128OSM    H6G13741   4.383   1.164   7.211 -0.5322 -0.8268  1.3784
  128OSM    C7F13742   4.251   1.002   7.275 -0.3951  0.2867 -0.1694
  128OSM    H7F13743   4.272   0.897   7.245 -1.2597  0.0914 -0.1240
  128OSM    H7G13744   4.141   1.002   7.264 -0.2454  0.4403 -1.8038
  128OSM    C8F13745   4.288   1.046   7.422  0.3096  0.3936  0.7991
  128OSM    H8F13746   4.246   1.149   7.431 -0.1399  0.2798  0.0958
  128OSM    H8G13747   4.399   1.044   7.432  0.3969  0.1583 -0.1524
  128OSM    C9F13748   4.224   0.950   7.515 -0.7731 -0.0974 -0.7624
  128OSM    H9F13749   4.126   0.972   7.560 -3.1737 -1.5669 -4.6833
  128OSM   C10F13750   4.272   0.830   7.553 -0.0994  0.0086 -0.3010
  128OSM   H10F13751   4.213   0.763   7.617 -1.9780  0.2754 -1.6394
  128OSM   C11F13752   4.397   0.766   7.501  0.6387  0.0314 -0.3491
  128OSM   H11F13753   4.417   0.799   7.396  1.1564  0.3513 -0.1519
  128OSM   H11G13754   4.370   0.659   7.497 -1.9254  0.5391  0.9098
  128OSM   C12F13755   4.536   0.802   7.563 -0.4556  0.7715 -0.8302
  128OSM   H12F13756   4.563   0.910   7.563  0.8929  0.5565 -3.7690
  128OSM   H12G13757   4.609   0.758   7.492 -1.1546  2.0810 -2.4317
  128OSM   C13F13758   4.540   0.752   7.706  0.9623  0.5425 -0.3904
  128OSM   H13F13759   4.518   0.643   7.702  1.9820  0.3518 -1.6989
  128OSM   H13G13760   4.468   0.813   7.764  0.0434  1.0776 -2.0068
  128OSM   C14F13761   4.680   0.765   7.763 -0.2494 -0.9470  0.4847
  128OSM   H14F13762   4.701   0.871   7.787 -0.6840 -0.3700 -1.5208
  128OSM   H14G13763   4.765   0.712   7.715  1.2247  1.0349  0.8059
  128OSM   C15F13764   4.684   0.713   7.905 -0.5337  0.1162  0.3405
  128OSM   H15F13765   4.630   0.618   7.925 -0.2188 -0.5532 -1.7152
  128OSM   H15G13766   4.624   0.782   7.969  0.5907  0.8077  0.6703
  128OSM   C16F13767   4.830   0.715   7.963  0.9638 -0.1650 -0.0201
  128OSM   H16F13768   4.858   0.822   7.970  0.5145 -0.0847  0.5999
  128OSM   H16G13769   4.899   0.654   7.900  2.2624 -0.6168  1.7448
  128OSM   C17F13770   4.834   0.664   8.107  0.3547  0.0136 -0.0372
  128OSM   H17F13771   4.942   0.668   8.134  0.4979 -0.0105 -0.5904
  128OSM   H17G13772   4.804   0.557   8.108  5.2084 -1.6182  2.0721
  128OSM   C18F13773   4.757   0.748   8.209  0.1461 -0.6822  0.1346
  128OSM   H18F13774   4.788   0.855   8.201 -0.2997 -0.3529  2.2411
  128OSM   H18G13775   4.785   0.720   8.313  0.3755  1.3401  0.6610
  128OSM   H18H13776   4.647   0.740   8.211 -0.2292  2.7583 -0.3958
  129OSM      N13777   1.865   1.009   5.850  0.4965 -0.0486 -0.1871
  129OSM    C1513778   1.756   1.092   5.787 -0.5251  0.2775  0.5542
  129OSM   H15A13779   1.704   1.148   5.863  0.2136  0.2087  1.1277
  129OSM   H15B13780   1.688   1.022   5.741 -0.0565  0.7878 -0.9843
  129OSM   H15C13781   1.797   1.163   5.717  0.4194 -0.2949  0.5022
  129OSM    C1413782   1.899   0.891   5.757  0.3229 -1.2115 -0.3355
  129OSM   H14A13783   1.972   0.819   5.790  0.4945 -1.3151 -0.9334
  129OSM   H14B13784   1.936   0.938   5.667 -2.5360  2.3441  0.0990
  129OSM   H14C13785   1.806   0.837   5.742 -0.5124 -0.1419  0.7887
  129OSM    C1313786   1.990   1.086   5.859  0.2150  0.1265  0.3118
  129OSM   H13A13787   2.022   1.113   5.759  2.0384 -1.7641  0.3015
  129OSM   H13B13788   2.075   1.035   5.902  1.4319  1.4830 -0.3718
  129OSM   H13C13789   1.983   1.168   5.928  1.1215 -1.6539  2.6272
  129OSM    C1213790   1.819   0.956   5.991 -0.8196 -0.5065  0.1778
  129OSM   H12A13791   1.879   0.874   6.027  0.1750  0.2864  0.3788
  129OSM   H12B13792   1.731   0.897   5.976  0.7497 -2.4868 -2.0072
  129OSM    C1113793   1.802   1.058   6.112 -0.8269  0.2256  0.0215
  129OSM   H11A13794   1.894   1.111   6.145 -1.4545  0.0131  2.2230
  129OSM   H11B13795   1.779   0.993   6.199 -0.6652  0.4938  0.2648
  129OSM      P13796   1.552   1.133   6.142 -0.0949 -0.0030 -0.0408
  129OSM    O1313797   1.489   1.259   6.112  0.1394 -0.0502 -0.2938
  129OSM    O1413798   1.497   1.008   6.079 -0.4594 -0.0555 -0.4745
  129OSM    O1113799   1.559   1.113   6.298  0.4045  0.1044  0.1013
  129OSM    O1213800   1.700   1.155   6.082  0.0185 -0.3785  0.1078
  129OSM    C1S13801   1.635   1.197   6.387  0.0266  1.2035  0.8833
  129OSM    H1S13802   1.601   1.303   6.377 -1.6025  0.5736 -0.9643
  129OSM    H1T13803   1.744   1.190   6.367 -0.2929 -2.1683 -0.2196
  129OSM     NF13804   1.678   1.265   6.615  0.5185  0.5240 -0.4224
  129OSM    HNF13805   1.770   1.256   6.653 -0.1329  0.4331  1.2268
  129OSM    C2S13806   1.618   1.156   6.529  0.3550  0.1944 -0.9842
  129OSM    H2S13807   1.509   1.157   6.546  0.6446  0.8973  1.1291
  129OSM    C3S13808   1.687   1.015   6.550  0.0678 -0.0841  0.1658
  129OSM    H3S13809   1.796   1.038   6.556  0.0312  0.2427 -0.3716
  129OSM     O313810   1.652   0.917   6.448  0.0823 -0.7789 -0.5311
  129OSM    HO313811   1.586   0.969   6.401 -1.2953 -0.9707  1.0759
  129OSM    C4S13812   1.649   0.970   6.688  0.4291 -0.4545 -0.1321
  129OSM    H4S13813   1.722   1.001   6.764 -0.4653 -1.2219  1.0848
  129OSM    C5S13814   1.549   0.893   6.733  0.2588 -0.7322  0.9128
  129OSM    H5S13815   1.473   0.846   6.669 -1.4188  1.6646  1.0548
  129OSM    C6S13816   1.533   0.858   6.879 -0.1686  0.6290 -0.4247
  129OSM    H6S13817   1.630   0.825   6.922 -1.3554 -1.9789  0.4356
  129OSM    H6T13818   1.474   0.765   6.895  1.8861 -0.9189 -1.4803
  129OSM    C7S13819   1.493   0.976   6.965 -0.4100  0.1763  0.4120
  129OSM    H7S13820   1.391   1.003   6.929  0.7566  0.2842 -3.1758
  129OSM    H7T13821   1.559   1.062   6.942  1.9997 -1.5245  0.5701
  129OSM    C8S13822   1.504   0.948   7.120 -0.6981 -0.6845 -0.3621
  129OSM    H8S13823   1.457   0.850   7.142  3.2585 -3.1552 -1.8018
  129OSM    H8T13824   1.454   1.031   7.174 -0.8713 -1.9486  1.4961
  129OSM    C9S13825   1.641   0.927   7.178 -0.9153  0.3323  0.8054
  129OSM    H9S13826   1.713   0.995   7.127  1.7120 -2.5334  0.3730
  129OSM    H9T13827   1.675   0.822   7.162  1.1627  0.6898  2.3327
  129OSM   C10S13828   1.643   0.954   7.327 -0.0593  0.8810  0.1138
  129OSM   H10S13829   1.565   0.888   7.371 -0.4841  0.8722 -0.6210
  129OSM   H10T13830   1.626   1.059   7.358 -2.0618  0.6970 -0.2167
  129OSM   C11S13831   1.783   0.917   7.385 -0.2228 -0.7504 -0.5181
  129OSM   H11S13832   1.865   0.981   7.348  0.6962 -1.9308 -0.5981
  129OSM   H11T13833   1.805   0.811   7.358  0.6955 -0.5663 -0.5152
  129OSM   C12S13834   1.782   0.912   7.535  0.6462  0.8621 -0.3287
  129OSM   H12S13835   1.698   0.841   7.551  0.8749 -0.2131 -3.3045
  129OSM   H12T13836   1.760   1.015   7.572  0.0864  0.3799  0.7141
  129OSM   C13S13837   1.914   0.860   7.596 -0.0358 -0.1110 -0.0212
  129OSM   H13S13838   1.993   0.934   7.571  0.0155 -0.0340  0.3646
  129OSM   H13T13839   1.937   0.760   7.553  1.3558  0.2408 -0.1157
  129OSM   C14S13840   1.902   0.842   7.749 -0.3189  0.1390  0.0612
  129OSM   H14S13841   1.848   0.748   7.773 -0.0507 -0.0888 -0.2052
  129OSM   H14T13842   1.847   0.930   7.786  0.1988  0.2992  0.4633
  129OSM   C15S13843   2.035   0.820   7.827  0.1029  0.4105 -0.3073
  129OSM   H15S13844   2.112   0.897   7.804  1.4898  0.3265  3.3250
  129OSM   H15T13845   2.078   0.725   7.790 -2.1681 -1.2507  1.0404
  129OSM   C16S13846   2.016   0.823   7.982 -0.0477  0.0042 -0.8001
  129OSM   H16S13847   2.120   0.835   8.018 -0.4294  0.3789  0.2342
  129OSM   H16T13848   1.973   0.734   8.033  0.3315  0.1371 -0.2398
  129OSM   C17S13849   1.943   0.946   8.032  0.3830  0.6178  0.8631
  129OSM   H17S13850   1.947   0.948   8.143  1.8000  0.5754  0.8251
  129OSM   H17T13851   1.837   0.939   8.000  0.7225 -2.6078  0.0682
  129OSM   C18S13852   2.000   1.080   7.981  0.1636 -0.7131 -0.2751
  129OSM   H18S13853   2.110   1.083   8.001  0.1606  2.8524 -0.3277
  129OSM   H18T13854   1.961   1.165   8.040 -2.0513 -2.0904  0.3601
  129OSM   H18U13855   1.986   1.088   7.871 -2.1859 -1.1340 -0.0590
  129OSM    C1F13856   1.618   1.380   6.637  0.1696 -0.4321 -0.4365
  129OSM     OF13857   1.506   1.402   6.587  0.0313  0.0906 -0.4168
  129OSM    C2F13858   1.681   1.500   6.706  0.1013 -0.2853 -0.0452
  129OSM    H2F13859   1.762   1.538   6.641 -0.7638  1.6057 -0.1023
  129OSM    H2G13860   1.725   1.461   6.800 -2.7522 -0.8315  1.1633
  129OSM    C3F13861   1.587   1.622   6.745 -0.0698  0.3355 -0.3825
  129OSM    H3F13862   1.501   1.569   6.792  0.6473 -1.4812 -1.0399
  129OSM    H3G13863   1.540   1.663   6.653  0.1345  0.8703 -0.2530
  129OSM    C4F13864   1.660   1.735   6.824 -0.9719 -0.1048  0.5905
  129OSM    H4F13865   1.583   1.811   6.849 -0.8837  0.6298 -1.2157
  129OSM    H4G13866   1.733   1.791   6.761 -0.9373 -0.7354  0.0607
  129OSM    C5F13867   1.719   1.684   6.954 -0.3272 -0.0933 -0.2670
  129OSM    H5F13868   1.802   1.620   6.920  1.2229  0.7706  1.6628
  129OSM    H5G13869   1.653   1.612   7.007  1.1634  1.1905  3.8067
  129OSM    C6F13870   1.772   1.774   7.070  0.5200 -0.3303 -0.0586
  129OSM    H6F13871   1.691   1.837   7.112  0.3706 -0.5216 -0.0609
  129OSM    H6G13872   1.846   1.842   7.021  2.8826 -1.5206  1.6391
  129OSM    C7F13873   1.839   1.697   7.182  0.0276 -0.5179  0.0187
  129OSM    H7F13874   1.896   1.612   7.139  0.6404  0.2416 -0.6931
  129OSM    H7G13875   1.756   1.666   7.249 -1.4378 -0.4297 -1.6882
  129OSM    C8F13876   1.928   1.788   7.263  0.4582  0.9278  0.1535
  129OSM    H8F13877   1.995   1.836   7.189 -0.0002 -1.0710 -1.6872
  129OSM    H8G13878   1.995   1.728   7.329 -0.2582  0.4438  0.4584
  129OSM    C9F13879   1.856   1.896   7.347 -0.2389 -0.2391  0.2229
  129OSM    H9F13880   1.848   1.997   7.306  0.2435  0.7568  2.4124
  129OSM   C10F13881   1.810   1.882   7.476  0.1241 -0.4089  0.3375
  129OSM   H10F13882   1.747   1.960   7.521  1.9492  0.0493  2.2681
  129OSM   C11F13883   1.818   1.755   7.556 -0.2298 -0.5876  0.0887
  129OSM   H11F13884   1.830   1.666   7.490 -0.2648 -0.8676  0.4587
  129OSM   H11G13885   1.728   1.727   7.614  1.0461  1.1433  3.1406
  129OSM   C12F13886   1.930   1.762   7.663  0.5268  0.0505 -0.2445
  129OSM   H12F13887   2.031   1.775   7.619  1.4681 -0.9645  1.4877
  129OSM   H12G13888   1.920   1.672   7.727  0.4404 -0.1434 -0.5287
  129OSM   C13F13889   1.906   1.872   7.770 -0.3306 -0.5558 -0.0079
  129OSM   H13F13890   1.811   1.850   7.823 -1.2920 -2.4630 -2.3138
  129OSM   H13G13891   1.878   1.963   7.712  0.2898 -0.0981  0.3906
  129OSM   C14F13892   2.023   1.904   7.857 -0.5454 -0.0695 -0.6405
  129OSM   H14F13893   2.100   1.969   7.813  1.3313 -1.6449  0.1714
  129OSM   H14G13894   2.075   1.807   7.874 -0.9264 -0.9423 -3.8351
  129OSM   C15F13895   1.973   1.969   7.984  0.0255  0.6481 -0.3277
  129OSM   H15F13896   1.872   1.934   8.015  0.3953  1.9236  2.7680
  129OSM   H15G13897   1.963   2.078   7.965  0.2843  0.5943 -0.7784
  129OSM   C16F13898   2.070   1.937   8.103  0.0194  0.8948  0.2568
  129OSM   H16F13899   2.175   1.950   8.070 -0.5516 -0.9960 -2.6943
  129OSM   H16G13900   2.059   1.828   8.125 -0.0537  0.7005 -0.7325
  129OSM   C17F13901   2.042   2.025   8.227  0.4020  0.5497 -1.2661
  129OSM   H17F13902   1.936   2.004   8.253  0.5223  1.9903  0.5773
  129OSM   H17G13903   2.054   2.131   8.197  1.4259  0.7460 -0.2150
  129OSM   C18F13904   2.120   1.992   8.350  0.0325 -0.7547  0.3395
  129OSM   H18F13905   2.227   1.997   8.322 -0.7023 -0.4698 -2.8443
  129OSM   H18G13906   2.096   1.890   8.386 -1.5666 -0.3743  0.4302
  129OSM   H18H13907   2.094   2.059   8.436  0.4941 -1.9737  1.4579
  130OSM      N13908   2.069   5.051   5.994  0.4382  0.6470 -0.3454
  130OSM    C1513909   2.030   4.917   6.039 -0.4534 -0.1497 -0.1581
  130OSM   H15A13910   1.996   4.860   5.953  1.4282 -0.2631 -0.8610
  130OSM   H15B13911   1.947   4.917   6.109  0.4593 -0.4884  0.9484
  130OSM   H15C13912   2.110   4.864   6.088 -2.0784 -2.1101  0.5395
  130OSM    C1413913   2.169   5.050   5.883 -0.0599 -0.2197 -0.0477
  130OSM   H14A13914   2.203   5.151   5.866 -0.2953 -0.4904 -2.5606
  130OSM   H14B13915   2.112   5.019   5.796 -1.3889  0.2533  0.6126
  130OSM   H14C13916   2.258   4.995   5.908  0.6289 -0.0074 -1.9084
  130OSM    C1313917   1.945   5.124   5.949 -0.2890 -0.2652 -0.0412
  130OSM   H13A13918   1.889   5.054   5.889 -0.2946 -1.7636  1.6461
  130OSM   H13B13919   1.966   5.216   5.895 -2.6285  0.0785 -0.4787
  130OSM   H13C13920   1.889   5.155   6.036 -0.3711 -3.4924  1.1821
  130OSM    C1213921   2.133   5.129   6.112  0.1502 -0.3208  0.7774
  130OSM   H12A13922   2.184   5.217   6.075  0.6208 -1.1990 -0.7448
  130OSM   H12B13923   2.213   5.066   6.151 -0.0929  0.2937  2.3658
  130OSM    C1113924   2.043   5.188   6.220 -0.7163  0.2161 -0.3467
  130OSM   H11A13925   2.100   5.234   6.303 -1.5337  2.3118 -0.8820
  130OSM   H11B13926   1.981   5.101   6.254 -0.0241  0.4733  1.7296
  130OSM      P13927   2.014   5.435   6.154  0.0219  0.0180  0.2962
  130OSM    O1313928   2.090   5.430   6.024  0.0125 -0.0557  0.0589
  130OSM    O1413929   1.902   5.532   6.149  0.3995  0.1825  0.2941
  130OSM    O1113930   2.104   5.473   6.277  0.0937 -0.2497 -0.4214
  130OSM    O1213931   1.953   5.294   6.180 -0.3713 -0.8276  0.3624
  130OSM    C1S13932   2.041   5.482   6.405  0.4898 -0.5886 -0.4678
  130OSM    H1S13933   1.954   5.413   6.405  1.4216 -1.7919  0.0822
  130OSM    H1T13934   2.008   5.586   6.428  1.3700 -0.8325  2.3320
  130OSM     NF13935   2.055   5.465   6.648  0.1103 -0.0406  0.1350
  130OSM    HNF13936   2.072   5.549   6.700  0.8809 -0.3598  0.4235
  130OSM    C2S13937   2.131   5.439   6.521  0.1781 -0.0089 -0.3864
  130OSM    H2S13938   2.149   5.329   6.515  3.6845  0.3571  0.8882
  130OSM    C3S13939   2.263   5.519   6.502  0.4650 -0.2211 -0.0033
  130OSM    H3S13940   2.244   5.628   6.508 -1.8828 -0.6309  0.7438
  130OSM     O313941   2.341   5.486   6.387 -0.1671  0.2496  0.6906
  130OSM    HO313942   2.277   5.445   6.328  3.0627 -2.3496 -1.3461
  130OSM    C4S13943   2.349   5.475   6.615 -0.0822  0.1736  0.0682
  130OSM    H4S13944   2.382   5.370   6.606 -2.1297 -0.7964  2.6493
  130OSM    C5S13945   2.415   5.549   6.709  0.3933 -0.3186  0.5001
  130OSM    H5S13946   2.394   5.657   6.713  2.2151  0.0656  0.5278
  130OSM    C6S13947   2.503   5.488   6.814  0.1487  0.7205  0.6057
  130OSM    H6S13948   2.534   5.562   6.890 -0.6926  0.3929  1.2854
  130OSM    H6T13949   2.590   5.464   6.750 -0.7594  1.4862 -0.9948
  130OSM    C7S13950   2.437   5.366   6.873 -0.2157  0.6571 -0.2645
  130OSM    H7S13951   2.453   5.283   6.801 -1.9375 -1.5420  1.7212
  130OSM    H7T13952   2.332   5.386   6.904 -1.1472 -0.7269 -2.2498
  130OSM    C8S13953   2.502   5.321   7.013 -0.1330 -0.2795 -0.4093
  130OSM    H8S13954   2.612   5.325   7.005 -0.1165 -1.4114 -0.8748
  130OSM    H8T13955   2.466   5.217   7.026 -2.6290  0.4744 -0.6720
  130OSM    C9S13956   2.462   5.400   7.131  0.4674 -0.3810  0.0293
  130OSM    H9S13957   2.354   5.423   7.135  1.0805  2.8814  1.6750
  130OSM    H9T13958   2.514   5.498   7.124  1.4206 -0.9127 -0.5335
  130OSM   C10S13959   2.492   5.327   7.264  0.2865 -0.3071  0.2486
  130OSM   H10S13960   2.596   5.289   7.257  0.6078  0.8036 -1.8680
  130OSM   H10T13961   2.424   5.239   7.264 -1.2415  0.8340  0.4509
  130OSM   C11S13962   2.450   5.421   7.384 -0.6521  0.2086 -0.2535
  130OSM   H11S13963   2.339   5.425   7.396 -0.3746  1.6017  3.2130
  130OSM   H11T13964   2.485   5.522   7.356  0.5928 -0.1462 -0.0509
  130OSM   C12S13965   2.522   5.375   7.512 -0.4357 -0.5066 -0.1676
  130OSM   H12S13966   2.628   5.410   7.515 -0.9702  1.1417  0.8028
  130OSM   H12T13967   2.522   5.264   7.525 -0.9452 -0.4960 -0.0894
  130OSM   C13S13968   2.450   5.412   7.642 -0.1468 -0.0853 -0.1623
  130OSM   H13S13969   2.346   5.375   7.623 -0.0966 -0.7257  0.7606
  130OSM   H13T13970   2.450   5.521   7.661  1.2497 -0.1367  0.2264
  130OSM   C14S13971   2.496   5.340   7.765  0.2000 -0.1517 -0.2572
  130OSM   H14S13972   2.606   5.355   7.761  0.0129  1.0897 -1.7527
  130OSM   H14T13973   2.475   5.231   7.761  1.5200 -0.4000 -0.9093
  130OSM   C15S13974   2.450   5.398   7.898 -0.0372  0.5126 -0.0949
  130OSM   H15S13975   2.340   5.403   7.907 -0.0859  3.0752 -1.1331
  130OSM   H15T13976   2.494   5.500   7.889  1.4219 -0.0822 -0.0434
  130OSM   C16S13977   2.515   5.335   8.024  0.2040  0.0837  0.0737
  130OSM   H16S13978   2.478   5.394   8.111  1.6173  0.9993  0.0906
  130OSM   H16T13979   2.626   5.343   8.034  0.2179 -0.7580  0.6849
  130OSM   C17S13980   2.463   5.192   8.034 -0.5254  0.3648  0.1404
  130OSM   H17S13981   2.472   5.137   7.939 -1.6660 -0.4020  0.4553
  130OSM   H17T13982   2.354   5.184   8.054 -0.2570  0.3066  1.7400
  130OSM   C18S13983   2.549   5.119   8.137 -0.4586 -0.2484 -0.0605
  130OSM   H18S13984   2.559   5.168   8.236 -3.0727  0.1478  0.0828
  130OSM   H18T13985   2.650   5.096   8.096 -1.2378 -0.2779 -2.0505
  130OSM   H18U13986   2.501   5.020   8.152  1.9160 -1.7504 -1.7472
  130OSM    C1F13987   1.957   5.390   6.689 -0.0032 -0.7067 -0.0100
  130OSM     OF13988   1.931   5.287   6.631 -0.4531 -0.4790 -0.1794
  130OSM    C2F13989   1.882   5.443   6.813 -0.4300  0.5330  0.4382
  130OSM    H2F13990   1.822   5.351   6.830  1.9266 -1.7967 -2.6138
  130OSM    H2G13991   1.827   5.536   6.785  0.5990  1.3151  0.9367
  130OSM    C3F13992   1.982   5.459   6.929 -0.0625  0.1584 -0.4409
  130OSM    H3F13993   2.048   5.549   6.928  0.8264 -0.4774 -0.4918
  130OSM    H3G13994   2.054   5.375   6.927 -0.5152 -0.2515  0.2335
  130OSM    C4F13995   1.918   5.465   7.070 -0.0439  0.1877 -0.3323
  130OSM    H4F13996   1.861   5.373   7.096  1.7156 -0.6394  0.7690
  130OSM    H4G13997   1.858   5.559   7.064 -0.1124  0.0336 -3.0712
  130OSM    C5F13998   2.020   5.483   7.181  0.1175 -0.2434  0.2816
  130OSM    H5F13999   2.088   5.569   7.162 -0.4345 -0.1842 -1.6618
  130OSM    H5G14000   2.090   5.397   7.182 -0.5913 -0.8209  1.1871
  130OSM    C6F14001   1.941   5.492   7.313 -0.6867 -0.3766  0.0057
  130OSM    H6F14002   1.903   5.388   7.323  0.9047 -1.0846 -0.9097
  130OSM    H6G14003   1.857   5.562   7.298 -1.6841 -1.3498  0.8930
  130OSM    C7F14004   2.015   5.540   7.433 -0.7075 -0.4078 -0.4551
  130OSM    H7F14005   2.046   5.644   7.412 -0.6784 -0.2005  0.5511
  130OSM    H7G14006   2.107   5.478   7.433  1.0369  2.0247 -0.7321
  130OSM    C8F14007   1.931   5.543   7.565 -0.0102 -0.1788 -0.4662
  130OSM    H8F14008   1.878   5.450   7.594 -0.1067  0.2055  0.6459
  130OSM    H8G14009   1.850   5.612   7.532  0.2355 -0.1064 -0.9270
  130OSM    C9F14010   2.005   5.594   7.686  0.1163 -0.4378  0.0166
  130OSM    H9F14011   2.094   5.655   7.663  1.1136 -1.3360  1.3411
  130OSM   C10F14012   1.979   5.560   7.813 -0.2537  0.1636  0.0073
  130OSM   H10F14013   2.049   5.590   7.892 -0.3958  0.8211 -0.1115
  130OSM   C11F14014   1.866   5.470   7.870 -0.8252  0.8252  0.4142
  130OSM   H11F14015   1.908   5.367   7.861 -1.0495  0.7851 -0.2542
  130OSM   H11G14016   1.774   5.473   7.809 -0.6052 -2.0580 -0.2266
  130OSM   C12F14017   1.837   5.502   8.017 -0.6966  0.2869 -0.1651
  130OSM   H12F14018   1.931   5.492   8.077 -1.6407 -0.6307  1.2230
  130OSM   H12G14019   1.764   5.425   8.051 -1.8993  1.8708  0.9452
  130OSM   C13F14020   1.763   5.630   8.035  0.0514  0.1390  0.5601
  130OSM   H13F14021   1.670   5.617   7.976  0.2451  2.9138 -0.5058
  130OSM   H13G14022   1.818   5.715   7.990  0.3559 -0.1603  0.3624
  130OSM   C14F14023   1.731   5.667   8.182  0.6540 -0.0713  0.3085
  130OSM   H14F14024   1.822   5.646   8.243  0.9910  0.7819  0.1116
  130OSM   H14G14025   1.654   5.601   8.228 -0.2616  0.9831  0.3331
  130OSM   C15F14026   1.692   5.814   8.197 -0.0910  0.2202 -0.1544
  130OSM   H15F14027   1.779   5.882   8.181  0.2998  0.2253  1.7349
  130OSM   H15G14028   1.659   5.834   8.301 -0.8184  2.0015 -0.6816
  130OSM   C16F14029   1.581   5.869   8.100 -0.7655  0.2799 -0.7332
  130OSM   H16F14030   1.625   5.891   8.000 -2.5059  1.5972 -1.2624
  130OSM   H16G14031   1.553   5.966   8.147 -1.5437 -1.1523  1.9798
  130OSM   C17F14032   1.458   5.782   8.109  0.4811  0.3195  0.1792
  130OSM   H17F14033   1.420   5.763   8.211 -0.6338  3.4542  0.4467
  130OSM   H17G14034   1.473   5.683   8.061 -3.2372  0.3020 -1.3101
  130OSM   C18F14035   1.341   5.849   8.025  0.1696 -0.3470  0.1138
  130OSM   H18F14036   1.245   5.794   8.033 -1.4232  2.3146  0.2896
  130OSM   H18G14037   1.371   5.859   7.918  0.1174 -3.2104 -0.2641
  130OSM   H18H14038   1.322   5.945   8.077  4.1319  0.5665  0.2029
  131OSM      N14039   3.362   5.276   5.978 -0.1462 -0.5970 -0.0955
  131OSM    C1514040   3.390   5.401   5.896  0.1560 -0.3519 -0.0007
  131OSM   H15A14041   3.379   5.380   5.790 -2.4534 -0.4776  0.2250
  131OSM   H15B14042   3.494   5.426   5.904  0.1308  0.0184 -0.6812
  131OSM   H15C14043   3.322   5.482   5.919 -0.8491 -0.9948 -0.5996
  131OSM    C1414044   3.460   5.167   5.953 -0.4561 -0.1486 -0.1898
  131OSM   H14A14045   3.561   5.206   5.954 -1.0526  1.6260  2.8417
  131OSM   H14B14046   3.436   5.125   5.856 -1.1242  0.6365 -0.3764
  131OSM   H14C14047   3.455   5.084   6.021 -0.0625 -2.8588 -3.1978
  131OSM    C1314048   3.387   5.320   6.120  0.2713 -1.0374 -0.9814
  131OSM   H13A14049   3.377   5.235   6.186  1.5805 -1.1289 -0.8874
  131OSM   H13B14050   3.315   5.393   6.154  0.0239 -1.5435 -0.3827
  131OSM   H13C14051   3.482   5.369   6.128 -0.0081 -0.1643 -2.5695
  131OSM    C1214052   3.222   5.227   5.951 -0.6379 -0.1055  0.1385
  131OSM   H12A14053   3.220   5.223   5.843  2.3488 -1.0532  0.0326
  131OSM   H12B14054   3.154   5.305   5.982 -0.0936  0.8296 -0.9530
  131OSM    C1114055   3.175   5.092   6.014  0.3828 -0.8651  0.2547
  131OSM   H11A14056   3.260   5.021   6.013  0.4728 -0.8532  2.3405
  131OSM   H11B14057   3.096   5.041   5.955  0.3827  1.0830 -1.5539
  131OSM      P14058   3.014   5.189   6.196 -0.2812  0.3586  0.3252
  131OSM    O1314059   3.066   5.317   6.247 -0.2594  1.1587  0.4231
  131OSM    O1414060   2.913   5.192   6.088 -0.3638 -0.2881  0.0688
  131OSM    O1114061   2.939   5.109   6.313  0.0970 -0.1510 -0.0892
  131OSM    O1214062   3.133   5.100   6.151 -0.2347 -0.0933  0.2651
  131OSM    C1S14063   2.957   4.969   6.328 -0.1166  0.2073 -0.6268
  131OSM    H1S14064   3.066   4.954   6.341 -0.6265 -2.9155  1.0905
  131OSM    H1T14065   2.912   4.918   6.240 -1.1381 -1.2534  0.6912
  131OSM     NF14066   2.880   4.782   6.477 -0.5352 -0.3845 -0.1910
  131OSM    HNF14067   2.819   4.716   6.435 -0.8745  0.3203 -0.8311
  131OSM    C2S14068   2.866   4.923   6.450  0.3354 -0.0977 -0.1272
  131OSM    H2S14069   2.899   4.978   6.541 -0.6073  2.2705 -1.1438
  131OSM    C3S14070   2.716   4.960   6.433  0.2481  0.2508 -0.3059
  131OSM    H3S14071   2.685   4.883   6.358  1.6613 -2.8203  2.0201
  131OSM     O314072   2.675   5.091   6.385 -0.1806 -0.5783 -0.0152
  131OSM    HO314073   2.756   5.111   6.337 -0.6527 -0.0533 -0.6054
  131OSM    C4S14074   2.645   4.926   6.566  0.1406  0.0271 -0.2110
  131OSM    H4S14075   2.579   4.839   6.554 -0.1158  0.2283 -0.2662
  131OSM    C5S14076   2.640   5.005   6.669  0.0300  0.5295 -0.1293
  131OSM    H5S14077   2.671   5.110   6.662  1.6209  0.1378  0.6623
  131OSM    C6S14078   2.580   4.968   6.801  0.5016  0.3377  0.7110
  131OSM    H6S14079   2.536   4.866   6.808 -0.6395  0.8568  1.2796
  131OSM    H6T14080   2.497   5.038   6.821  0.5790  0.0383  2.1832
  131OSM    C7S14081   2.678   4.973   6.925  0.7061 -0.6237 -0.1829
  131OSM    H7S14082   2.729   5.071   6.920  1.4835 -1.0736 -1.3727
  131OSM    H7T14083   2.761   4.903   6.901  1.9503  1.6873 -3.2794
  131OSM    C8S14084   2.615   4.934   7.057  0.4174  0.0686  0.0909
  131OSM    H8S14085   2.556   4.840   7.045  0.3615  0.0031  0.8361
  131OSM    H8T14086   2.544   5.019   7.065  2.7909  2.0616  1.2500
  131OSM    C9S14087   2.723   4.926   7.162  0.2287 -0.3164 -0.2010
  131OSM    H9S14088   2.805   4.999   7.143  1.1277 -1.3658 -0.4708
  131OSM    H9T14089   2.776   4.828   7.165  1.3718  0.2449 -1.1167
  131OSM   C10S14090   2.670   4.951   7.303 -0.1548  0.4533 -0.1379
  131OSM   H10S14091   2.637   5.057   7.316  1.2750  0.9548 -0.3851
  131OSM   H10T14092   2.744   4.936   7.385  0.0938  3.0994  0.2085
  131OSM   C11S14093   2.554   4.857   7.339 -0.4795  0.3525  0.7434
  131OSM   H11S14094   2.578   4.754   7.307  0.0597  0.6060  0.3067
  131OSM   H11T14095   2.463   4.880   7.279 -0.1305  0.2203  0.1523
  131OSM   C12S14096   2.509   4.862   7.486 -0.1185 -0.5695 -0.6172
  131OSM   H12S14097   2.412   4.808   7.480  0.1722 -1.3643  1.2799
  131OSM   H12T14098   2.504   4.970   7.512 -1.5513 -0.9639  0.9293
  131OSM   C13S14099   2.602   4.789   7.585 -0.4282  0.4512  0.0863
  131OSM   H13S14100   2.689   4.842   7.627 -0.7083  0.8566  0.1589
  131OSM   H13T14101   2.635   4.703   7.523 -2.5958 -1.0353  0.8713
  131OSM   C14S14102   2.516   4.723   7.701  0.0010 -0.4425 -0.0308
  131OSM   H14S14103   2.567   4.634   7.744  0.3673  0.8649  2.3987
  131OSM   H14T14104   2.421   4.690   7.654 -0.5113 -1.6175  1.7595
  131OSM   C15S14105   2.492   4.826   7.820 -0.0363 -0.2185 -0.5294
  131OSM   H15S14106   2.455   4.918   7.769 -1.0016 -0.5999 -0.5315
  131OSM   H15T14107   2.588   4.841   7.873  0.6248 -0.0305 -1.7434
  131OSM   C16S14108   2.390   4.777   7.928  0.4714 -0.2011 -0.7159
  131OSM   H16S14109   2.288   4.793   7.886 -0.2602 -2.8203 -0.1765
  131OSM   H16T14110   2.418   4.840   8.015 -2.3745 -1.7795  1.5403
  131OSM   C17S14111   2.396   4.634   7.957  0.3430 -0.3588 -0.3352
  131OSM   H17S14112   2.502   4.602   7.961  0.6730  0.4906 -1.6023
  131OSM   H17T14113   2.369   4.571   7.869 -0.2698 -0.4554 -0.0811
  131OSM   C18S14114   2.303   4.590   8.070  0.4733 -0.1316  1.2474
  131OSM   H18S14115   2.202   4.604   8.027  1.0880  3.5083  0.6149
  131OSM   H18T14116   2.324   4.660   8.155  3.1422  1.3563 -0.4794
  131OSM   H18U14117   2.327   4.486   8.100  0.1069 -1.7247 -3.2974
  131OSM    C1F14118   3.004   4.740   6.518  0.5654  0.0139  0.6078
  131OSM     OF14119   3.090   4.821   6.530 -0.0862  0.0402  0.2975
  131OSM    C2F14120   3.021   4.596   6.523 -0.5060 -0.2434 -0.6056
  131OSM    H2F14121   3.099   4.565   6.450 -0.8797  1.4466 -1.7880
  131OSM    H2G14122   2.924   4.545   6.506 -1.2346  0.6118  0.7846
  131OSM    C3F14123   3.079   4.542   6.660 -0.2098 -0.2231 -0.3084
  131OSM    H3F14124   3.183   4.579   6.669 -0.3545  0.0388  0.3432
  131OSM    H3G14125   3.097   4.434   6.640  0.0702  0.1914 -2.5183
  131OSM    C4F14126   2.996   4.559   6.790  0.2446  0.4378 -0.0933
  131OSM    H4F14127   2.978   4.669   6.791  0.5940  0.5627 -2.6029
  131OSM    H4G14128   3.058   4.536   6.880 -0.0290  0.5923  0.1376
  131OSM    C5F14129   2.859   4.485   6.795  0.0986  0.3982 -0.0662
  131OSM    H5F14130   2.875   4.375   6.794  0.0560  0.3936 -1.4533
  131OSM    H5G14131   2.802   4.503   6.701  0.0612 -2.1193 -0.5836
  131OSM    C6F14132   2.761   4.526   6.907 -0.6371  0.5999 -0.6133
  131OSM    H6F14133   2.661   4.481   6.891 -1.0270  0.8393  1.0009
  131OSM    H6G14134   2.742   4.635   6.913 -0.4710  0.6101 -0.2171
  131OSM    C7F14135   2.807   4.475   7.040  0.5135 -0.0205 -0.1974
  131OSM    H7F14136   2.881   4.553   7.069 -0.3264  0.6450  0.1957
  131OSM    H7G14137   2.848   4.375   7.017 -0.3556 -0.0805 -1.6159
  131OSM    C8F14138   2.705   4.479   7.145  0.1312 -0.1901  0.0140
  131OSM    H8F14139   2.611   4.423   7.131 -0.4223  0.8084 -0.3464
  131OSM    H8G14140   2.666   4.582   7.155 -0.7844 -0.5363  0.0616
  131OSM    C9F14141   2.760   4.444   7.279  0.4555 -0.7672 -0.9874
  131OSM    H9F14142   2.820   4.522   7.330 -0.2357 -0.9481  0.1339
  131OSM   C10F14143   2.716   4.336   7.349 -0.6812 -0.0618  0.2367
  131OSM   H10F14144   2.765   4.310   7.443  2.8942  0.3880 -1.3441
  131OSM   C11F14145   2.623   4.233   7.295  0.2159 -0.6883 -0.0696
  131OSM   H11F14146   2.642   4.201   7.190  0.6524 -0.2666 -0.1249
  131OSM   H11G14147   2.518   4.268   7.290  0.1647 -0.6692  0.9926
  131OSM   C12F14148   2.635   4.106   7.378  0.1519 -0.5389 -0.2127
  131OSM   H12F14149   2.743   4.083   7.382  0.4864  0.8215 -1.0458
  131OSM   H12G14150   2.588   4.020   7.325 -1.4246 -0.1514  0.4825
  131OSM   C13F14151   2.565   4.122   7.519 -1.0493  1.7580  0.5788
  131OSM   H13F14152   2.455   4.117   7.530 -1.1080  0.6110 -0.3985
  131OSM   H13G14153   2.601   4.214   7.569  1.2638  1.8908 -1.1630
  131OSM   C14F14154   2.622   4.011   7.615  0.8814 -0.8707  0.1933
  131OSM   H14F14155   2.722   4.048   7.648  0.0878  1.1813  0.4373
  131OSM   H14G14156   2.624   3.911   7.568  1.7675 -1.1462  0.7882
  131OSM   C15F14157   2.533   3.995   7.738 -0.0952  0.3101  0.1459
  131OSM   H15F14158   2.581   3.917   7.801  1.7338  0.6699 -0.7210
  131OSM   H15G14159   2.434   3.948   7.722 -1.2424  2.7543 -0.4543
  131OSM   C16F14160   2.500   4.115   7.826 -0.0732 -0.1664  0.4402
  131OSM   H16F14161   2.423   4.069   7.891 -0.6943 -1.2791 -1.0331
  131OSM   H16G14162   2.434   4.194   7.784  0.5996 -0.6049 -1.5404
  131OSM   C17F14163   2.610   4.169   7.912  0.3114 -0.5396 -0.0603
  131OSM   H17F14164   2.686   4.200   7.837 -1.0321  0.3639 -1.1041
  131OSM   H17G14165   2.648   4.086   7.974  0.3891 -0.0497  0.5572
  131OSM   C18F14166   2.560   4.286   7.996  0.1217  0.7992  0.2888
  131OSM   H18F14167   2.452   4.269   8.015 -0.2641  0.1410 -2.1282
  131OSM   H18G14168   2.559   4.386   7.948 -1.1249  0.5094 -0.3167
  131OSM   H18H14169   2.617   4.292   8.092  0.5823  0.1768  0.0625
  132OSM      N14170   5.867   1.801   6.400 -0.9676 -0.3258  0.0220
  132OSM    C1514171   5.854   1.932   6.322  0.0772  0.0117  0.3859
  132OSM   H15A14172   5.932   1.999   6.356  0.7664 -1.4349  1.8017
  132OSM   H15B14173   5.754   1.972   6.321 -0.3507 -0.9369  1.9903
  132OSM   H15C14174   5.872   1.915   6.217  0.1444  1.5738  0.1204
  132OSM    C1414175   5.999   1.734   6.365 -0.7083  0.2011 -0.2940
  132OSM   H14A14176   6.012   1.732   6.257  1.7606  0.7953 -0.0828
  132OSM   H14B14177   5.988   1.634   6.403 -1.4760  0.7687  1.0221
  132OSM   H14C14178   6.071   1.803   6.408 -0.9388 -0.0801  0.5567
  132OSM    C1314179   5.871   1.833   6.548 -0.0726 -0.4260  0.0777
  132OSM   H13A14180   5.889   1.742   6.603 -0.6345  0.2606  1.4311
  132OSM   H13B14181   5.775   1.872   6.578  1.4922  1.9080  2.5582
  132OSM   H13C14182   5.951   1.902   6.570 -2.4348  1.7630  2.3950
  132OSM    C1214183   5.751   1.721   6.362  0.0265  0.0606  0.3427
  132OSM   H12A14184   5.740   1.706   6.256  1.9943  2.6831 -0.3273
  132OSM   H12B14185   5.663   1.773   6.397 -1.3485 -2.4222  0.8498
  132OSM    C1114186   5.746   1.577   6.430  0.5905 -0.1306 -0.1284
  132OSM   H11A14187   5.640   1.545   6.423  0.2023  0.8345  0.8568
  132OSM   H11B14188   5.758   1.572   6.541 -1.1447 -1.6274  0.0362
  132OSM      P14189   5.789   1.418   6.224 -0.1167  0.1939  0.0608
  132OSM    O1314190   5.754   1.526   6.134 -0.2867 -0.3465  0.6418
  132OSM    O1414191   5.887   1.315   6.176 -0.0643  0.4586  0.7377
  132OSM    O1114192   5.650   1.350   6.264  0.4930  0.1673  0.4805
  132OSM    O1214193   5.833   1.479   6.362  0.3514  0.0718  0.1279
  132OSM    C1S14194   5.650   1.255   6.371  0.0836  0.6164  0.4920
  132OSM    H1S14195   5.737   1.260   6.440 -0.7949  0.9842  1.6047
  132OSM    H1T14196   5.647   1.150   6.335 -2.5608 -0.8823  4.2778
  132OSM     NF14197   5.515   1.179   6.567 -0.0912  0.0331 -0.5253
  132OSM    HNF14198   5.443   1.111   6.557 -0.4699 -0.0132  1.8693
  132OSM    C2S14199   5.520   1.274   6.460  0.0917  0.1427  0.3924
  132OSM    H2S14200   5.539   1.372   6.507 -1.1897 -0.0709  1.4113
  132OSM    C3S14201   5.390   1.279   6.376  0.2163  0.5358  0.1500
  132OSM    H3S14202   5.377   1.173   6.345  2.0364 -0.0330  1.2122
  132OSM     O314203   5.393   1.374   6.271  0.0253 -0.4016 -0.5447
  132OSM    HO314204   5.485   1.366   6.247 -0.2680 -0.0270 -1.9258
  132OSM    C4S14205   5.277   1.304   6.473  0.1257  0.2214 -0.1742
  132OSM    H4S14206   5.244   1.210   6.520  1.5388  0.1159  0.6791
  132OSM    C5S14207   5.211   1.420   6.504  0.5417  0.6945 -0.0685
  132OSM    H5S14208   5.236   1.512   6.448  1.1438 -0.4044 -1.6763
  132OSM    C6S14209   5.101   1.427   6.606  0.6333 -0.3388  0.3246
  132OSM    H6S14210   5.004   1.446   6.556  1.0961 -0.1902 -0.5455
  132OSM    H6T14211   5.112   1.512   6.677  2.8230 -1.5985  1.6386
  132OSM    C7S14212   5.080   1.315   6.702 -0.2656  0.7601 -0.5973
  132OSM    H7S14213   5.058   1.223   6.643  1.2631 -2.0331  2.7675
  132OSM    H7T14214   4.992   1.334   6.766  0.0135  1.8251 -0.5232
  132OSM    C8S14215   5.205   1.294   6.785  0.3601  0.8412  0.2809
  132OSM    H8S14216   5.250   1.394   6.803 -0.3843  1.4042 -0.8470
  132OSM    H8T14217   5.283   1.243   6.724 -0.5639  0.8468 -0.9432
  132OSM    C9S14218   5.184   1.219   6.920 -0.2510  0.3067  0.0086
  132OSM    H9S14219   5.168   1.109   6.915 -0.3335  0.1135  2.9048
  132OSM    H9T14220   5.087   1.251   6.963 -1.1130  0.2376 -1.7692
  132OSM   C10S14221   5.305   1.242   7.009 -0.5582  0.5301  0.3686
  132OSM   H10S14222   5.332   1.349   7.019  2.0291  0.2005 -1.7685
  132OSM   H10T14223   5.394   1.203   6.954 -0.0614  0.5357  1.1452
  132OSM   C11S14224   5.296   1.187   7.154  0.4661  0.3915  0.0043
  132OSM   H11S14225   5.266   1.083   7.131 -1.4550  0.5892  1.3211
  132OSM   H11T14226   5.210   1.238   7.203 -0.1357 -0.2951 -0.3265
  132OSM   C12S14227   5.418   1.192   7.245 -0.2889 -0.1052 -0.2734
  132OSM   H12S14228   5.429   1.302   7.260 -2.2259 -0.0851  1.3148
  132OSM   H12T14229   5.512   1.164   7.192 -1.2528 -0.7143 -1.7166
  132OSM   C13S14230   5.375   1.104   7.366 -0.4583  0.3801 -0.6382
  132OSM   H13S14231   5.365   0.996   7.342  0.3075 -0.2076  1.4747
  132OSM   H13T14232   5.275   1.140   7.399  0.0119  1.0578  0.0686
  132OSM   C14S14233   5.487   1.122   7.476  0.0876  0.1067 -0.7440
  132OSM   H14S14234   5.499   1.230   7.502  1.6919 -0.3937  0.7254
  132OSM   H14T14235   5.573   1.066   7.434 -1.2004 -0.9478 -2.1110
  132OSM   C15S14236   5.459   1.055   7.608 -0.2671  0.0939  0.5080
  132OSM   H15S14237   5.479   0.946   7.608  3.1919  0.6081  1.6462
  132OSM   H15T14238   5.355   1.078   7.639  0.1826  2.4239  0.4647
  132OSM   C16S14239   5.552   1.106   7.722  0.5409 -0.0354 -0.6987
  132OSM   H16S14240   5.555   1.217   7.729  1.8694 -0.1412  1.0879
  132OSM   H16T14241   5.655   1.067   7.707  0.0918 -1.2843 -0.6690
  132OSM   C17S14242   5.512   1.057   7.857  0.7542  0.3542  0.3838
  132OSM   H17S14243   5.545   0.951   7.864  1.5626  0.7173  3.8485
  132OSM   H17T14244   5.402   1.057   7.873  0.4094  2.5760 -1.5468
  132OSM   C18S14245   5.560   1.139   7.976  0.6800  0.3008  0.0858
  132OSM   H18S14246   5.507   1.088   8.060  1.2457 -0.7208 -0.1623
  132OSM   H18T14247   5.535   1.247   7.984  1.2881  0.5091 -0.6740
  132OSM   H18U14248   5.668   1.128   7.998  0.3852 -2.0681  0.6017
  132OSM    C1F14249   5.598   1.180   6.673  0.3272 -0.7386 -0.1319
  132OSM     OF14250   5.677   1.270   6.694 -0.3467 -0.3994 -0.2072
  132OSM    C2F14251   5.598   1.056   6.752  0.8067  0.0830  0.4044
  132OSM    H2F14252   5.642   0.975   6.689 -0.1406 -0.5463  0.5211
  132OSM    H2G14253   5.493   1.020   6.765  1.3377 -2.1028 -0.8388
  132OSM    C3F14254   5.670   1.075   6.881 -0.4539  0.3617 -0.2061
  132OSM    H3F14255   5.627   1.166   6.929  2.0569  2.1138 -1.0681
  132OSM    H3G14256   5.776   1.091   6.852 -1.0394  3.1738 -1.1009
  132OSM    C4F14257   5.669   0.960   6.983 -0.1042  0.0691  0.3633
  132OSM    H4F14258   5.718   0.998   7.076  1.1963  0.1624 -0.3259
  132OSM    H4G14259   5.735   0.885   6.933  2.4089  2.7450 -0.6773
  132OSM    C5F14260   5.540   0.884   7.015 -0.0056 -0.3334  0.6780
  132OSM    H5F14261   5.518   0.811   6.934  1.0666 -0.1995  0.2481
  132OSM    H5G14262   5.462   0.963   7.007  1.1749  0.7014 -2.1921
  132OSM    C6F14263   5.544   0.813   7.155 -0.1679  0.2396  0.1995
  132OSM    H6F14264   5.579   0.883   7.233  0.7013  2.5336 -2.0764
  132OSM    H6G14265   5.626   0.738   7.148  0.5116  1.0703 -1.4179
  132OSM    C7F14266   5.407   0.748   7.190 -0.0729 -0.1544 -0.2191
  132OSM    H7F14267   5.377   0.669   7.119 -1.5178 -0.3792  0.6002
  132OSM    H7G14268   5.333   0.828   7.167  0.6717 -0.4772 -4.5378
  132OSM    C8F14269   5.393   0.686   7.335  0.1427 -0.4193  0.0661
  132OSM    H8F14270   5.289   0.648   7.334 -0.2078  0.5409 -0.5607
  132OSM    H8G14271   5.407   0.768   7.409  1.0142 -1.5361  1.1858
  132OSM    C9F14272   5.502   0.593   7.376 -0.8635  0.1516 -0.1925
  132OSM    H9F14273   5.600   0.637   7.398 -0.7326 -0.3098  0.1618
  132OSM   C10F14274   5.487   0.462   7.379 -0.5841  0.5608 -0.5677
  132OSM   H10F14275   5.571   0.414   7.431 -1.2263 -1.6016 -1.3916
  132OSM   C11F14276   5.354   0.390   7.371 -0.5351 -0.5485  0.2252
  132OSM   H11F14277   5.376   0.283   7.350  1.2436  0.1820 -1.9737
  132OSM   H11G14278   5.301   0.425   7.280  2.3884  1.6823 -0.7796
  132OSM   C12F14279   5.272   0.406   7.501  0.3302 -0.2022  0.3328
  132OSM   H12F14280   5.247   0.514   7.507  0.4638 -0.2622  3.0186
  132OSM   H12G14281   5.337   0.403   7.591 -0.4702 -2.0001  0.9054
  132OSM   C13F14282   5.153   0.316   7.531  0.4527  0.6070  0.5429
  132OSM   H13F14283   5.199   0.221   7.566  1.7151  1.1665  0.4762
  132OSM   H13G14284   5.104   0.294   7.434  0.0650  0.3252  0.7994
  132OSM   C14F14285   5.063   0.377   7.637  0.2534 -0.4958  0.2529
  132OSM   H14F14286   5.006   0.468   7.607 -1.3134 -0.1328  3.9069
  132OSM   H14G14287   5.124   0.415   7.722 -0.1500  0.4297  0.1461
  132OSM   C15F14288   4.973   0.270   7.705 -0.0778  0.0836  0.7595
  132OSM   H15F14289   4.914   0.205   7.637 -0.9969  0.3642  1.2562
  132OSM   H15G14290   4.901   0.331   7.764 -0.6290  2.4966 -2.1488
  132OSM   C16F14291   5.054   0.179   7.798 -0.2650 -0.1243  0.0885
  132OSM   H16F14292   5.122   0.120   7.731  1.3362  1.2927  0.3889
  132OSM   H16G14293   4.988   0.097   7.834  0.6907 -0.6007  0.7978
  132OSM   C17F14294   5.135   0.244   7.914  0.4047 -0.2889 -0.6842
  132OSM   H17F14295   5.061   0.307   7.968  2.0936  1.3941 -0.2177
  132OSM   H17G14296   5.211   0.316   7.876  0.2779  0.6689  0.7695
  132OSM   C18F14297   5.208   0.136   8.006  0.8869 -0.0632 -0.7016
  132OSM   H18F14298   5.264   0.182   8.090  0.8298 -0.0884 -0.6499
  132OSM   H18G14299   5.284   0.080   7.948  1.5499  1.3164 -1.1958
  132OSM   H18H14300   5.137   0.062   8.050  2.1933 -0.4828  0.7789
  133SAPE     N14301   0.581   6.419  10.914  0.1836 -0.9271 -0.0454
  133SAPE   HN114302   0.596   6.335  10.974 -1.7648 -1.9026 -0.8342
  133SAPE   HN214303   0.663   6.482  10.905 -0.3381 -0.2778 -0.3155
  133SAPE   HN314304   0.514   6.480  10.965  0.6083  0.6152 -1.2332
  133SAPE   C1214305   0.535   6.388  10.770  0.1188 -0.7015  0.3696
  133SAPE  H12A14306   0.428   6.357  10.780 -0.8421  1.6471 -1.6669
  133SAPE  H12B14307   0.603   6.311  10.729  1.8156  0.1385  1.5180
  133SAPE   C1114308   0.541   6.515  10.686  0.0732  0.4023 -0.1495
  133SAPE  H11A14309   0.523   6.465  10.589  1.1238 -0.9783  0.3293
  133SAPE  H11B14310   0.644   6.555  10.681  0.2680 -0.1514 -0.7301
  133SAPE     P14311   0.486   6.775  10.712  0.5315  0.0214  0.0528
  133SAPE   O1314312   0.361   6.847  10.759 -0.2887  0.3539  0.4216
  133SAPE   O1414313   0.614   6.797  10.780 -0.1034 -0.0473 -0.0101
  133SAPE   O1214314   0.453   6.621  10.724 -0.2583  0.2016  0.0241
  133SAPE   O1114315   0.511   6.803  10.562 -0.3609  0.0673  0.0016
  133SAPE    C114316   0.443   6.726  10.460 -0.1736  0.5355  0.1411
  133SAPE    HA14317   0.500   6.632  10.448 -0.1099  0.5682  0.1911
  133SAPE    HB14318   0.341   6.693  10.491 -0.2928 -1.3218 -1.9859
  133SAPE    C214319   0.441   6.797  10.325 -0.7001 -0.0711 -0.9849
  133SAPE    HS14320   0.345   6.774  10.275  0.2171 -1.2217 -2.3039
  133SAPE   O2114321   0.550   6.749  10.251  0.0071 -0.6082 -0.1820
  133SAPE   C2114322   0.529   6.641  10.172  0.3342 -0.2769 -0.0883
  133SAPE   O2214323   0.421   6.582  10.175  0.2889 -0.2275  0.0770
  133SAPE   C2214324   0.656   6.603  10.098  0.2290 -0.8798 -1.2322
  133SAPE   H2R14325   0.736   6.676  10.121 -0.6799  0.0968 -1.0700
  133SAPE   H2S14326   0.689   6.504  10.136 -1.1133 -0.9588 -0.1866
  133SAPE    C314327   0.454   6.953  10.339  0.1661  0.2289  0.6080
  133SAPE    HX14328   0.546   6.986  10.392 -0.9084  3.5798  0.6484
  133SAPE    HY14329   0.366   6.982  10.401 -0.3260  2.2195 -0.9142
  133SAPE   O3114330   0.422   7.019  10.217 -0.0467 -0.4499  0.4215
  133SAPE   C3114331   0.529   7.026  10.132  0.3240 -0.2635  0.1303
  133SAPE   O3214332   0.647   7.012  10.158  0.3683  0.4081  0.3532
  133SAPE   C3214333   0.475   7.079   9.994 -0.0194 -0.1334 -0.4035
  133SAPE   H2X14334   0.415   7.170  10.014  0.6679  0.2159  0.0963
  133SAPE   H2Y14335   0.411   6.995   9.959  2.9307 -1.9324 -1.9179
  133SAPE   C2314336   0.639   6.607   9.945 -0.3134  0.0899 -0.2202
  133SAPE   H3R14337   0.542   6.558   9.922 -0.9081  1.3096 -0.4153
  133SAPE   H3S14338   0.718   6.545   9.896  0.0214 -0.2618  0.7501
  133SAPE   C2414339   0.643   6.740   9.874 -0.1158  0.6242 -0.3142
  133SAPE   H4R14340   0.570   6.816   9.909  1.9392  2.8359 -0.5732
  133SAPE   H4S14341   0.614   6.729   9.767 -0.9076  1.2022 -0.1687
  133SAPE   C2514342   0.785   6.802   9.883 -0.3849 -0.1963  0.0504
  133SAPE   H5R14343   0.817   6.839   9.982 -0.2606 -1.7205  0.6207
  133SAPE   C2614344   0.877   6.813   9.777 -0.1748 -0.5007  0.3260
  133SAPE   H6R14345   0.971   6.865   9.797 -0.4850  1.0780 -2.0036
  133SAPE   C2714346   0.847   6.764   9.636 -0.2346 -0.6407  0.4692
  133SAPE   H7R14347   0.768   6.825   9.587 -0.4097 -2.1859 -1.2940
  133SAPE   H7S14348   0.804   6.663   9.650  0.5561 -0.9038  1.1085
  133SAPE   C2814349   0.969   6.763   9.544 -0.5712  0.1457 -0.3322
  133SAPE   H8R14350   1.063   6.729   9.589 -0.2050 -0.2542 -1.3786
  133SAPE   C2914351   0.979   6.790   9.412 -0.4059  0.5431  0.3307
  133SAPE   H9R14352   1.079   6.794   9.367 -1.0046  2.8147 -0.9536
  133SAPE  C21014353   0.869   6.821   9.311 -0.3225  0.0009  0.2580
  133SAPE  H10R14354   0.910   6.892   9.236 -0.4270 -2.0518 -1.8127
  133SAPE  H10S14355   0.781   6.866   9.363 -1.5609 -1.3769 -0.5990
  133SAPE  C21114356   0.813   6.709   9.240 -0.0636 -0.0992 -0.1242
  133SAPE  H11R14357   0.750   6.657   9.314  2.4673  0.2601  2.4361
  133SAPE  C21214358   0.826   6.675   9.109  0.5375 -0.3939  0.9025
  133SAPE  H12R14359   0.774   6.584   9.075  3.3105 -2.4820  1.8213
  133SAPE  C21314360   0.906   6.755   9.003 -0.5149 -0.1053  0.1785
  133SAPE  H13R14361   0.993   6.691   8.978  0.4992 -0.6441  4.3330
  133SAPE  H13S14362   0.949   6.854   9.031  0.7362 -0.4008 -0.6214
  133SAPE  C21414363   0.826   6.770   8.873 -0.0851  0.3001  0.1133
  133SAPE  H14R14364   0.788   6.873   8.866  0.1501  0.2620 -2.6490
  133SAPE  C21514365   0.800   6.684   8.771 -0.2243  0.2628 -0.3689
  133SAPE  H15R14366   0.756   6.715   8.674  0.4236  1.4837 -0.2989
  133SAPE  C21614367   0.851   6.543   8.767  0.6297 -0.3924  0.2804
  133SAPE  H16R14368   0.766   6.477   8.740 -0.7138  1.2150  0.4129
  133SAPE  H16S14369   0.901   6.511   8.861  1.9340  2.2602  0.5764
  133SAPE  C21714370   0.960   6.519   8.659 -0.3052  0.0757  0.4505
  133SAPE  H17R14371   0.922   6.568   8.567 -1.1289 -1.5085 -0.1062
  133SAPE  H17S14372   0.975   6.415   8.623 -0.3282  0.4022 -0.5099
  133SAPE  C21814373   1.100   6.569   8.688  0.2242 -0.1389 -0.4824
  133SAPE  H18R14374   1.150   6.515   8.772  0.0253  1.0970  0.4672
  133SAPE  H18S14375   1.090   6.671   8.731  0.1068  0.1607 -1.2135
  133SAPE  C21914376   1.194   6.581   8.566  0.4870  0.0011  0.3908
  133SAPE  H19R14377   1.284   6.642   8.590  0.9682 -0.4680 -0.1887
  133SAPE  H19S14378   1.129   6.642   8.500  2.6597 -0.4778 -2.4140
  133SAPE  C22014379   1.240   6.454   8.498  0.4868  0.0625 -0.4388
  133SAPE  H20R14380   1.349   6.461   8.478  0.2334  0.2452 -1.8641
  133SAPE  H20S14381   1.186   6.426   8.405  0.6064 -0.2843 -0.4070
  133SAPE  H20T14382   1.226   6.372   8.572  1.4070  1.8928  1.8903
  133SAPE   C3314383   0.584   7.128   9.905  0.0849 -0.2392 -0.4042
  133SAPE   H3X14384   0.685   7.081   9.916 -0.4539 -1.3782 -0.1102
  133SAPE   H3Y14385   0.603   7.235   9.927 -0.7900 -0.5448  2.1101
  133SAPE   C3414386   0.539   7.129   9.758 -0.6302 -0.1659  0.4681
  133SAPE   H4X14387   0.476   7.221   9.759  2.6180  2.2594 -0.1668
  133SAPE   H4Y14388   0.478   7.046   9.718 -0.9930  0.4994 -0.3867
  133SAPE   C3514389   0.648   7.150   9.649 -0.0799  0.0951  0.0941
  133SAPE   H5X14390   0.725   7.072   9.669  0.4330  0.2346 -1.2312
  133SAPE   H5Y14391   0.698   7.247   9.667 -1.6842  0.5896  2.3384
  133SAPE   C3614392   0.593   7.142   9.509 -0.1904 -0.2944  0.0834
  133SAPE   H6X14393   0.495   7.193   9.490  1.0108  1.0607 -3.3279
  133SAPE   H6Y14394   0.570   7.034   9.499  2.4672 -0.7803 -1.7768
  133SAPE   C3714395   0.695   7.193   9.406  0.1337 -0.1103 -0.0068
  133SAPE   H7X14396   0.795   7.153   9.435 -0.0390  0.1881  1.0388
  133SAPE   H7Y14397   0.700   7.303   9.415  0.2763 -0.1689  0.6810
  133SAPE   C3814398   0.666   7.148   9.263 -0.2633  0.9255  0.4828
  133SAPE   H8X14399   0.571   7.201   9.238 -0.8003  0.0757  0.6940
  133SAPE   H8Y14400   0.649   7.040   9.243 -0.8578  0.6211  2.4272
  133SAPE   C3914401   0.777   7.182   9.167  0.1899 -0.2432 -0.0295
  133SAPE   H9X14402   0.860   7.120   9.207 -0.7772 -1.3262  0.3685
  133SAPE   H9Y14403   0.809   7.288   9.165  1.4984 -0.6210 -1.4302
  133SAPE  C31014404   0.759   7.139   9.026  0.1764  0.0671  0.9748
  133SAPE  H10X14405   0.734   7.030   9.025 -0.2184  0.1475 -0.6074
  133SAPE  H10Y14406   0.849   7.147   8.962 -0.3713 -0.2441  0.1519
  133SAPE  C31114407   0.630   7.198   8.968  0.0976  0.1159 -0.2850
  133SAPE  H11X14408   0.653   7.307   8.960  0.3525  0.2172  1.4952
  133SAPE  H11Y14409   0.549   7.186   9.043 -1.8638  0.2758 -2.2626
  133SAPE  C31214410   0.589   7.134   8.836 -0.3266 -0.3424  0.5218
  133SAPE  H12X14411   0.489   7.175   8.808 -1.1267 -1.1572  2.0246
  133SAPE  H12Y14412   0.569   7.030   8.869 -2.0175  0.4389  2.1649
  133SAPE  C31314413   0.689   7.140   8.725 -0.6498  1.1702  0.2560
  133SAPE  H13X14414   0.790   7.123   8.767 -1.5690 -1.4553  1.6039
  133SAPE  H13Y14415   0.692   7.249   8.703  0.2054  1.1514  0.2452
  133SAPE  C31414416   0.654   7.055   8.604 -0.0123 -0.8449  0.1729
  133SAPE  H14X14417   0.618   6.957   8.642 -1.5203 -0.6912 -0.7825
  133SAPE  H14Y14418   0.745   7.049   8.540 -0.7209  0.5396 -1.0322
  133SAPE  C31514419   0.536   7.108   8.528  0.0091 -0.2577 -0.3186
  133SAPE  H15X14420   0.564   7.207   8.485 -1.0828  1.4385  2.5679
  133SAPE  H15Y14421   0.447   7.134   8.589 -0.3115 -0.8640 -0.5181
  133SAPE  C31614422   0.499   7.007   8.413 -0.0603 -0.1256  0.0703
  133SAPE  H16X14423   0.479   6.905   8.451  0.3184 -0.9901 -1.9177
  133SAPE  H16Y14424   0.593   6.999   8.355  0.2218 -1.2456  0.6499
  133SAPE  C31714425   0.375   7.047   8.333 -0.0703 -0.1309 -0.4936
  133SAPE  H17X14426   0.398   7.139   8.275  2.0357  0.1226  0.6240
  133SAPE  H17Y14427   0.287   7.070   8.397 -1.0721  2.1559 -2.5542
  133SAPE  C31814428   0.335   6.938   8.235  0.3268 -0.2194 -0.1582
  133SAPE  H18X14429   0.356   6.837   8.276 -2.1425  0.1041  2.0948
  133SAPE  H18Y14430   0.383   6.937   8.134  0.5123 -1.0527 -0.0655
  133SAPE  H18Z14431   0.225   6.943   8.224  0.4300  2.8178 -0.5634
  134SAPE     N14432   3.182   1.732  10.607  0.1828 -0.4491  0.1762
  134SAPE   HN114433   3.198   1.822  10.556 -0.1868 -0.1909  0.5140
  134SAPE   HN214434   3.270   1.691  10.645  1.7919  1.5846 -1.1227
  134SAPE   HN314435   3.129   1.661  10.552  0.5446 -0.9571  0.4718
  134SAPE   C1214436   3.089   1.748  10.723 -0.6683  0.4491  0.3701
  134SAPE  H12A14437   2.987   1.780  10.691 -0.1328  0.9305 -0.9050
  134SAPE  H12B14438   3.130   1.817  10.799 -3.2674  0.0921  2.2380
  134SAPE   C1114439   3.073   1.606  10.791  0.0416  0.6422 -0.6516
  134SAPE  H11A14440   2.978   1.608  10.849  0.7704 -1.3936  0.7190
  134SAPE  H11B14441   3.158   1.586  10.859 -0.4478  1.3511  0.1884
  134SAPE     P14442   2.959   1.466  10.585 -0.0279 -0.4489  0.1577
  134SAPE   O1314443   3.008   1.345  10.517 -0.1768 -0.1800  0.1829
  134SAPE   O1414444   2.818   1.471  10.628  0.3295 -0.5110 -0.3891
  134SAPE   O1214445   3.062   1.497  10.695  0.1297 -0.3018  0.1309
  134SAPE   O1114446   2.988   1.587  10.492  0.2835 -0.3485 -0.0252
  134SAPE    C114447   2.891   1.633  10.401 -0.2477  0.3045 -0.0145
  134SAPE    HA14448   2.786   1.607  10.427 -0.6151  1.8691  0.1352
  134SAPE    HB14449   2.895   1.743  10.412 -0.3507  0.4437 -1.2249
  134SAPE    C214450   2.929   1.601  10.251 -0.2767  0.5656  0.2422
  134SAPE    HS14451   2.850   1.663  10.204 -0.0293  1.2876  0.7715
  134SAPE   O2114452   2.912   1.461  10.230  0.3925 -0.0447 -0.1560
  134SAPE   C2114453   2.844   1.427  10.120  0.3418 -0.7585 -0.1306
  134SAPE   O2214454   2.796   1.511  10.038 -0.1191  0.3168  0.1355
  134SAPE   C2214455   2.841   1.273  10.105  0.3140  0.3700 -0.3049
  134SAPE   H2R14456   2.947   1.243  10.089  0.7298  1.9489 -0.6875
  134SAPE   H2S14457   2.803   1.226  10.199  1.4366 -0.4543 -0.2456
  134SAPE    C314458   3.069   1.655  10.207 -0.2193 -0.0993  0.0597
  134SAPE    HX14459   3.127   1.580  10.264  0.8373 -0.5354 -1.5214
  134SAPE    HY14460   3.090   1.757  10.247 -1.7094  0.7325 -1.1822
  134SAPE   O3114461   3.092   1.645  10.069 -0.1019  0.2579  0.2460
  134SAPE   C3114462   3.014   1.732   9.999 -0.8415 -0.0579  0.5734
  134SAPE   O3214463   2.955   1.825  10.048 -0.2631 -1.1497  0.4245
  134SAPE   C3214464   3.028   1.708   9.849  0.0080  0.9854  0.3224
  134SAPE   H2X14465   2.966   1.620   9.822 -1.2607  2.0293 -0.2737
  134SAPE   H2Y14466   3.136   1.702   9.823  0.0333  2.2333  0.0946
  134SAPE   C2314467   2.751   1.224   9.985 -0.1291  0.3589  0.6467
  134SAPE   H3R14468   2.773   1.290   9.897  0.1285 -0.7369 -0.1282
  134SAPE   H3S14469   2.645   1.231  10.018  0.0912  3.1572  1.0684
  134SAPE   C2414470   2.782   1.084   9.940  0.5229  0.3188  0.4502
  134SAPE   H4R14471   2.700   1.053   9.871  2.6462 -1.7830 -1.3071
  134SAPE   H4S14472   2.783   1.017  10.028  1.2109  1.1374  1.0824
  134SAPE   C2514473   2.925   1.071   9.874  0.8274  0.0872 -0.4076
  134SAPE   H5R14474   3.006   1.064   9.948 -0.8670  0.3484  1.5694
  134SAPE   C2614475   2.950   1.069   9.737 -0.0787 -0.8714  0.4445
  134SAPE   H6R14476   3.056   1.084   9.714  0.2598 -2.9439  0.4455
  134SAPE   C2714477   2.860   1.072   9.614  0.0405 -0.1439 -0.1284
  134SAPE   H7R14478   2.773   1.005   9.635  2.2085 -3.0468  0.3265
  134SAPE   H7S14479   2.908   1.019   9.530 -1.4082 -0.7902 -0.5889
  134SAPE   C2814480   2.813   1.216   9.580 -0.0108 -0.4733  0.6133
  134SAPE   H8R14481   2.796   1.289   9.661  5.1700  0.4397  1.2230
  134SAPE   C2914482   2.789   1.258   9.451 -0.7233 -0.8280 -0.6007
  134SAPE   H9R14483   2.746   1.359   9.443 -0.6651 -0.2595  3.7524
  134SAPE  C21014484   2.808   1.179   9.323 -0.1439 -0.8427  0.6115
  134SAPE  H10R14485   2.831   1.072   9.341  0.2748 -0.8542  0.0194
  134SAPE  H10S14486   2.897   1.224   9.274 -0.6565  2.0047  2.0677
  134SAPE  C21114487   2.687   1.181   9.232  0.5769  0.9635  0.5073
  134SAPE  H11R14488   2.617   1.107   9.275 -0.5370  1.7233  0.0592
  134SAPE  C21214489   2.657   1.247   9.114  0.4419  0.3553 -0.5331
  134SAPE  H12R14490   2.561   1.224   9.067 -0.8397 -1.2246  2.5231
  134SAPE  C21314491   2.746   1.343   9.042  0.1476  0.4773 -0.2681
  134SAPE  H13R14492   2.846   1.360   9.086 -1.1716  0.4427  3.0344
  134SAPE  H13S14493   2.696   1.442   9.047  0.2735  0.5181  0.2680
  134SAPE  C21414494   2.755   1.295   8.899 -0.5605 -0.1493 -0.0456
  134SAPE  H14R14495   2.759   1.185   8.887 -2.0616 -0.1083 -1.0904
  134SAPE  C21514496   2.762   1.375   8.787  0.1533 -0.7161 -0.1721
  134SAPE  H15R14497   2.779   1.326   8.690 -1.1733 -2.6008  0.4916
  134SAPE  C21614498   2.774   1.524   8.788  0.4638  0.5616  0.5191
  134SAPE  H16R14499   2.836   1.550   8.699  0.9319 -2.6051 -0.2115
  134SAPE  H16S14500   2.827   1.564   8.876  1.0157  1.3046 -0.1403
  134SAPE  C21714501   2.636   1.587   8.771  0.3707  0.2833  0.2743
  134SAPE  H17R14502   2.564   1.547   8.846 -0.0476 -1.3964 -0.9706
  134SAPE  H17S14503   2.589   1.550   8.677 -0.3628  0.7521  0.4430
  134SAPE  C21814504   2.637   1.735   8.779  0.1356 -0.0844 -0.0332
  134SAPE  H18R14505   2.623   1.771   8.883 -1.7204  1.0110 -0.6016
  134SAPE  H18S14506   2.540   1.770   8.736 -0.0928  0.5995  1.0075
  134SAPE  C21914507   2.740   1.815   8.699 -0.2978  0.4601  0.5578
  134SAPE  H19R14508   2.743   1.771   8.597  1.2183 -1.3463  1.3351
  134SAPE  H19S14509   2.843   1.804   8.737  0.8664  0.2883 -2.3641
  134SAPE  C22014510   2.696   1.964   8.678 -0.4906  0.5559  0.0103
  134SAPE  H20R14511   2.686   2.002   8.782 -0.5318 -1.5404  0.8006
  134SAPE  H20S14512   2.602   1.960   8.618 -0.4914 -2.8398  0.0978
  134SAPE  H20T14513   2.777   2.021   8.627 -2.1867  2.0069 -1.2342
  134SAPE   C3314514   2.971   1.819   9.755 -0.1314  0.6886  0.8442
  134SAPE   H3X14515   3.021   1.915   9.780 -1.3764  1.4259  0.5568
  134SAPE   H3Y14516   2.864   1.842   9.772 -1.3514 -0.2334 -4.1367
  134SAPE   C3414517   3.003   1.778   9.610  0.7184 -0.8314  0.1464
  134SAPE   H4X14518   2.958   1.678   9.594 -1.0338 -0.2824  1.3449
  134SAPE   H4Y14519   3.112   1.763   9.596  0.8877 -0.4673  1.0273
  134SAPE   C3514520   2.962   1.881   9.501 -0.1449 -0.6215  0.1085
  134SAPE   H5X14521   3.005   1.982   9.518  1.3177 -0.9951 -1.1037
  134SAPE   H5Y14522   2.852   1.896   9.505 -0.6359 -3.1469 -1.2913
  134SAPE   C3614523   2.999   1.838   9.356  0.2492  0.1557  0.3230
  134SAPE   H6X14524   2.972   1.731   9.347 -0.5444  0.3117  0.8229
  134SAPE   H6Y14525   3.108   1.850   9.337  0.5859 -1.3020  1.2549
  134SAPE   C3714526   2.916   1.923   9.257 -0.1941 -0.3882  0.0230
  134SAPE   H7X14527   2.940   2.030   9.275 -1.4736  0.0892 -0.9350
  134SAPE   H7Y14528   2.810   1.922   9.291  0.6115  0.8245  2.8464
  134SAPE   C3814529   2.930   1.890   9.108  0.0094  0.5735 -0.2702
  134SAPE   H8X14530   2.891   1.981   9.057  3.0388  2.0052 -0.2463
  134SAPE   H8Y14531   2.861   1.806   9.083 -1.5476  2.0116 -1.0141
  134SAPE   C3914532   3.069   1.862   9.051 -0.0781 -0.0417  0.9216
  134SAPE   H9X14533   3.115   1.778   9.107  0.2595  0.7894  1.9348
  134SAPE   H9Y14534   3.128   1.955   9.069 -0.8687  0.6864 -0.1787
  134SAPE  C31014535   3.066   1.856   8.897 -0.3158  0.2838  0.0978
  134SAPE  H10X14536   3.005   1.940   8.859  1.4801  0.9779 -1.3933
  134SAPE  H10Y14537   3.014   1.761   8.871  0.6139 -0.3385  0.4409
  134SAPE  C31114538   3.195   1.881   8.825  0.0588  0.5771 -0.1271
  134SAPE  H11X14539   3.266   1.798   8.845 -0.9570 -0.1073  0.7241
  134SAPE  H11Y14540   3.234   1.971   8.878 -1.5486  1.1078  0.2119
  134SAPE  C31214541   3.185   1.881   8.673  0.4511  0.1501 -1.0024
  134SAPE  H12X14542   3.142   1.974   8.628  1.2197  0.2355 -1.5869
  134SAPE  H12Y14543   3.118   1.799   8.639 -1.2636  1.1395 -0.1950
  134SAPE  C31314544   3.330   1.878   8.610  0.7354  0.2482  0.4307
  134SAPE  H13X14545   3.299   1.875   8.503 -4.1358  1.8157  1.5309
  134SAPE  H13Y14546   3.388   1.792   8.650  0.1948 -0.2938  0.0685
  134SAPE  C31414547   3.410   2.001   8.647 -0.7160  0.1398 -0.2786
  134SAPE  H14X14548   3.431   2.012   8.756  2.1072  0.5754 -0.8060
  134SAPE  H14Y14549   3.343   2.086   8.620 -0.0518  1.8613  2.9617
  134SAPE  C31514550   3.549   2.019   8.582  0.3938 -0.9139  0.5016
  134SAPE  H15X14551   3.618   1.945   8.627  0.6634 -1.1160 -0.2275
  134SAPE  H15Y14552   3.590   2.118   8.610 -0.2744 -1.1464  2.4760
  134SAPE  C31614553   3.555   1.980   8.436 -0.4960 -0.5358 -0.0114
  134SAPE  H16X14554   3.507   1.881   8.419 -0.8180 -0.5669  1.0150
  134SAPE  H16Y14555   3.659   1.988   8.396 -1.3113 -2.1977 -2.7381
  134SAPE  C31714556   3.485   2.085   8.344 -0.1932  0.2036  0.3269
  134SAPE  H17X14557   3.532   2.183   8.367 -1.5387  0.3187  3.0206
  134SAPE  H17Y14558   3.382   2.101   8.383 -1.3116 -1.6799 -1.6570
  134SAPE  C31814559   3.479   2.052   8.198 -0.5297 -0.4559  0.2084
  134SAPE  H18X14560   3.452   1.944   8.192  0.4441 -0.6878 -0.1119
  134SAPE  H18Y14561   3.581   2.057   8.154 -0.7575  0.0130 -0.2783
  134SAPE  H18Z14562   3.402   2.109   8.140  0.8940  2.7201  1.2172
  135SAPE     N14563   2.182   6.625  10.470 -0.1017 -0.5186 -0.2706
  135SAPE   HN114564   2.262   6.654  10.529 -0.0934 -0.6272 -0.2281
  135SAPE   HN214565   2.220   6.571  10.390  0.3091 -0.8634  0.1585
  135SAPE   HN314566   2.136   6.709  10.428 -0.4023 -0.7395 -0.3869
  135SAPE   C1214567   2.082   6.547  10.555 -0.2275 -0.3538  0.5897
  135SAPE  H12A14568   2.006   6.505  10.484 -1.1422 -0.2238  1.4695
  135SAPE  H12B14569   2.033   6.628  10.613 -0.8077  0.7939 -1.4208
  135SAPE   C1114570   2.149   6.442  10.640 -0.1681 -0.1218 -0.4013
  135SAPE  H11A14571   2.073   6.384  10.697  0.4442 -0.6374 -0.0982
  135SAPE  H11B14572   2.215   6.493  10.713 -0.3989  0.4854 -0.6121
  135SAPE     P14573   2.314   6.237  10.619  0.2357 -0.3569  0.4084
  135SAPE   O1314574   2.330   6.255  10.764 -0.0285  0.4544 -0.2892
  135SAPE   O1414575   2.249   6.115  10.574 -0.4639 -0.0463 -0.1955
  135SAPE   O1214576   2.236   6.360  10.555 -0.2817 -0.1165  0.9726
  135SAPE   O1114577   2.453   6.242  10.548 -0.1342  0.6433 -0.4112
  135SAPE    C114578   2.499   6.354  10.469  0.3398  0.8850  0.1257
  135SAPE    HA14579   2.441   6.448  10.483 -1.9716 -0.1785 -1.6153
  135SAPE    HB14580   2.607   6.377  10.485  0.1102  0.8477  2.0023
  135SAPE    C214581   2.494   6.316  10.315  0.5912  0.5211 -0.2298
  135SAPE    HS14582   2.514   6.405  10.251 -0.8076  0.9827 -0.0650
  135SAPE   O2114583   2.364   6.260  10.280 -0.4004 -0.2397 -0.0326
  135SAPE   C2114584   2.268   6.350  10.268  0.6879 -0.4444 -0.0870
  135SAPE   O2214585   2.284   6.473  10.267  0.3444  0.1040  0.4265
  135SAPE   C2214586   2.136   6.271  10.259 -1.0702  0.0074 -0.2421
  135SAPE   H2R14587   2.146   6.179  10.198  0.4667  1.4092 -2.2791
  135SAPE   H2S14588   2.113   6.235  10.361 -0.1784 -2.3317 -0.7972
  135SAPE    C314589   2.613   6.214  10.297  0.4245 -0.7291  0.4137
  135SAPE    HX14590   2.609   6.142  10.382 -1.9342  1.2208  2.1174
  135SAPE    HY14591   2.704   6.275  10.314  0.9228 -0.8112 -1.7753
  135SAPE   O3114592   2.613   6.140  10.177 -0.1250  0.3631 -0.2207
  135SAPE   C3114593   2.611   6.222  10.071 -0.1894  0.1005 -0.2117
  135SAPE   O3214594   2.635   6.345  10.069 -0.2937 -0.0038 -0.0547
  135SAPE   C3214595   2.579   6.140   9.946  0.0458  0.2422 -0.3715
  135SAPE   H2X14596   2.477   6.097   9.952  0.7631 -1.6397 -0.9617
  135SAPE   H2Y14597   2.656   6.060   9.940 -0.5735 -0.4035  0.1168
  135SAPE   C2314598   2.016   6.353  10.199  0.0558 -0.1990 -0.1326
  135SAPE   H3R14599   2.048   6.375  10.095  0.6695  1.0117  0.2934
  135SAPE   H3S14600   2.011   6.445  10.262  1.9093 -0.9368  1.2135
  135SAPE   C2414601   1.877   6.287  10.198  0.1011 -0.6628  0.6221
  135SAPE   H4R14602   1.799   6.361  10.172 -1.9762 -2.6358  0.9838
  135SAPE   H4S14603   1.852   6.260  10.303 -0.5571  0.1399  0.6845
  135SAPE   C2514604   1.860   6.185  10.091 -0.0149  0.2704  1.0409
  135SAPE   H5R14605   1.869   6.220   9.988  0.8755 -0.8810  0.7120
  135SAPE   C2614606   1.813   6.058  10.110  0.5788  0.0787 -0.0412
  135SAPE   H6R14607   1.782   5.992  10.027 -1.3174 -0.1826  0.8128
  135SAPE   C2714608   1.769   5.992  10.243 -0.8635  0.2257 -0.4580
  135SAPE   H7R14609   1.682   6.044  10.287  0.1735  0.8112  0.9797
  135SAPE   H7S14610   1.856   6.018  10.307  0.0271  0.2941 -1.6599
  135SAPE   C2814611   1.761   5.838  10.262  0.3513 -0.3858 -0.4268
  135SAPE   H8R14612   1.838   5.794  10.328  0.9258 -0.1150 -0.8998
  135SAPE   C2914613   1.687   5.753  10.195 -0.3913  0.1325 -0.4048
  135SAPE   H9R14614   1.701   5.649  10.227  1.2628 -0.2684 -2.2532
  135SAPE  C21014615   1.591   5.787  10.083 -0.4018 -0.1618 -0.3051
  135SAPE  H10R14616   1.586   5.898  10.074  1.0821 -0.0026  0.5000
  135SAPE  H10S14617   1.494   5.750  10.122 -0.0262 -1.0278 -0.1624
  135SAPE  C21114618   1.598   5.743   9.937 -0.6179  0.3198  0.0901
  135SAPE  H11R14619   1.500   5.735   9.887  0.6416  2.7104 -3.0108
  135SAPE  C21214620   1.701   5.699   9.862 -0.8484  0.1445  0.1773
  135SAPE  H12R14621   1.675   5.686   9.756 -0.6740 -0.6004  0.2212
  135SAPE  C21314622   1.846   5.685   9.906  0.0269  0.4730  0.1446
  135SAPE  H13R14623   1.885   5.584   9.879 -1.1128  0.1122 -0.2260
  135SAPE  H13S14624   1.856   5.681  10.016  4.1590  0.1868 -0.0948
  135SAPE  C21414625   1.941   5.787   9.847  0.0713  0.6952  0.3592
  135SAPE  H14R14626   1.908   5.892   9.857  0.0936  0.7125  0.2570
  135SAPE  C21514627   2.048   5.755   9.774 -0.4896  0.2489  0.4097
  135SAPE  H15R14628   2.112   5.841   9.747  2.9786 -2.3694 -0.3305
  135SAPE  C21614629   2.095   5.610   9.750 -0.3680 -0.8906 -0.0074
  135SAPE  H16R14630   2.172   5.600   9.671 -0.5106  3.4108 -0.9229
  135SAPE  H16S14631   2.003   5.552   9.729 -0.5470 -0.4811 -0.3853
  135SAPE  C21714632   2.170   5.567   9.878  0.4938 -0.8390  0.2629
  135SAPE  H17R14633   2.136   5.605   9.976  2.1391 -0.0435  0.5615
  135SAPE  H17S14634   2.274   5.602   9.858 -0.2615  1.2733 -0.1936
  135SAPE  C21814635   2.181   5.414   9.889 -0.0319 -0.0110 -0.5215
  135SAPE  H18R14636   2.194   5.387   9.782  0.6324  0.8616 -0.6644
  135SAPE  H18S14637   2.076   5.385   9.911 -0.6056  1.4884 -1.1897
  135SAPE  C21914638   2.288   5.363   9.996  0.3775  0.1425  0.4610
  135SAPE  H19R14639   2.382   5.422   9.982  1.2252 -1.3034 -0.1190
  135SAPE  H19S14640   2.315   5.257   9.978  0.2949  0.1361  0.3714
  135SAPE  C22014641   2.225   5.388  10.129 -0.1993 -0.1213  0.1689
  135SAPE  H20R14642   2.294   5.368  10.213 -0.5460  1.1352  0.7833
  135SAPE  H20S14643   2.127   5.335  10.131  0.2875 -1.0000  1.8783
  135SAPE  H20T14644   2.188   5.492  10.141 -0.6643 -0.0037 -1.8673
  135SAPE   C3314645   2.607   6.215   9.810  0.1273 -0.3803 -0.0778
  135SAPE   H3X14646   2.685   6.291   9.833  0.3072 -0.6521  0.2263
  135SAPE   H3Y14647   2.517   6.278   9.789  1.6724  1.6310 -1.0061
  135SAPE   C3414648   2.642   6.119   9.701 -0.3040  0.4366  0.7309
  135SAPE   H4X14649   2.569   6.036   9.711  1.6574 -1.0672  4.3993
  135SAPE   H4Y14650   2.743   6.073   9.709 -1.3053 -2.7756 -2.5231
  135SAPE   C3514651   2.609   6.175   9.565 -1.2806  0.3073  0.0668
  135SAPE   H5X14652   2.647   6.279   9.551 -0.0760 -0.4418 -3.0509
  135SAPE   H5Y14653   2.502   6.205   9.558 -1.7166 -0.8663  1.2514
  135SAPE   C3614654   2.642   6.079   9.450  0.0997  0.3090 -0.4491
  135SAPE   H6X14655   2.589   5.984   9.473  2.3275 -0.3832  2.3897
  135SAPE   H6Y14656   2.744   6.034   9.453 -0.3955 -0.9271 -1.1123
  135SAPE   C3714657   2.616   6.135   9.310  0.2519 -0.6984 -0.2659
  135SAPE   H7X14658   2.665   6.234   9.300  1.1175 -0.9047  1.4921
  135SAPE   H7Y14659   2.507   6.157   9.310  0.3920  0.0348 -0.0282
  135SAPE   C3814660   2.645   6.046   9.189 -0.5096  0.1801  0.3169
  135SAPE   H8X14661   2.641   5.943   9.231  1.1885 -0.1070 -0.1598
  135SAPE   H8Y14662   2.745   6.073   9.149 -0.5404 -0.7264 -0.4043
  135SAPE   C3914663   2.538   6.042   9.078 -0.4650  0.2278  0.0036
  135SAPE   H9X14664   2.572   5.972   8.998 -0.6040 -0.0002  0.1412
  135SAPE   H9Y14665   2.520   6.142   9.034  2.0679  1.5897  1.8545
  135SAPE  C31014666   2.406   5.992   9.124 -0.5329  0.2429  0.1873
  135SAPE  H10X14667   2.355   6.077   9.174  0.0028 -0.0713  1.3066
  135SAPE  H10Y14668   2.423   5.904   9.190 -2.5077 -0.6531 -0.4047
  135SAPE  C31114669   2.327   5.961   8.997  0.6187  0.2903  0.6644
  135SAPE  H11X14670   2.388   5.893   8.933  0.7043 -1.2059  2.2270
  135SAPE  H11Y14671   2.311   6.054   8.939  1.6792  0.1370  0.1008
  135SAPE  C31214672   2.189   5.896   9.010  0.3270  0.0946 -0.8451
  135SAPE  H12X14673   2.109   5.966   9.044  1.6434  0.7011  1.1657
  135SAPE  H12Y14674   2.194   5.813   9.083 -0.0556  0.6508 -0.1732
  135SAPE  C31314675   2.144   5.848   8.876  0.6120 -0.1115  1.1555
  135SAPE  H13X14676   2.224   5.789   8.827  1.4355 -1.4046  3.8561
  135SAPE  H13Y14677   2.122   5.939   8.816  1.8163  1.3553  2.8282
  135SAPE  C31414678   2.010   5.765   8.877 -0.3008 -0.6182 -0.0495
  135SAPE  H14X14679   1.935   5.819   8.938  1.6841  0.2736  1.7279
  135SAPE  H14Y14680   2.034   5.672   8.933  2.6552  0.5228  0.7900
  135SAPE  C31514681   1.963   5.724   8.739 -0.3749 -0.1262  0.0278
  135SAPE  H15X14682   2.036   5.653   8.694  1.0185  0.9837  0.4533
  135SAPE  H15Y14683   1.959   5.816   8.677  0.6939  0.2839  0.5490
  135SAPE  C31614684   1.822   5.667   8.727 -0.0308 -0.6911 -0.1392
  135SAPE  H16X14685   1.761   5.721   8.803 -0.1207 -0.4299 -0.3960
  135SAPE  H16Y14686   1.817   5.558   8.749 -2.7894 -0.3855  1.1029
  135SAPE  C31714687   1.773   5.682   8.582 -0.1994  0.8647 -0.1795
  135SAPE  H17X14688   1.841   5.635   8.508 -0.6594  0.2868 -0.2418
  135SAPE  H17Y14689   1.754   5.791   8.568  2.2364  1.4186  0.5128
  135SAPE  C31814690   1.646   5.610   8.561  0.2799 -0.2330  0.4256
  135SAPE  H18X14691   1.599   5.665   8.477  1.0844 -1.3420 -0.7737
  135SAPE  H18Y14692   1.587   5.614   8.655 -1.7533  0.3949 -0.8164
  135SAPE  H18Z14693   1.656   5.503   8.534 -0.0889 -0.5472  1.4903
  136SAPE     N14694   5.542   4.821  10.942  0.4800  0.0634  0.4637
  136SAPE   HN114695   5.470   4.836  11.015 -0.2208  3.3691 -0.7670
  136SAPE   HN214696   5.544   4.719  10.923  1.3106  0.0379  0.6464
  136SAPE   HN314697   5.627   4.862  10.986  0.1737 -0.1174  1.2459
  136SAPE   C1214698   5.490   4.895  10.810  0.1630  0.3012  0.1145
  136SAPE  H12A14699   5.395   4.845  10.782  1.5600 -0.8098 -3.2199
  136SAPE  H12B14700   5.564   4.873  10.730 -1.3647  2.2314 -1.9431
  136SAPE   C1114701   5.486   5.046  10.825 -0.4815 -0.0351 -0.0571
  136SAPE  H11A14702   5.472   5.094  10.726 -1.9871 -0.7142 -0.1960
  136SAPE  H11B14703   5.584   5.074  10.868 -0.0715  0.7118 -1.4149
  136SAPE     P14704   5.284   5.203  10.879 -0.1735  0.3297  0.0157
  136SAPE   O1314705   5.192   5.240  10.990 -0.2542 -0.2175  0.1079
  136SAPE   O1414706   5.354   5.322  10.814  0.0987 -0.2150  0.2023
  136SAPE   O1214707   5.387   5.088  10.916  0.6071  0.3049  0.3835
  136SAPE   O1114708   5.201   5.118  10.765  0.3116 -0.1990 -0.1390
  136SAPE    C114709   5.123   5.006  10.799 -0.6019 -0.1156 -0.0065
  136SAPE    HA14710   5.191   4.925  10.834  1.3244  0.9612 -1.0477
  136SAPE    HB14711   5.056   5.028  10.884  1.3763 -1.3504  1.9885
  136SAPE    C214712   5.034   4.965  10.680  0.0530  0.4582  0.0442
  136SAPE    HS14713   4.976   4.875  10.712  0.5738  0.1639  0.1815
  136SAPE   O2114714   5.109   4.930  10.566 -0.1229 -0.3074  0.2590
  136SAPE   C2114715   5.175   4.818  10.571 -0.2182  0.2254 -0.1753
  136SAPE   O2214716   5.168   4.735  10.661  0.4088  0.7369  0.2618
  136SAPE   C2214717   5.232   4.799  10.431  0.1895 -0.3922 -0.3716
  136SAPE   H2R14718   5.179   4.709  10.394  1.2072 -0.8585 -0.7294
  136SAPE   H2S14719   5.205   4.890  10.374 -1.0467 -0.9887 -0.7618
  136SAPE    C314720   4.931   5.083  10.651  0.8620  0.7513 -0.0245
  136SAPE    HX14721   4.986   5.179  10.645  0.3499  1.3120  2.7934
  136SAPE    HY14722   4.865   5.089  10.740  0.7996  3.0362 -0.1736
  136SAPE   O3114723   4.853   5.046  10.539 -0.3856 -0.6339 -0.0128
  136SAPE   C3114724   4.909   5.087  10.427  0.9117  0.4914  0.0828
  136SAPE   O3214725   4.991   5.167  10.408 -0.1896 -1.1092 -0.6923
  136SAPE   C3214726   4.836   4.993  10.320  0.1423  0.3578 -0.2331
  136SAPE   H2X14727   4.725   4.992  10.335 -0.2413  1.7393 -2.5197
  136SAPE   H2Y14728   4.874   4.892  10.347  1.9922  0.8801 -0.7543
  136SAPE   C2314729   5.379   4.767  10.431  0.1528  0.6089 -0.2596
  136SAPE   H3R14730   5.410   4.684  10.498  0.0362  0.6582 -0.1441
  136SAPE   H3S14731   5.446   4.846  10.473  1.2237  1.4609 -3.3346
  136SAPE   C2414732   5.434   4.736  10.286 -0.4927 -0.5699 -0.5046
  136SAPE   H4R14733   5.388   4.638  10.262  1.2634 -1.4980 -0.2543
  136SAPE   H4S14734   5.543   4.716  10.293 -0.2150  1.3699  2.0030
  136SAPE   C2514735   5.403   4.850  10.187 -0.7090  0.1415 -0.6898
  136SAPE   H5R14736   5.460   4.944  10.190  0.7985 -0.7575  0.5538
  136SAPE   C2614737   5.299   4.839  10.105 -0.0384 -0.5738  0.1422
  136SAPE   H6R14738   5.285   4.916  10.027  1.5817 -0.3252  0.0690
  136SAPE   C2714739   5.207   4.723  10.074  0.8719 -0.9493 -0.2606
  136SAPE   H7R14740   5.113   4.760  10.028  0.2284 -1.4951  0.5941
  136SAPE   H7S14741   5.176   4.664  10.163 -0.9558 -1.2754 -1.0693
  136SAPE   C2814742   5.252   4.613   9.981 -0.3166  0.5722 -0.0349
  136SAPE   H8R14743   5.317   4.540  10.030 -0.6499  2.2404  3.1741
  136SAPE   C2914744   5.249   4.597   9.847  0.1786  0.3954  1.1954
  136SAPE   H9R14745   5.282   4.501   9.804 -0.1514  1.3031 -1.1798
  136SAPE  C21014746   5.191   4.687   9.745  0.7451  0.2885  0.2354
  136SAPE  H10R14747   5.278   4.749   9.713 -0.3187  1.4499 -0.4720
  136SAPE  H10S14748   5.113   4.757   9.782  0.5542  0.6945 -0.8926
  136SAPE  C21114749   5.137   4.613   9.625 -0.2180 -0.0176 -0.0431
  136SAPE  H11R14750   5.072   4.526   9.639 -2.0969  1.4353  0.6698
  136SAPE  C21214751   5.166   4.653   9.498 -0.6068 -0.1784  0.0310
  136SAPE  H12R14752   5.137   4.590   9.412  2.9162 -0.9074 -0.7643
  136SAPE  C21314753   5.249   4.776   9.449  0.4552 -0.0159 -0.0845
  136SAPE  H13R14754   5.358   4.754   9.448  0.0807 -2.3707  1.8677
  136SAPE  H13S14755   5.237   4.856   9.524 -1.0667  0.5776 -0.9239
  136SAPE  C21414756   5.199   4.842   9.327  0.4710 -0.6790 -0.1706
  136SAPE  H14R14757   5.127   4.922   9.348 -0.1752 -1.4510  0.6682
  136SAPE  C21514758   5.255   4.828   9.210 -0.4133  0.1117  0.0170
  136SAPE  H15R14759   5.203   4.865   9.120  0.3497  1.8804  0.2740
  136SAPE  C21614760   5.375   4.730   9.192  0.4956  0.0114  0.0518
  136SAPE  H16R14761   5.372   4.642   9.260 -2.0040 -0.8700 -1.0846
  136SAPE  H16S14762   5.471   4.782   9.215  0.9408 -1.2528  1.1458
  136SAPE  C21714763   5.392   4.674   9.052  0.4716  0.2567 -0.3949
  136SAPE  H17R14764   5.366   4.740   8.966 -0.2221 -0.8152 -1.0277
  136SAPE  H17S14765   5.310   4.599   9.042 -1.2461  1.4424  3.1829
  136SAPE  C21814766   5.531   4.622   9.035  0.1663  0.0495  0.1640
  136SAPE  H18R14767   5.552   4.562   9.126 -0.8030  0.3721  0.6190
  136SAPE  H18S14768   5.598   4.710   9.030 -1.8393  1.6668  0.4613
  136SAPE  C21914769   5.552   4.548   8.907 -0.1765  0.2974  0.1452
  136SAPE  H19R14770   5.527   4.611   8.819  0.2466 -0.5059 -0.5600
  136SAPE  H19S14771   5.484   4.461   8.910  0.5979 -0.4064 -1.4816
  136SAPE  C22014772   5.690   4.489   8.896  0.0646 -0.4770 -0.3812
  136SAPE  H20R14773   5.707   4.405   8.967 -0.8951 -2.9721 -2.9342
  136SAPE  H20S14774   5.761   4.572   8.917 -1.9093  0.6270  2.7034
  136SAPE  H20T14775   5.714   4.441   8.799  2.5759  0.4205 -0.2722
  136SAPE   C3314776   4.863   5.033  10.175  0.1658  0.1766  0.1399
  136SAPE   H3X14777   4.971   5.052  10.155  0.7123 -2.8107 -0.2345
  136SAPE   H3Y14778   4.797   5.119  10.155 -3.5347 -2.4405  0.1595
  136SAPE   C3414779   4.829   4.914  10.080 -0.0336  0.5350 -0.1343
  136SAPE   H4X14780   4.720   4.892  10.083  0.3879 -1.7960 -0.3942
  136SAPE   H4Y14781   4.875   4.820  10.117  0.7139 -0.5332 -3.4821
  136SAPE   C3514782   4.873   4.953   9.930 -0.5014  0.1052 -0.3875
  136SAPE   H5X14783   4.981   4.980   9.923 -0.3932 -0.0052  0.6529
  136SAPE   H5Y14784   4.819   5.049   9.913  0.5626  0.6495 -0.8091
  136SAPE   C3614785   4.846   4.843   9.823 -0.7639  0.2718  0.2646
  136SAPE   H6X14786   4.746   4.808   9.858 -1.3324 -0.5563 -2.0159
  136SAPE   H6Y14787   4.917   4.760   9.841 -0.9750 -0.0380 -0.3275
  136SAPE   C3714788   4.847   4.888   9.675 -0.0084  0.2288 -0.3309
  136SAPE   H7X14789   4.952   4.897   9.641  0.2696 -0.6926  0.2256
  136SAPE   H7Y14790   4.791   4.984   9.674 -0.2261  0.1286 -2.3786
  136SAPE   C3814791   4.760   4.797   9.587  0.1174  0.2827 -0.1218
  136SAPE   H8X14792   4.673   4.758   9.644 -0.5850  1.3578 -0.4192
  136SAPE   H8Y14793   4.827   4.709   9.578  0.9175  0.1597  4.6657
  136SAPE   C3914794   4.726   4.848   9.435 -0.2055 -0.2359  0.0116
  136SAPE   H9X14795   4.660   4.937   9.450  1.1043  0.6662  0.5975
  136SAPE   H9Y14796   4.686   4.761   9.379  2.2570  0.3445 -2.9854
  136SAPE  C31014797   4.843   4.894   9.347 -0.2411 -0.6376 -0.2784
  136SAPE  H10X14798   4.920   4.814   9.349  1.4464  0.8775 -1.8207
  136SAPE  H10Y14799   4.881   4.985   9.398 -4.0295  0.4749  0.9301
  136SAPE  C31114800   4.823   4.927   9.200  0.1083  0.1772 -0.0550
  136SAPE  H11X14801   4.728   4.981   9.182 -1.0874 -1.6509  0.4639
  136SAPE  H11Y14802   4.799   4.831   9.150  1.4017  0.1444 -0.6498
  136SAPE  C31214803   4.934   5.002   9.136  0.4074 -0.7087 -0.2391
  136SAPE  H12X14804   5.037   4.977   9.170  0.3726  0.5626  0.8965
  136SAPE  H12Y14805   4.922   5.112   9.149 -3.3280 -0.9038 -1.0752
  136SAPE  C31314806   4.919   5.001   8.978 -0.5357 -0.5247 -0.1239
  136SAPE  H13X14807   4.995   5.077   8.947  0.1870 -0.6616  1.2042
  136SAPE  H13Y14808   4.818   5.034   8.945 -0.0026  0.1755 -1.1260
  136SAPE  C31414809   4.956   4.868   8.910  0.3214  0.4791  0.1203
  136SAPE  H14X14810   4.900   4.781   8.951  0.3905  0.6731  0.6328
  136SAPE  H14Y14811   5.062   4.837   8.918  0.2404 -1.3889 -3.8863
  136SAPE  C31514812   4.928   4.869   8.754  0.2165  0.0739 -0.5990
  136SAPE  H15X14813   4.976   4.778   8.711 -0.5571 -0.9751  0.6796
  136SAPE  H15Y14814   4.983   4.955   8.710  0.3047 -0.9661 -2.6585
  136SAPE  C31614815   4.787   4.887   8.712  0.4178  0.4620 -0.4349
  136SAPE  H16X14816   4.786   4.887   8.601 -0.8959  0.6339 -0.4440
  136SAPE  H16Y14817   4.738   4.984   8.736 -0.6979 -0.3044  0.5198
  136SAPE  C31714818   4.691   4.783   8.765 -0.3831 -0.2692 -0.5018
  136SAPE  H17X14819   4.686   4.787   8.876 -0.4854 -0.1334 -0.5100
  136SAPE  H17Y14820   4.728   4.679   8.752 -0.9765 -0.8972  2.1889
  136SAPE  C31814821   4.546   4.792   8.713 -0.6901  0.6272  0.9568
  136SAPE  H18X14822   4.473   4.727   8.767  0.1665  0.3487  1.8061
  136SAPE  H18Y14823   4.534   4.775   8.604 -1.3280 -0.1851  1.1386
  136SAPE  H18Z14824   4.525   4.899   8.735 -0.3157  0.8399  0.2936
  137SAPE     N14825   5.144   2.788  11.007 -0.6904  0.0553  0.2696
  137SAPE   HN114826   5.063   2.741  11.053  0.5422  0.9883  3.6401
  137SAPE   HN214827   5.234   2.755  11.047 -0.4570 -0.0883 -0.3622
  137SAPE   HN314828   5.132   2.889  11.025 -0.0461  0.2127 -0.1470
  137SAPE   C1214829   5.157   2.780  10.855  1.0682  0.2275 -0.0636
  137SAPE  H12A14830   5.176   2.675  10.825  3.0275  0.9753 -1.6872
  137SAPE  H12B14831   5.236   2.846  10.813  0.2326  0.8688 -0.6534
  137SAPE   C1114832   5.014   2.803  10.793 -0.0011 -0.3006 -0.1227
  137SAPE  H11A14833   5.038   2.801  10.684  1.0926  0.9202  0.0621
  137SAPE  H11B14834   4.979   2.902  10.828 -2.0071 -1.5282  1.5165
  137SAPE     P14835   4.850   2.601  10.756 -0.0466  0.0593 -0.0001
  137SAPE   O1314836   4.870   2.468  10.822  0.1592 -0.0243 -0.1306
  137SAPE   O1414837   4.707   2.639  10.750 -0.3547  0.1680 -0.0992
  137SAPE   O1214838   4.922   2.706  10.841  0.4877 -0.5313 -0.3189
  137SAPE   O1114839   4.917   2.601  10.610 -0.4239  0.6059 -0.9562
  137SAPE    C114840   4.849   2.549  10.498 -0.0029 -0.2087  0.1267
  137SAPE    HA14841   4.933   2.521  10.431 -0.4347  0.2827 -0.6389
  137SAPE    HB14842   4.792   2.456  10.518  0.7657 -0.4191  1.4344
  137SAPE    C214843   4.758   2.659  10.431  0.1387 -0.1188  1.0073
  137SAPE    HS14844   4.672   2.675  10.500  0.7452 -0.3319  1.8290
  137SAPE   O2114845   4.728   2.619  10.297 -0.1736  0.5636  0.7355
  137SAPE   C2114846   4.642   2.518  10.276  0.4472 -0.0732  0.6036
  137SAPE   O2214847   4.584   2.456  10.360 -0.2075 -0.2485  0.1498
  137SAPE   C2214848   4.613   2.513  10.120 -0.1037  0.0089 -0.2049
  137SAPE   H2R14849   4.552   2.604  10.106  1.5980  1.5398  1.6083
  137SAPE   H2S14850   4.713   2.526  10.074 -1.0813  3.5373 -1.5863
  137SAPE    C314851   4.813   2.804  10.428 -0.2789  0.3936 -0.4187
  137SAPE    HX14852   4.911   2.816  10.377  1.5248  2.5123  3.1532
  137SAPE    HY14853   4.846   2.825  10.532  1.1646 -0.1088 -0.7533
  137SAPE   O3114854   4.705   2.886  10.382  0.8556 -0.7976  0.0258
  137SAPE   C3114855   4.625   2.951  10.473  0.3783  0.1129 -0.3812
  137SAPE   O3214856   4.649   2.945  10.591  0.3711 -0.5446 -0.6115
  137SAPE   C3214857   4.509   3.015  10.401  0.4514 -0.6630 -0.1602
  137SAPE   H2X14858   4.416   2.993  10.458 -0.0544 -0.3639 -0.8503
  137SAPE   H2Y14859   4.499   2.975  10.297 -1.8779 -3.2199  0.9242
  137SAPE   C2314860   4.529   2.391  10.075  0.3043  0.0381  0.4474
  137SAPE   H3R14861   4.444   2.372  10.144  0.0475  0.5621  0.2889
  137SAPE   H3S14862   4.600   2.306  10.076 -1.4124 -1.5245  3.0771
  137SAPE   C2414863   4.471   2.403   9.933  0.9535  0.7005 -0.1260
  137SAPE   H4R14864   4.420   2.305   9.917  3.3737 -0.8013  0.7431
  137SAPE   H4S14865   4.555   2.406   9.859  1.2837 -0.2942  0.1819
  137SAPE   C2514866   4.365   2.508   9.936 -0.0706 -1.2336  0.6211
  137SAPE   H5R14867   4.318   2.524  10.034 -0.4151 -3.8564  0.9670
  137SAPE   C2614868   4.332   2.608   9.847  0.5873  0.1930  0.6939
  137SAPE   H6R14869   4.243   2.671   9.862 -0.8897 -1.6766  0.1550
  137SAPE   C2714870   4.397   2.627   9.709 -0.2396  0.0223 -0.0020
  137SAPE   H7R14871   4.489   2.566   9.703  0.5860  1.2201  0.0312
  137SAPE   H7S14872   4.440   2.729   9.715 -0.3412 -0.0291  3.2094
  137SAPE   C2814873   4.322   2.609   9.586  0.1360 -0.6314  0.4535
  137SAPE   H8R14874   4.232   2.547   9.594  1.2490 -2.6357 -1.5558
  137SAPE   C2914875   4.345   2.660   9.465  0.4773  0.2631  0.0397
  137SAPE   H9R14876   4.262   2.652   9.394  2.1419 -0.5729 -1.9091
  137SAPE  C21014877   4.454   2.746   9.415 -0.3005  0.5117  0.4677
  137SAPE  H10R14878   4.492   2.823   9.486  0.7817 -0.5890  1.1161
  137SAPE  H10S14879   4.414   2.799   9.326  0.2115  1.0891  0.5729
  137SAPE  C21114880   4.577   2.674   9.367 -0.0199 -0.1130  0.1608
  137SAPE  H11R14881   4.566   2.565   9.358 -1.6033 -0.0411  0.7828
  137SAPE  C21214882   4.696   2.735   9.327 -0.0715  0.5835 -0.6184
  137SAPE  H12R14883   4.778   2.669   9.298  0.0197 -0.4925  1.8304
  137SAPE  C21314884   4.733   2.878   9.322 -0.0466 -0.1219 -0.0916
  137SAPE  H13R14885   4.820   2.903   9.387  0.5443 -1.9124 -0.1461
  137SAPE  H13S14886   4.649   2.940   9.361  0.8432  1.1655 -0.1534
  137SAPE  C21414887   4.762   2.909   9.174  0.7509  0.2031 -1.0340
  137SAPE  H14R14888   4.749   2.831   9.097 -0.9770 -1.0118  0.4230
  137SAPE  C21514889   4.781   3.032   9.146  0.0329  0.4105  0.3046
  137SAPE  H15R14890   4.792   3.060   9.041 -2.9633 -0.7385 -0.4056
  137SAPE  C21614891   4.781   3.146   9.238 -0.5420  0.2278 -0.0149
  137SAPE  H16R14892   4.863   3.124   9.309 -1.2380 -2.5629  0.0234
  137SAPE  H16S14893   4.695   3.150   9.309 -0.5459 -0.9720  0.0688
  137SAPE  C21714894   4.816   3.272   9.166 -0.0469  0.0397  0.0327
  137SAPE  H17R14895   4.836   3.348   9.244  2.2669  1.0761 -1.4468
  137SAPE  H17S14896   4.729   3.310   9.108  0.0183  0.8323  0.4436
  137SAPE  C21814897   4.939   3.266   9.074 -0.3486  0.6165 -0.4209
  137SAPE  H18R14898   4.907   3.228   8.975  0.3503 -1.7215  0.1915
  137SAPE  H18S14899   5.007   3.188   9.116  0.9120  2.0598  0.3425
  137SAPE  C21914900   5.007   3.401   9.054  0.0105 -0.5238  0.1879
  137SAPE  H19R14901   5.079   3.401   8.969 -0.8843 -0.7366 -0.5907
  137SAPE  H19S14902   5.070   3.433   9.139  0.4890 -0.5909 -0.1424
  137SAPE  C22014903   4.910   3.509   9.022  0.4267  0.1433 -0.2359
  137SAPE  H20R14904   4.855   3.542   9.113 -0.5055 -2.7591  0.3738
  137SAPE  H20S14905   4.844   3.483   8.937  0.5999  0.9105 -0.6138
  137SAPE  H20T14906   4.965   3.597   8.983 -2.2476  0.7149 -3.0963
  137SAPE   C3314907   4.511   3.173  10.407  0.7551  0.5087 -0.0602
  137SAPE   H3X14908   4.507   3.208  10.512  1.9897  2.1579 -0.5252
  137SAPE   H3Y14909   4.419   3.216  10.360  0.4061 -1.5069 -1.3401
  137SAPE   C3414910   4.630   3.239  10.330  0.1975 -0.0855 -0.4432
  137SAPE   H4X14911   4.726   3.188  10.353 -0.1983 -0.5807  0.1482
  137SAPE   H4Y14912   4.630   3.344  10.367  2.8370 -0.6269  1.4010
  137SAPE   C3514913   4.615   3.228  10.175  0.1139  0.0523  0.3832
  137SAPE   H5X14914   4.510   3.255  10.152 -0.3157 -2.5314 -1.0943
  137SAPE   H5Y14915   4.632   3.125  10.137 -0.4675  0.5217 -1.2428
  137SAPE   C3614916   4.715   3.322  10.102 -0.0772 -0.4519 -1.1061
  137SAPE   H6X14917   4.818   3.290  10.126  0.0769 -0.1369 -1.3544
  137SAPE   H6Y14918   4.708   3.421  10.150  0.3603 -1.5707  1.4410
  137SAPE   C3714919   4.684   3.340   9.950 -0.3061  0.4643  0.1189
  137SAPE   H7X14920   4.576   3.367   9.955  0.3085  2.9564  2.6587
  137SAPE   H7Y14921   4.698   3.242   9.900 -0.4114  1.7824 -2.6971
  137SAPE   C3814922   4.761   3.447   9.888  0.7973 -0.5965  0.6551
  137SAPE   H8X14923   4.870   3.442   9.910  1.3521  0.4043 -1.5947
  137SAPE   H8Y14924   4.714   3.544   9.912  1.4106 -0.2483  0.4690
  137SAPE   C3914925   4.788   3.432   9.735  0.5166 -0.3081 -0.6031
  137SAPE   H9X14926   4.816   3.325   9.722  0.3433 -0.7219  1.9144
  137SAPE   H9Y14927   4.869   3.507   9.719 -0.2773  0.8894  0.7138
  137SAPE  C31014928   4.664   3.484   9.660 -0.5524  0.4926  0.0189
  137SAPE  H10X14929   4.636   3.591   9.677 -0.5441  1.0638 -2.9491
  137SAPE  H10Y14930   4.579   3.429   9.704  1.3325 -1.4793  1.4298
  137SAPE  C31114931   4.690   3.454   9.505 -0.0393  0.1098 -0.0624
  137SAPE  H11X14932   4.602   3.404   9.460  1.7281 -0.8087 -2.6702
  137SAPE  H11Y14933   4.785   3.396   9.503 -0.4437 -0.6499  1.2672
  137SAPE  C31214934   4.705   3.582   9.416  0.6619  0.5636  0.1820
  137SAPE  H12X14935   4.769   3.547   9.332  0.9349  0.2201  0.5247
  137SAPE  H12Y14936   4.763   3.657   9.474  1.8049  0.0367 -0.2437
  137SAPE  C31314937   4.569   3.637   9.361 -0.2569 -0.1847  0.3709
  137SAPE  H13X14938   4.524   3.701   9.440 -1.0182 -0.5393  0.2330
  137SAPE  H13Y14939   4.497   3.556   9.335  0.0627 -0.8544  1.5298
  137SAPE  C31414940   4.600   3.730   9.251 -0.1739 -0.2177  0.3611
  137SAPE  H14X14941   4.629   3.662   9.169 -1.8285 -1.1191  0.4754
  137SAPE  H14Y14942   4.690   3.790   9.278  0.0284 -0.9943  1.4892
  137SAPE  C31514943   4.484   3.820   9.206 -0.6521 -0.0016 -0.0752
  137SAPE  H15X14944   4.468   3.887   9.294  3.7834  0.9190  0.2632
  137SAPE  H15Y14945   4.391   3.760   9.199 -0.7984  0.1180  0.7303
  137SAPE  C31614946   4.515   3.908   9.089 -0.4395 -0.1041  0.6486
  137SAPE  H16X14947   4.605   3.963   9.123 -1.3977 -0.1825  3.6667
  137SAPE  H16Y14948   4.432   3.981   9.082 -1.1496 -0.7769  1.7114
  137SAPE  C31714949   4.546   3.839   8.955  0.0323 -0.5580 -0.2073
  137SAPE  H17X14950   4.623   3.764   8.983  2.0155  1.4804  0.0917
  137SAPE  H17Y14951   4.589   3.910   8.881  2.7392 -1.6736  0.1696
  137SAPE  C31814952   4.416   3.786   8.902 -0.3330  0.3100  0.5399
  137SAPE  H18X14953   4.338   3.865   8.904 -0.3506  0.2888  3.0311
  137SAPE  H18Y14954   4.381   3.690   8.945  2.5012 -0.8178  0.5236
  137SAPE  H18Z14955   4.430   3.748   8.798  0.0373  0.0002  0.7000
  138SAPE     N14956   0.901   2.673  10.800 -0.1185 -0.0475  0.4416
  138SAPE   HN114957   0.949   2.583  10.822 -0.5383 -0.4878 -0.3741
  138SAPE   HN214958   0.867   2.655  10.703  1.1317  0.5048 -0.1218
  138SAPE   HN314959   0.963   2.756  10.791  0.7114 -0.6793  0.2095
  138SAPE   C1214960   0.794   2.689  10.902 -0.5447  0.0318  0.0054
  138SAPE  H12A14961   0.745   2.784  10.872  1.8471  1.8621  1.5076
  138SAPE  H12B14962   0.837   2.688  11.005 -0.3707 -2.0240 -0.0369
  138SAPE   C1114963   0.684   2.583  10.891  0.0118  0.0562 -0.2446
  138SAPE  H11A14964   0.640   2.589  10.789 -1.4009 -3.5518 -0.0163
  138SAPE  H11B14965   0.609   2.606  10.971  1.6625  3.4055  0.5127
  138SAPE     P14966   0.755   2.343  10.800  0.2360  0.1071 -0.1279
  138SAPE   O1314967   0.848   2.233  10.847 -0.4510 -0.0979 -0.0810
  138SAPE   O1414968   0.620   2.308  10.745  0.5311 -0.0485 -0.6657
  138SAPE   O1214969   0.725   2.445  10.920 -0.6447  0.3354 -0.2635
  138SAPE   O1114970   0.823   2.432  10.694 -0.7814  0.1866 -0.0091
  138SAPE    C114971   0.865   2.377  10.566 -0.1630  0.3353  0.1810
  138SAPE    HA14972   0.963   2.422  10.541  0.3085 -0.2016  1.0010
  138SAPE    HB14973   0.871   2.266  10.567  2.9616  0.4238  1.2848
  138SAPE    C214974   0.754   2.405  10.457  0.0546 -0.3958  0.6620
  138SAPE    HS14975   0.662   2.347  10.480 -1.0457  0.6581 -0.8546
  138SAPE   O2114976   0.800   2.378  10.326  0.5672  0.3026  0.7053
  138SAPE   C2114977   0.774   2.260  10.271  0.6517  0.1850  0.1232
  138SAPE   O2214978   0.706   2.174  10.322 -0.0475  0.0752 -0.1826
  138SAPE   C2214979   0.855   2.243  10.149 -0.5141 -0.6250 -0.1079
  138SAPE   H2R14980   0.911   2.333  10.119 -1.6624  1.2965  3.0068
  138SAPE   H2S14981   0.939   2.174  10.173 -0.7081 -1.6769 -2.2087
  138SAPE    C314982   0.708   2.558  10.452  0.2284 -0.0235  0.0123
  138SAPE    HX14983   0.684   2.581  10.557  2.6325  1.1713  0.3788
  138SAPE    HY14984   0.606   2.556  10.409 -0.3030 -1.8462  1.2841
  138SAPE   O3114985   0.789   2.639  10.368 -0.6237 -0.9726  0.0879
  138SAPE   C3114986   0.842   2.740  10.438 -0.0866  1.0569  1.2059
  138SAPE   O3214987   0.829   2.758  10.558  0.1924 -0.0814  0.2153
  138SAPE   C3214988   0.929   2.816  10.343  0.0179  0.3772  0.2091
  138SAPE   H2X14989   0.935   2.766  10.245  2.2096 -2.1559  1.5016
  138SAPE   H2Y14990   1.036   2.815  10.374  0.2162 -3.6156 -0.0239
  138SAPE   C2314991   0.778   2.180  10.033 -0.0141  0.3309 -0.4888
  138SAPE   H3R14992   0.683   2.233  10.010  0.0179  0.3871 -0.4918
  138SAPE   H3S14993   0.738   2.083  10.069  0.9842 -0.3724 -1.2124
  138SAPE   C2414994   0.839   2.160   9.898  0.2651 -0.7762 -0.0672
  138SAPE   H4R14995   0.858   2.261   9.856 -1.2930 -0.5015 -0.1448
  138SAPE   H4S14996   0.761   2.104   9.842 -2.1373  0.8818  1.4690
  138SAPE   C2514997   0.966   2.088   9.901 -0.4502  0.0617 -0.1662
  138SAPE   H5R14998   0.988   2.039   9.997 -0.6721  0.1586 -0.0657
  138SAPE   C2614999   1.067   2.079   9.810 -0.0014 -0.0068  0.5641
  138SAPE   H6R15000   1.154   2.017   9.836 -0.1318 -0.1801  0.5874
  138SAPE   C2715001   1.059   2.156   9.677  0.0615  0.7776  0.3281
  138SAPE   H7R15002   0.958   2.200   9.659 -0.0672  0.1741 -0.4616
  138SAPE   H7S15003   1.072   2.075   9.603 -1.1335 -0.5144  1.4725
  138SAPE   C2815004   1.174   2.252   9.667  0.5071 -0.2531  0.0977
  138SAPE   H8R15005   1.234   2.260   9.759  0.4258 -1.7544  0.3116
  138SAPE   C2915006   1.209   2.327   9.555  0.2261  0.2193  0.5186
  138SAPE   H9R15007   1.298   2.391   9.554 -0.3585  1.1103  1.9851
  138SAPE  C21015008   1.130   2.309   9.422  0.1022  0.5716 -0.5963
  138SAPE  H10R15009   1.028   2.280   9.457  0.8969  0.4519  1.8034
  138SAPE  H10S15010   1.164   2.227   9.355  0.2676  2.8079 -3.4840
  138SAPE  C21115011   1.112   2.440   9.347 -0.9276  0.3704  1.1879
  138SAPE  H11R15012   1.138   2.535   9.395  0.8334  0.3121  0.4429
  138SAPE  C21215013   1.051   2.431   9.226  0.3476 -1.2102  0.1420
  138SAPE  H12R15014   1.048   2.526   9.170 -1.2072 -0.5005  1.3406
  138SAPE  C21315015   1.001   2.313   9.151 -0.0299  0.9482  0.6167
  138SAPE  H13R15016   0.896   2.330   9.121 -0.0086 -0.2995 -0.2735
  138SAPE  H13S15017   0.998   2.227   9.221 -0.8151  0.3164 -0.1627
  138SAPE  C21415018   1.101   2.294   9.037  1.1132  0.0717  0.6604
  138SAPE  H14R15019   1.204   2.305   9.073  1.9414 -1.9173 -0.9301
  138SAPE  C21515020   1.063   2.246   8.913 -0.5997  0.4165 -0.3517
  138SAPE  H15R15021   1.137   2.245   8.830  0.2119  0.3034  0.3597
  138SAPE  C21615022   0.929   2.209   8.869  0.1872  1.3838  0.2528
  138SAPE  H16R15023   0.863   2.169   8.949 -2.0833  0.2697 -2.0156
  138SAPE  H16S15024   0.937   2.133   8.788 -1.3689  0.6202  0.7780
  138SAPE  C21715025   0.851   2.320   8.797 -0.4246  0.2616 -0.4083
  138SAPE  H17R15026   0.908   2.372   8.717 -0.7079  5.0163  2.1263
  138SAPE  H17S15027   0.831   2.404   8.867 -1.3394 -0.5306  0.3005
  138SAPE  C21815028   0.705   2.268   8.753 -0.7436 -0.1825  0.1474
  138SAPE  H18R15029   0.649   2.225   8.840 -2.4308  1.3368 -0.1225
  138SAPE  H18S15030   0.719   2.192   8.673 -0.5993  0.5333 -0.5136
  138SAPE  C21915031   0.617   2.374   8.691  0.0377 -0.0849 -0.5744
  138SAPE  H19R15032   0.695   2.440   8.647  0.9507  1.8212  3.5085
  138SAPE  H19S15033   0.568   2.423   8.777  1.5487 -1.9835  1.4918
  138SAPE  C22015034   0.517   2.327   8.590 -0.9652  0.4194 -0.5743
  138SAPE  H20R15035   0.445   2.257   8.639 -0.5630  0.7422  0.5003
  138SAPE  H20S15036   0.568   2.270   8.510 -0.6896 -1.0261  0.5769
  138SAPE  H20T15037   0.464   2.417   8.553 -0.1332  1.0382 -0.2759
  138SAPE   C3315038   0.898   2.964  10.321  0.6199 -0.2218  0.3940
  138SAPE   H3X15039   0.981   3.005  10.260  0.2856 -1.1532 -0.7268
  138SAPE   H3Y15040   0.890   3.009  10.423 -0.9464  0.3621  0.0343
  138SAPE   C3415041   0.766   2.982  10.251 -0.2972 -0.0883  0.2722
  138SAPE   H4X15042   0.731   3.086  10.263  0.1373  0.2710 -1.3715
  138SAPE   H4Y15043   0.684   2.918  10.290  1.1429 -0.8951  2.1369
  138SAPE   C3515044   0.783   2.949  10.098 -0.0857 -0.1384  0.1485
  138SAPE   H5X15045   0.802   2.839  10.098 -2.0645 -0.5421 -1.4802
  138SAPE   H5Y15046   0.876   2.991  10.055  0.0221 -1.6116 -1.1356
  138SAPE   C3615047   0.653   2.977  10.022  0.4366  0.2179  0.5060
  138SAPE   H6X15048   0.621   3.084  10.024  1.3410  0.4933  0.8935
  138SAPE   H6Y15049   0.567   2.918  10.059 -1.7963  2.5407 -0.6563
  138SAPE   C3715050   0.667   2.952   9.873 -0.3667 -0.0102  0.1009
  138SAPE   H7X15051   0.714   2.855   9.846 -0.5995  0.5122 -2.3533
  138SAPE   H7Y15052   0.750   3.016   9.837 -0.2786 -0.6716 -0.9225
  138SAPE   C3815053   0.545   2.977   9.783  0.9176 -0.3234 -0.6062
  138SAPE   H8X15054   0.513   3.079   9.812  0.1875  0.1361 -2.8627
  138SAPE   H8Y15055   0.467   2.903   9.812  0.6792 -0.1730 -0.8518
  138SAPE   C3915056   0.570   2.967   9.632  0.2513  0.0846  0.8956
  138SAPE   H9X15057   0.598   2.864   9.598  1.8421  1.0704 -1.0155
  138SAPE   H9Y15058   0.664   3.026   9.624  0.6226 -0.4498  1.1942
  138SAPE  C31015059   0.455   3.030   9.554 -0.1935  0.2364 -0.5154
  138SAPE  H10X15060   0.428   3.135   9.577 -1.9537  0.1846 -2.0908
  138SAPE  H10Y15061   0.371   2.962   9.581  0.4363  0.2157  1.5917
  138SAPE  C31115062   0.463   3.017   9.402 -0.1823 -0.3534 -0.7508
  138SAPE  H11X15063   0.539   3.092   9.373  1.6952 -0.3726  3.4095
  138SAPE  H11Y15064   0.365   3.041   9.355 -0.8677  1.7501  1.5574
  138SAPE  C31215065   0.500   2.878   9.351 -0.5307 -0.1491 -0.3576
  138SAPE  H12X15066   0.440   2.809   9.414 -0.4131 -1.5751 -1.7505
  138SAPE  H12Y15067   0.610   2.863   9.357 -0.4537  0.8573  2.2231
  138SAPE  C31315068   0.466   2.843   9.204 -0.0665  0.3644  0.2180
  138SAPE  H13X15069   0.490   2.924   9.132  0.1614 -0.7182 -0.9558
  138SAPE  H13Y15070   0.355   2.836   9.195  0.1176 -0.2850 -2.3817
  138SAPE  C31415071   0.532   2.721   9.143  0.1085  0.2723  0.6299
  138SAPE  H14X15072   0.540   2.637   9.214 -0.0033 -0.9381 -0.7393
  138SAPE  H14Y15073   0.636   2.752   9.120  0.5771 -1.1230  0.7742
  138SAPE  C31515074   0.457   2.668   9.019 -0.5637 -0.4043 -0.5723
  138SAPE  H15X15075   0.532   2.613   8.959  1.0309  2.7843 -1.7470
  138SAPE  H15Y15076   0.425   2.753   8.955 -0.2529  1.3618  1.5077
  138SAPE  C31615077   0.340   2.578   9.044  0.1132  0.5137  0.8418
  138SAPE  H16X15078   0.254   2.627   9.094 -0.9950 -0.8230  0.2847
  138SAPE  H16Y15079   0.381   2.497   9.108 -0.9187  0.4613  1.4537
  138SAPE  C31715080   0.287   2.518   8.915 -0.0695 -0.7533 -0.0817
  138SAPE  H17X15081   0.207   2.441   8.926  0.3379 -1.3276 -0.9760
  138SAPE  H17Y15082   0.372   2.463   8.869  0.4242  0.6347 -0.8723
  138SAPE  C31815083   0.247   2.609   8.796  0.8165  0.3036  0.3268
  138SAPE  H18X15084   0.204   2.545   8.716 -1.2223  1.6262  0.2943
  138SAPE  H18Y15085   0.328   2.665   8.745  0.2768 -0.3075 -1.2979
  138SAPE  H18Z15086   0.162   2.676   8.819  0.6154 -0.2098  1.1157
  139SAPE     N15087   6.559   1.601  10.905 -0.2963 -0.6358  1.2303
  139SAPE   HN115088   6.559   1.654  10.816 -0.2620 -3.4884 -0.5750
  139SAPE   HN215089   6.531   1.667  10.982 -0.0370  0.5273  0.3602
  139SAPE   HN315090   6.653   1.565  10.932 -0.4355 -2.3873 -0.4155
  139SAPE   C1215091   6.472   1.488  10.865 -0.1310 -0.5101 -0.2060
  139SAPE  H12A15092   6.368   1.519  10.889 -0.2028  0.4402 -1.5877
  139SAPE  H12B15093   6.505   1.404  10.930  3.2593  1.2808  0.6336
  139SAPE   C1115094   6.494   1.439  10.715  1.6369 -0.3968 -0.0534
  139SAPE  H11A15095   6.488   1.534  10.657  3.3884 -1.0463 -1.4140
  139SAPE  H11B15096   6.416   1.366  10.686  0.6782  0.3023  0.7323
  139SAPE     P15097   6.660   1.245  10.733 -0.0494 -0.3207  0.1091
  139SAPE   O1315098   6.739   1.252  10.861  1.1737  0.0959  0.0628
  139SAPE   O1415099   6.536   1.164  10.734  0.0815  0.0759 -0.0133
  139SAPE   O1215100   6.627   1.391  10.697 -0.3127 -0.4957 -0.1012
  139SAPE   O1115101   6.747   1.187  10.620 -0.0407  0.4516  0.1471
  139SAPE    C115102   6.833   1.278  10.546 -0.8497 -0.0941  0.4115
  139SAPE    HA15103   6.796   1.382  10.548  0.9430  0.6461 -0.9705
  139SAPE    HB15104   6.932   1.276  10.596 -0.2328 -2.0114 -0.7803
  139SAPE    C215105   6.834   1.236  10.394 -0.1793  0.3274  0.2994
  139SAPE    HS15106   6.878   1.314  10.328 -0.4720  0.6851  0.5213
  139SAPE   O2115107   6.705   1.199  10.349  0.3884  0.5213 -0.5769
  139SAPE   C2115108   6.614   1.295  10.358 -0.4755  0.6519 -0.7954
  139SAPE   O2215109   6.639   1.412  10.374 -0.1318  0.1499 -0.1402
  139SAPE   C2215110   6.477   1.238  10.338 -0.3444 -0.4402 -0.9406
  139SAPE   H2R15111   6.463   1.163  10.419 -2.1406  1.3884  0.5457
  139SAPE   H2S15112   6.395   1.313  10.349 -1.9782 -2.4567  2.4802
  139SAPE    C315113   6.928   1.111  10.378  0.1425  0.4329 -0.2098
  139SAPE    HX15114   6.890   1.023  10.435 -1.0083  0.7734 -0.4099
  139SAPE    HY15115   7.030   1.135  10.413  0.9008 -1.5965 -0.8707
  139SAPE   O3115116   6.956   1.075  10.243  0.6323 -0.3156  0.0058
  139SAPE   C3115117   6.869   0.985  10.186 -0.1240 -0.0548  0.7465
  139SAPE   O3215118   6.771   0.942  10.248 -0.7164  0.2101  0.4049
  139SAPE   C3215119   6.892   0.952  10.038 -0.4027 -0.3839 -0.0737
  139SAPE   H2X15120   6.933   0.849  10.033 -0.2052 -0.2840 -0.5927
  139SAPE   H2Y15121   6.963   1.027   9.997 -0.8728  1.0328  1.5335
  139SAPE   C2315122   6.459   1.155  10.212 -0.7992 -0.0106 -0.4005
  139SAPE   H3R15123   6.550   1.095  10.190 -0.1410  0.3515  1.1742
  139SAPE   H3S15124   6.444   1.233  10.134 -0.5014 -1.3531 -1.8294
  139SAPE   C2415125   6.344   1.059  10.223  0.1686 -0.1137 -0.1132
  139SAPE   H4R15126   6.342   0.995  10.313 -1.0769 -1.7159 -1.2089
  139SAPE   H4S15127   6.352   0.996  10.132 -0.2409 -0.2908 -0.0291
  139SAPE   C2515128   6.216   1.135  10.226 -0.0474 -0.5212 -0.2363
  139SAPE   H5R15129   6.172   1.159  10.324 -2.4463  1.1060 -1.6188
  139SAPE   C2615130   6.138   1.173  10.123  0.3043  0.2194 -0.6244
  139SAPE   H6R15131   6.044   1.220  10.156  1.3982  1.6841  0.5124
  139SAPE   C2715132   6.159   1.150   9.975  0.5891  0.7785  1.7141
  139SAPE   H7R15133   6.192   1.046   9.956 -1.8971  0.5041 -2.0879
  139SAPE   H7S15134   6.237   1.220   9.937 -1.0855  1.8237  0.0585
  139SAPE   C2815135   6.028   1.183   9.897 -0.2142 -0.4453  0.2268
  139SAPE   H8R15136   5.938   1.171   9.958 -1.5724  2.0838 -1.1337
  139SAPE   C2915137   6.027   1.226   9.768 -0.1786  0.1514 -0.5282
  139SAPE   H9R15138   5.932   1.246   9.715  0.3197  0.0117 -1.4940
  139SAPE  C21015139   6.145   1.259   9.677 -0.1374  0.4706 -0.5723
  139SAPE  H10R15140   6.245   1.263   9.725  0.2684  1.3182 -1.4541
  139SAPE  H10S15141   6.127   1.365   9.651 -0.4265  1.3021  2.5803
  139SAPE  C21115142   6.155   1.162   9.564 -0.3748  0.2694  0.2114
  139SAPE  H11R15143   6.139   1.055   9.586 -0.6384 -0.6359 -3.6171
  139SAPE  C21215144   6.179   1.190   9.437 -0.6059 -0.1981 -0.4601
  139SAPE  H12R15145   6.191   1.106   9.366  1.0506 -1.7292  1.5184
  139SAPE  C21315146   6.194   1.315   9.359  0.2686 -0.0855 -0.2198
  139SAPE  H13R15147   6.304   1.322   9.346 -0.0185  1.0819 -2.5125
  139SAPE  H13S15148   6.172   1.402   9.423  1.0147  1.0382 -1.4443
  139SAPE  C21415149   6.113   1.313   9.231  0.4012  0.3330  0.3675
  139SAPE  H14R15150   6.009   1.349   9.228  0.7542  1.3627  0.3565
  139SAPE  C21515151   6.158   1.292   9.109 -0.1278  0.1338  0.1881
  139SAPE  H15R15152   6.098   1.295   9.017  2.1913  0.5179 -1.4199
  139SAPE  C21615153   6.303   1.262   9.072  0.2776 -0.3520  0.0314
  139SAPE  H16R15154   6.354   1.229   9.165  1.1825  2.1541  0.4968
  139SAPE  H16S15155   6.345   1.358   9.037  0.0733 -0.0945  0.4793
  139SAPE  C21715156   6.323   1.155   8.960 -0.1350 -0.6398  0.5505
  139SAPE  H17R15157   6.432   1.137   8.951  0.6271  2.8749  1.3525
  139SAPE  H17S15158   6.275   1.200   8.869 -2.1745 -0.9475  1.4180
  139SAPE  C21815159   6.242   1.021   8.980  0.3256  0.0939  1.0551
  139SAPE  H18R15160   6.139   1.048   8.947  0.9095 -1.0645 -2.0875
  139SAPE  H18S15161   6.232   0.982   9.083  1.5604 -2.9786  0.1278
  139SAPE  C21915162   6.283   0.900   8.892 -0.0281  0.0053  0.4394
  139SAPE  H19R15163   6.211   0.815   8.895  2.4821 -2.2313  0.9136
  139SAPE  H19S15164   6.374   0.865   8.945  0.8488 -1.6445 -1.9961
  139SAPE  C22015165   6.325   0.937   8.749  1.0892  0.3726 -0.0025
  139SAPE  H20R15166   6.393   1.024   8.738  1.3830 -0.0664 -2.1149
  139SAPE  H20S15167   6.235   0.953   8.687  0.9785 -0.0385  0.0503
  139SAPE  H20T15168   6.372   0.848   8.701  0.7431  0.6252 -0.8305
  139SAPE   C3315169   6.749   0.955   9.966 -0.7179  0.8829 -0.3172
  139SAPE   H3X15170   6.701   1.050  10.000 -0.1700  0.7378  0.8951
  139SAPE   H3Y15171   6.683   0.878  10.011  0.8222  0.4378  1.2670
  139SAPE   C3415172   6.759   0.949   9.816  0.1098 -0.2469 -0.4836
  139SAPE   H4X15173   6.808   0.857   9.776  0.9418 -0.3824  0.7689
  139SAPE   H4Y15174   6.823   1.035   9.787  1.1603 -1.5187 -2.1436
  139SAPE   C3515175   6.630   0.978   9.755  0.4499 -0.1867  0.6708
  139SAPE   H5X15176   6.587   1.076   9.787 -3.9211 -1.3336 -0.9408
  139SAPE   H5Y15177   6.566   0.892   9.786 -0.0733 -0.1925 -0.3845
  139SAPE   C3615178   6.631   0.954   9.600  1.0120  0.3249  0.0061
  139SAPE   H6X15179   6.688   0.860   9.586  0.1584 -0.0811 -0.9010
  139SAPE   H6Y15180   6.679   1.041   9.549  0.1722  0.4740 -0.5625
  139SAPE   C3715181   6.491   0.932   9.550 -0.8539  1.1812 -0.8990
  139SAPE   H7X15182   6.418   1.009   9.582 -0.7536  0.5167  1.0867
  139SAPE   H7Y15183   6.459   0.844   9.609  1.5480  0.0778 -1.1094
  139SAPE   C3815184   6.478   0.908   9.402 -0.0328 -0.1266  0.4567
  139SAPE   H8X15185   6.486   1.003   9.344 -2.6528 -0.2910 -0.3417
  139SAPE   H8Y15186   6.375   0.872   9.378  0.6474 -1.4914 -0.5537
  139SAPE   C3915187   6.564   0.796   9.338  0.1358  0.0073 -0.8245
  139SAPE   H9X15188   6.526   0.694   9.358 -0.1217 -0.0550 -1.6047
  139SAPE   H9Y15189   6.667   0.789   9.379 -0.7967 -1.0613  1.5256
  139SAPE  C31015190   6.573   0.811   9.187 -0.2981  0.0062  0.9619
  139SAPE  H10X15191   6.466   0.817   9.157  0.2729  0.8926 -1.0301
  139SAPE  H10Y15192   6.611   0.716   9.144 -0.5436  1.0730 -1.8309
  139SAPE  C31115193   6.668   0.923   9.133  0.4455  0.2468  0.3770
  139SAPE  H11X15194   6.770   0.890   9.163 -0.2118 -0.7534  1.6071
  139SAPE  H11Y15195   6.634   1.025   9.160 -0.4544  0.2747 -0.7612
  139SAPE  C31215196   6.668   0.936   8.973  0.1786  0.2575 -0.4207
  139SAPE  H12X15197   6.739   1.019   8.955  2.4358 -1.6530 -0.8391
  139SAPE  H12Y15198   6.568   0.961   8.932  0.1562  2.2220  0.7212
  139SAPE  C31315199   6.715   0.795   8.915  0.2174  0.1460 -0.2077
  139SAPE  H13X15200   6.626   0.730   8.901  0.8387 -0.9113  0.6534
  139SAPE  H13Y15201   6.794   0.749   8.978 -1.3636 -1.8236  0.4723
  139SAPE  C31415202   6.774   0.807   8.778 -0.3469  0.3058  0.3936
  139SAPE  H14X15203   6.823   0.710   8.754  0.2491  0.4927  0.8407
  139SAPE  H14Y15204   6.848   0.888   8.795 -0.8098  0.6983  0.5545
  139SAPE  C31515205   6.673   0.846   8.670  0.5267  0.2416  0.3138
  139SAPE  H15X15206   6.615   0.930   8.713 -1.7518 -1.9567  1.8421
  139SAPE  H15Y15207   6.599   0.764   8.660  2.2268 -1.4117  0.6769
  139SAPE  C31615208   6.736   0.862   8.536  0.4017  0.1185 -0.3402
  139SAPE  H16X15209   6.827   0.927   8.533  0.1595  0.4348 -1.7145
  139SAPE  H16Y15210   6.761   0.758   8.507 -0.1750 -0.7658  2.1006
  139SAPE  C31715211   6.640   0.914   8.424  0.0628  0.2030  0.6275
  139SAPE  H17X15212   6.559   0.844   8.394 -3.6220  3.3545  2.3886
  139SAPE  H17Y15213   6.698   0.932   8.331  0.5686  0.8483  1.0580
  139SAPE  C31815214   6.578   1.052   8.466 -0.1660  0.9079 -0.0391
  139SAPE  H18X15215   6.515   1.039   8.556 -0.2899  1.3846 -0.0494
  139SAPE  H18Y15216   6.525   1.104   8.383 -0.4884 -0.5948 -0.8119
  139SAPE  H18Z15217   6.662   1.116   8.502 -2.6385  3.7276  1.1856
  140SAPE     N15218   3.285   5.627  11.078  0.0165 -0.1046  0.1042
  140SAPE   HN115219   3.269   5.681  10.990 -1.5252  0.2420  0.5660
  140SAPE   HN215220   3.267   5.530  11.046  0.2045 -0.5357  1.2595
  140SAPE   HN315221   3.216   5.658  11.149 -2.4848 -0.8333 -1.8749
  140SAPE   C1215222   3.424   5.650  11.130  0.0940 -0.9659  0.4935
  140SAPE  H12A15223   3.430   5.611  11.234  2.0798  0.7132  1.0677
  140SAPE  H12B15224   3.428   5.760  11.135 -4.5881 -0.5948  1.2585
  140SAPE   C1115225   3.526   5.587  11.037  0.1790  0.2065  0.3274
  140SAPE  H11A15226   3.623   5.627  11.072  0.7019  0.2457 -1.0986
  140SAPE  H11B15227   3.510   5.637  10.939  0.4115  1.6123  0.9853
  140SAPE     P15228   3.443   5.362  10.916 -0.5443  0.1927  0.2990
  140SAPE   O1315229   3.473   5.217  10.936  0.0460 -0.3205  0.1313
  140SAPE   O1415230   3.305   5.401  10.916 -0.5492  0.0185 -0.0387
  140SAPE   O1215231   3.523   5.440  11.028 -0.0841  0.0427  0.4074
  140SAPE   O1115232   3.524   5.404  10.786 -0.3323 -0.0112 -0.1707
  140SAPE    C115233   3.482   5.504  10.689  0.0713  0.0177 -0.6404
  140SAPE    HA15234   3.404   5.571  10.731 -1.1896 -1.9394  0.3343
  140SAPE    HB15235   3.570   5.565  10.661 -0.3650 -0.1131 -2.4331
  140SAPE    C215236   3.426   5.436  10.560 -0.2889 -0.3012  0.2724
  140SAPE    HS15237   3.366   5.349  10.597 -0.0895  0.0860  1.5679
  140SAPE   O2115238   3.531   5.395  10.477 -0.3828 -0.8577  0.9980
  140SAPE   C2115239   3.519   5.283  10.405 -0.3749 -0.5399  0.1591
  140SAPE   O2215240   3.418   5.217  10.401  0.7173  0.3905  0.5446
  140SAPE   C2215241   3.651   5.250  10.335 -0.4384  0.3218 -0.0570
  140SAPE   H2R15242   3.712   5.340  10.313  1.7084 -0.6701  1.4953
  140SAPE   H2S15243   3.710   5.178  10.396 -0.7667 -0.4360 -0.6214
  140SAPE    C315244   3.324   5.522  10.484 -0.5876  0.3075 -0.2104
  140SAPE    HX15245   3.372   5.613  10.441 -3.2414  2.2472  0.6779
  140SAPE    HY15246   3.250   5.565  10.554 -0.1016  1.6449 -0.4957
  140SAPE   O3115247   3.253   5.455  10.387  0.1828 -0.4167 -0.2527
  140SAPE   C3115248   3.208   5.530  10.284  0.3159  0.5879 -0.9658
  140SAPE   O3215249   3.232   5.646  10.266  0.0229  0.0951  0.3723
  140SAPE   C3215250   3.109   5.448  10.208  0.9306  0.3033  0.1139
  140SAPE   H2X15251   3.018   5.433  10.270 -0.3610 -0.1118 -1.8145
  140SAPE   H2Y15252   3.149   5.347  10.187 -1.7815 -1.7922  3.7826
  140SAPE   C2315253   3.617   5.184  10.202  0.0557 -0.2966  0.4294
  140SAPE   H3R15254   3.536   5.109  10.220  0.2471 -0.7282 -0.4565
  140SAPE   H3S15255   3.703   5.120  10.175  0.2044  0.7754 -1.8237
  140SAPE   C2415256   3.572   5.279  10.087  0.4024 -0.3978  0.3114
  140SAPE   H4R15257   3.649   5.353  10.058  0.9605 -0.9413  0.3787
  140SAPE   H4S15258   3.488   5.342  10.124  1.7474  1.3933  0.4287
  140SAPE   C2515259   3.541   5.193   9.963  0.6559 -0.4416  0.4448
  140SAPE   H5R15260   3.500   5.094   9.986 -0.3771 -0.0944  0.1293
  140SAPE   C2615261   3.546   5.231   9.836  0.6440  0.1407 -0.0270
  140SAPE   H6R15262   3.525   5.155   9.759  0.1817  2.2912 -2.1235
  140SAPE   C2715263   3.578   5.367   9.782  0.3927 -0.0063  0.2676
  140SAPE   H7R15264   3.544   5.454   9.842 -2.2516  0.3936 -1.6387
  140SAPE   H7S15265   3.527   5.373   9.684  0.4606 -0.1235  0.2235
  140SAPE   C2815266   3.723   5.356   9.761 -0.1870 -0.7379 -0.2372
  140SAPE   H8R15267   3.776   5.359   9.858  1.7331 -0.1004 -1.2695
  140SAPE   C2915268   3.793   5.359   9.650 -0.1244  0.7081 -0.3648
  140SAPE   H9R15269   3.901   5.355   9.672 -0.7540 -1.6824  3.2022
  140SAPE  C21015270   3.742   5.357   9.505 -0.2214  0.0325  0.3051
  140SAPE  H10R15271   3.657   5.285   9.500  0.6359 -1.1430  1.7408
  140SAPE  H10S15272   3.826   5.308   9.451  0.7792 -0.6566  2.3726
  140SAPE  C21115273   3.699   5.490   9.459 -0.2775  0.6165 -0.2749
  140SAPE  H11R15274   3.667   5.549   9.546 -1.8768 -1.8219  0.9149
  140SAPE  C21215275   3.713   5.546   9.338 -0.1069  0.2029 -0.2003
  140SAPE  H12R15276   3.657   5.637   9.312  0.1253  0.5592  0.5218
  140SAPE  C21315277   3.782   5.483   9.215 -0.0389  0.2612  0.3769
  140SAPE  H13R15278   3.707   5.436   9.148  0.3813 -1.0756  0.8207
  140SAPE  H13S15279   3.845   5.395   9.242 -0.0704 -0.2112 -1.0277
  140SAPE  C21415280   3.871   5.576   9.132  0.4582 -0.2736  0.2923
  140SAPE  H14R15281   3.961   5.621   9.176  0.6432 -0.7813  0.4364
  140SAPE  C21515282   3.856   5.611   9.004 -0.1971  0.6380  0.6289
  140SAPE  H15R15283   3.933   5.679   8.963  0.3347 -0.0320  0.4903
  140SAPE  C21615284   3.750   5.571   8.908 -0.1193  0.3353  0.1068
  140SAPE  H16R15285   3.697   5.480   8.943  1.9746 -0.4091  1.5024
  140SAPE  H16S15286   3.795   5.548   8.809  2.0719  0.4043  1.0306
  140SAPE  C21715287   3.658   5.685   8.876 -1.0894  1.0244  0.5224
  140SAPE  H17R15288   3.598   5.647   8.790 -1.7052  0.4037  1.2189
  140SAPE  H17S15289   3.716   5.777   8.854  1.8006 -0.6977  0.4910
  140SAPE  C21815290   3.568   5.730   8.991 -0.1835  0.6475  0.4142
  140SAPE  H18R15291   3.502   5.813   8.956 -0.2495  1.5714  2.5471
  140SAPE  H18S15292   3.626   5.773   9.076  0.0782  0.5839  0.2679
  140SAPE  C21915293   3.466   5.625   9.040 -0.0904  0.1303 -0.0576
  140SAPE  H19R15294   3.521   5.534   9.074  1.2401  1.0720  0.4058
  140SAPE  H19S15295   3.413   5.590   8.949 -1.3225 -0.8465  0.9931
  140SAPE  C22015296   3.359   5.674   9.141  0.5603  0.3858  0.1067
  140SAPE  H20R15297   3.318   5.770   9.103 -2.2279 -1.1840 -1.2060
  140SAPE  H20S15298   3.403   5.682   9.242  2.6416  0.5639 -0.7552
  140SAPE  H20T15299   3.269   5.608   9.145 -0.0381  1.1960  0.2968
  140SAPE   C3315300   3.062   5.511  10.074 -0.1312  0.2647  0.2396
  140SAPE   H3X15301   3.020   5.613  10.092 -1.9885 -0.9748  4.1635
  140SAPE   H3Y15302   2.975   5.450  10.042 -2.2262  2.7805  0.7237
  140SAPE   C3415303   3.173   5.501   9.967 -0.0697  0.5653  0.3959
  140SAPE   H4X15304   3.225   5.404   9.981  0.8892  1.3450  2.7177
  140SAPE   H4Y15305   3.249   5.582   9.968 -0.7477  1.2835 -1.3123
  140SAPE   C3515306   3.119   5.498   9.819 -0.1418  0.3181 -0.0098
  140SAPE   H5X15307   3.085   5.596   9.781  0.8748  0.0072 -1.8326
  140SAPE   H5Y15308   3.027   5.435   9.810  0.2819 -0.3307  0.1310
  140SAPE   C3615309   3.232   5.455   9.719  0.1489  1.2456 -0.6127
  140SAPE   H6X15310   3.280   5.361   9.753 -1.2147  0.4551 -0.8235
  140SAPE   H6Y15311   3.298   5.544   9.720  2.8974 -0.6652  0.1917
  140SAPE   C3715312   3.176   5.411   9.576  0.3256 -0.6038  0.1339
  140SAPE   H7X15313   3.102   5.484   9.536 -1.1961 -1.3914  1.3934
  140SAPE   H7Y15314   3.126   5.312   9.570 -0.9851  0.1179 -1.8450
  140SAPE   C3815315   3.290   5.393   9.478  0.0311 -0.1748  0.5275
  140SAPE   H8X15316   3.348   5.309   9.523 -1.3672  0.0037  2.8140
  140SAPE   H8Y15317   3.352   5.485   9.471  1.3729 -1.1806 -2.7439
  140SAPE   C3915318   3.237   5.340   9.342  0.5774  0.2886  0.1889
  140SAPE   H9X15319   3.199   5.433   9.293  1.6935  0.0742 -1.1295
  140SAPE   H9Y15320   3.152   5.269   9.353  1.8609 -1.1752  0.9773
  140SAPE  C31015321   3.346   5.280   9.253 -0.3534 -0.0990  0.1603
  140SAPE  H10X15322   3.397   5.201   9.313 -1.1412  0.3298  1.4195
  140SAPE  H10Y15323   3.426   5.351   9.224 -2.4948  2.4246  0.1365
  140SAPE  C31115324   3.308   5.214   9.121 -0.1689  0.0874  1.1426
  140SAPE  H11X15325   3.242   5.289   9.074  0.7537 -0.7621 -1.7054
  140SAPE  H11Y15326   3.240   5.129   9.142  0.6545 -1.5791 -2.1941
  140SAPE  C31215327   3.435   5.172   9.036 -0.3951  0.6697  0.2983
  140SAPE  H12X15328   3.479   5.080   9.079 -1.0827 -0.1181 -0.6240
  140SAPE  H12Y15329   3.508   5.255   9.045  1.0774 -0.6852  1.3777
  140SAPE  C31315330   3.400   5.163   8.883 -0.3141 -0.0384 -0.0628
  140SAPE  H13X15331   3.389   5.270   8.855  0.2889  0.0581  0.0657
  140SAPE  H13Y15332   3.307   5.102   8.875 -0.1978 -0.1923 -0.2384
  140SAPE  C31415333   3.511   5.109   8.793 -0.8315  0.2676  1.0550
  140SAPE  H14X15334   3.470   5.114   8.690 -1.7722 -1.2102  1.3309
  140SAPE  H14Y15335   3.541   5.005   8.819  0.0918  0.1753 -0.2620
  140SAPE  C31515336   3.635   5.197   8.801 -0.7294 -0.0850  0.2068
  140SAPE  H15X15337   3.677   5.194   8.904  2.3645  0.4569 -0.9115
  140SAPE  H15Y15338   3.619   5.304   8.774  1.2490  0.0200 -0.7189
  140SAPE  C31615339   3.740   5.157   8.690  0.0926 -0.2047 -0.1095
  140SAPE  H16X15340   3.816   5.237   8.704  1.3811 -0.9935 -2.2205
  140SAPE  H16Y15341   3.689   5.159   8.592 -1.8088 -1.5723  0.8088
  140SAPE  C31715342   3.811   5.016   8.707 -0.2906  0.3874 -0.0965
  140SAPE  H17X15343   3.727   4.948   8.679 -2.9790  3.9924 -1.4574
  140SAPE  H17Y15344   3.853   4.999   8.809  1.2231 -0.3858 -0.8140
  140SAPE  C31815345   3.930   4.998   8.618  0.0097  0.3259 -0.3418
  140SAPE  H18X15346   3.956   4.891   8.625  0.1806  0.4723  2.5783
  140SAPE  H18Y15347   4.021   5.050   8.654 -0.1215  1.3507 -1.4288
  140SAPE  H18Z15348   3.927   5.019   8.509 -1.5783 -1.5025 -0.6936
  141SAPE     N15349   2.779   5.542  10.769 -0.2790 -0.4863  0.2462
  141SAPE   HN115350   2.677   5.550  10.747  0.0383  2.8081 -0.5125
  141SAPE   HN215351   2.807   5.470  10.839  3.1992  0.8568  0.4161
  141SAPE   HN315352   2.818   5.635  10.795  1.1060 -0.4839 -1.6041
  141SAPE   C1215353   2.848   5.506  10.640 -0.1056 -0.5113 -0.1358
  141SAPE  H12A15354   2.774   5.497  10.557  0.2450 -0.7075 -0.4298
  141SAPE  H12B15355   2.888   5.403  10.652  0.8890 -0.0768  0.3635
  141SAPE   C1115356   2.960   5.602  10.586  0.4285 -0.2569  0.4124
  141SAPE  H11A15357   2.905   5.695  10.561  0.4714 -0.4941 -0.6199
  141SAPE  H11B15358   3.002   5.562  10.491 -1.9680  0.8169 -1.2151
  141SAPE     P15359   3.062   5.764  10.772 -0.0481 -0.1481 -0.2653
  141SAPE   O1315360   2.930   5.765  10.838  0.1887  0.2490  0.7242
  141SAPE   O1415361   3.180   5.750  10.858  0.3183  0.3168 -0.4773
  141SAPE   O1215362   3.060   5.631  10.685  0.3821  0.0611  0.2580
  141SAPE   O1115363   3.087   5.884  10.670  0.4355 -0.6345  0.0778
  141SAPE    C115364   2.980   5.955  10.621 -0.2560 -0.7930  0.3922
  141SAPE    HA15365   2.907   5.896  10.562  0.9840  0.1644 -2.2753
  141SAPE    HB15366   2.938   6.006  10.710  1.6897  0.9275  0.4128
  141SAPE    C215367   3.040   6.073  10.523 -0.2904  0.2513  0.2784
  141SAPE    HS15368   2.961   6.149  10.505 -0.6060 -0.1106  0.1011
  141SAPE   O2115369   3.084   6.024  10.396 -0.1900 -0.3704  0.1376
  141SAPE   C2115370   2.988   5.980  10.317 -0.8864  0.3021 -0.3815
  141SAPE   O2215371   2.873   6.023  10.336  0.3051 -0.3395  0.3545
  141SAPE   C2215372   3.047   5.902  10.195  0.5229  0.0439 -0.1866
  141SAPE   H2R15373   3.155   5.881  10.209  0.3998 -1.4953 -1.3093
  141SAPE   H2S15374   3.001   5.801  10.195 -0.5327  0.5109 -0.4794
  141SAPE    C315375   3.155   6.159  10.589  0.2453 -0.4553 -0.1087
  141SAPE    HX15376   3.234   6.084  10.610 -0.7119 -1.5723 -0.3637
  141SAPE    HY15377   3.120   6.193  10.689 -0.6875 -0.3029 -0.4710
  141SAPE   O3115378   3.206   6.268  10.502  0.5923 -0.5895  0.0276
  141SAPE   C3115379   3.127   6.366  10.477 -0.5146  0.4713  0.2483
  141SAPE   O3215380   3.021   6.400  10.530  0.3192 -0.0708 -0.1365
  141SAPE   C3215381   3.193   6.438  10.356 -0.2795 -0.5038 -0.2143
  141SAPE   H2X15382   3.302   6.418  10.350 -0.0890  0.3287  0.3874
  141SAPE   H2Y15383   3.168   6.545  10.367 -0.0703 -0.5160  0.4059
  141SAPE   C2315384   3.017   5.973  10.064 -0.4367 -0.0335  0.0250
  141SAPE   H3R15385   3.048   6.080  10.066 -1.7566  0.3722  1.3521
  141SAPE   H3S15386   2.907   5.972  10.048 -0.3247  0.0749 -0.7712
  141SAPE   C2415387   3.063   5.896   9.935  0.0152 -0.1823  0.1817
  141SAPE   H4R15388   3.031   5.954   9.846  2.3538 -0.2312 -0.7720
  141SAPE   H4S15389   3.016   5.795   9.940  0.5622 -0.5267 -1.2236
  141SAPE   C2515390   3.217   5.900   9.928 -0.1916  0.0196  0.4842
  141SAPE   H5R15391   3.270   5.878  10.022 -2.1062 -1.6161  1.2352
  141SAPE   C2615392   3.301   5.929   9.826  0.0920  0.2867  0.1347
  141SAPE   H6R15393   3.404   5.952   9.857  0.2057 -0.5821  0.4316
  141SAPE   C2715394   3.264   5.965   9.684 -0.1905  0.1901  0.9185
  141SAPE   H7R15395   3.335   6.043   9.649  0.4584 -0.0388  1.6872
  141SAPE   H7S15396   3.164   6.013   9.690 -0.7564 -1.0462  1.6572
  141SAPE   C2815397   3.264   5.843   9.596  0.4097  0.2551 -0.1058
  141SAPE   H8R15398   3.368   5.808   9.581  0.3253 -0.5636  1.0820
  141SAPE   C2915399   3.162   5.794   9.524  0.5743 -0.0411 -0.2442
  141SAPE   H9R15400   3.179   5.709   9.457  0.6872  0.4836 -0.8837
  141SAPE  C21015401   3.022   5.848   9.517 -0.4208 -0.2001  0.4707
  141SAPE  H10R15402   3.001   5.909   9.608 -0.6739 -0.2775  0.4656
  141SAPE  H10S15403   2.956   5.760   9.536 -3.8678  1.7673 -1.3836
  141SAPE  C21115404   2.986   5.918   9.390  0.0171 -0.4507 -0.1122
  141SAPE  H11R15405   2.969   6.026   9.401  0.0254 -0.3224 -1.2352
  141SAPE  C21215406   2.950   5.856   9.276 -0.1640  0.1640 -0.4075
  141SAPE  H12R15407   2.911   5.918   9.195  0.4066  0.0499 -0.7791
  141SAPE  C21315408   2.955   5.706   9.245  0.2114  0.3057  0.7666
  141SAPE  H13R15409   3.005   5.644   9.323 -1.8579 -3.8345 -0.8625
  141SAPE  H13S15410   2.995   5.679   9.145  0.0829 -1.1001  1.0647
  141SAPE  C21415411   2.815   5.640   9.246  0.1355 -0.6667 -0.8648
  141SAPE  H14R15412   2.783   5.599   9.343  1.2383  0.4142  0.0052
  141SAPE  C21515413   2.736   5.640   9.146 -0.2412 -0.0620 -0.0864
  141SAPE  H15R15414   2.637   5.596   9.165  1.4110 -2.7110  3.6888
  141SAPE  C21615415   2.760   5.708   9.008 -0.4002  0.3729  0.3766
  141SAPE  H16R15416   2.848   5.668   8.954 -1.8230 -2.9559  0.2782
  141SAPE  H16S15417   2.767   5.818   9.019 -2.7946  0.7417 -0.9257
  141SAPE  C21715418   2.649   5.677   8.904  0.1029 -0.2199  0.2113
  141SAPE  H17R15419   2.559   5.720   8.954  0.6339 -0.6856  1.6095
  141SAPE  H17S15420   2.637   5.570   8.880 -0.2116 -0.2868  0.6567
  141SAPE  C21815421   2.657   5.763   8.776 -0.6482  0.0973 -0.6878
  141SAPE  H18R15422   2.745   5.741   8.711 -0.2314  1.7706 -0.7275
  141SAPE  H18S15423   2.666   5.868   8.809 -1.4055 -0.4271  1.3181
  141SAPE  C21915424   2.534   5.746   8.685  0.0933  0.2595 -0.0739
  141SAPE  H19R15425   2.445   5.788   8.737 -0.4508  0.8448 -1.4384
  141SAPE  H19S15426   2.517   5.637   8.673 -1.1088  0.1697  1.9807
  141SAPE  C22015427   2.551   5.818   8.555  0.0874 -0.1561  0.3702
  141SAPE  H20R15428   2.647   5.790   8.506 -0.1667 -1.5453  0.6217
  141SAPE  H20S15429   2.559   5.927   8.571  1.9585 -0.2034 -0.0197
  141SAPE  H20T15430   2.467   5.781   8.492 -0.9658  2.3171  0.2402
  141SAPE   C3315431   3.153   6.382  10.214  0.4219 -0.2696  0.1336
  141SAPE   H3X15432   3.120   6.276  10.225  0.2863 -0.4697 -1.7678
  141SAPE   H3Y15433   3.245   6.397  10.154 -0.3381 -1.2244 -1.3460
  141SAPE   C3415434   3.039   6.455  10.138  0.2462 -0.4841  0.5990
  141SAPE   H4X15435   3.075   6.555  10.106  0.2298 -0.9003 -0.7952
  141SAPE   H4Y15436   2.957   6.472  10.211  0.1912 -0.6579  0.5777
  141SAPE   C3515437   2.976   6.370  10.023  0.5363  0.1392 -0.2149
  141SAPE   H5X15438   2.881   6.419   9.992  1.2113  2.1371  0.7444
  141SAPE   H5Y15439   2.940   6.279  10.075 -0.2139  1.1175  1.0334
  141SAPE   C3615440   3.067   6.327   9.907 -0.4338  0.1658 -0.1595
  141SAPE   H6X15441   3.128   6.242   9.944 -1.4656 -0.2605  0.6184
  141SAPE   H6Y15442   3.135   6.408   9.873  0.6946 -1.0907 -1.0166
  141SAPE   C3715443   2.985   6.271   9.788 -0.2822 -0.1025  0.4842
  141SAPE   H7X15444   2.897   6.210   9.817 -0.9598  0.5192 -0.2257
  141SAPE   H7Y15445   3.056   6.209   9.729  0.3085 -0.0785  1.1481
  141SAPE   C3815446   2.959   6.382   9.683 -0.1099  0.2550  0.3022
  141SAPE   H8X15447   3.049   6.448   9.684  1.4738 -1.7426 -1.2877
  141SAPE   H8Y15448   2.874   6.441   9.723  1.0871 -0.0380  3.5860
  141SAPE   C3915449   2.924   6.323   9.541  0.0165 -0.4757 -0.4579
  141SAPE   H9X15450   2.874   6.410   9.492 -0.7017  0.0660  1.1835
  141SAPE   H9Y15451   2.852   6.239   9.554 -1.6183  0.9086 -0.2254
  141SAPE  C31015452   3.041   6.290   9.446 -0.9023 -0.4294  0.0285
  141SAPE  H10X15453   3.087   6.191   9.470 -1.6377 -0.8899 -0.4012
  141SAPE  H10Y15454   3.123   6.365   9.449  1.1900 -2.3795 -2.7455
  141SAPE  C31115455   2.984   6.303   9.299 -0.3326 -0.2462 -0.4100
  141SAPE  H11X15456   2.945   6.406   9.284 -0.7835 -0.5239 -1.2037
  141SAPE  H11Y15457   2.888   6.253   9.276 -0.1401  0.1432 -2.1518
  141SAPE  C31215458   3.086   6.245   9.202 -0.5334 -0.9226 -0.2037
  141SAPE  H12X15459   3.079   6.135   9.199 -2.1022 -0.8385 -0.0425
  141SAPE  H12Y15460   3.190   6.278   9.227 -1.0749 -0.8351  2.2122
  141SAPE  C31315461   3.054   6.295   9.058  0.6580 -0.6646 -0.2923
  141SAPE  H13X15462   3.150   6.336   9.021  0.3882  0.2986  0.0476
  141SAPE  H13Y15463   2.984   6.381   9.051  0.5087 -0.8400 -1.0346
  141SAPE  C31415464   2.999   6.187   8.968  0.3893 -0.6564  0.1488
  141SAPE  H14X15465   2.975   6.234   8.870 -1.7015  0.3588  1.0730
  141SAPE  H14Y15466   2.907   6.141   9.011 -0.5683 -0.0389 -1.1867
  141SAPE  C31515467   3.104   6.073   8.928 -0.1412 -0.1170 -0.3323
  141SAPE  H15X15468   3.132   6.021   9.023  0.4764 -0.4493 -0.6865
  141SAPE  H15Y15469   3.201   6.120   8.901 -0.7935  3.5382  2.7542
  141SAPE  C31615470   3.051   5.975   8.823 -0.0720  0.2750  0.3248
  141SAPE  H16X15471   2.974   5.903   8.858 -1.4831  0.9233 -1.2501
  141SAPE  H16Y15472   3.136   5.914   8.788 -0.2342 -0.2017  0.7575
  141SAPE  C31715473   2.995   6.049   8.703 -0.3981 -0.1294 -0.0151
  141SAPE  H17X15474   3.057   6.135   8.670 -0.8324  0.0280 -0.4181
  141SAPE  H17Y15475   2.904   6.101   8.738 -0.8250 -0.6014 -0.4175
  141SAPE  C31815476   2.962   5.952   8.593 -0.3101  0.3570 -0.3525
  141SAPE  H18X15477   2.871   5.893   8.617 -1.0295  0.7124 -2.1095
  141SAPE  H18Y15478   3.045   5.879   8.588 -0.2729  0.3907 -0.2359
  141SAPE  H18Z15479   2.945   6.000   8.495 -0.9534 -0.6218 -0.7370
  142SAPE     N15480   4.153   3.881  10.753  0.5887  0.1755  0.2432
  142SAPE   HN115481   4.082   3.843  10.820  0.2082  0.8854  0.2558
  142SAPE   HN215482   4.198   3.961  10.802 -0.8273  0.1804  1.6105
  142SAPE   HN315483   4.112   3.909  10.662  2.1507  0.8355 -0.2879
  142SAPE   C1215484   4.264   3.778  10.748  0.3821 -0.1120 -0.1635
  142SAPE  H12A15485   4.221   3.687  10.703  0.2777  0.1464 -0.5896
  142SAPE  H12B15486   4.277   3.750  10.855 -2.1009 -0.5122  0.0799
  142SAPE   C1115487   4.390   3.828  10.672  0.7950 -0.1542 -0.4124
  142SAPE  H11A15488   4.373   3.827  10.562  0.3454 -1.0865 -0.3450
  142SAPE  H11B15489   4.460   3.743  10.681 -0.7743 -1.6031 -1.1316
  142SAPE     P15490   4.531   3.967  10.835 -0.0463 -0.1352 -0.1834
  142SAPE   O1315491   4.503   4.101  10.902  0.2514 -0.0413  0.3676
  142SAPE   O1415492   4.530   3.852  10.924  0.0791 -0.5063  0.1084
  142SAPE   O1215493   4.434   3.955  10.712  0.2065 -0.0310  0.3127
  142SAPE   O1115494   4.668   3.975  10.768  0.3771  0.3852  0.3929
  142SAPE    C115495   4.717   4.095  10.696 -0.6034 -0.4147 -0.4602
  142SAPE    HA15496   4.720   4.071  10.587  0.7614 -1.4065 -0.2365
  142SAPE    HB15497   4.652   4.182  10.716 -2.3076 -0.8976 -3.3613
  142SAPE    C215498   4.864   4.134  10.744  0.0195 -0.2463  0.3914
  142SAPE    HS15499   4.860   4.172  10.849 -1.0445  0.0900  0.2369
  142SAPE   O2115500   4.901   4.245  10.662 -0.6211 -0.4892 -0.0868
  142SAPE   C2115501   4.842   4.362  10.680  0.3868  0.3429  0.0860
  142SAPE   O2215502   4.763   4.396  10.772  0.5409 -0.2098  0.1020
  142SAPE   C2215503   4.893   4.447  10.570 -0.4505 -0.2867 -0.1096
  142SAPE   H2R15504   4.909   4.553  10.601 -0.5791 -0.3669  0.2395
  142SAPE   H2S15505   4.993   4.413  10.537 -0.7670 -0.1739 -1.2024
  142SAPE    C315506   4.961   4.014  10.728  0.1748  0.0852  0.5400
  142SAPE    HX15507   4.910   3.928  10.775 -0.6008  0.3525  0.2136
  142SAPE    HY15508   5.057   4.026  10.782  0.5763  0.0966 -0.1591
  142SAPE   O3115509   4.988   3.981  10.587  0.5960  0.1289  0.1225
  142SAPE   C3115510   5.094   4.026  10.523  0.1187  0.8194  0.1071
  142SAPE   O3215511   5.168   4.113  10.566  0.0835  0.2748  0.1144
  142SAPE   C3215512   5.102   3.967  10.386 -0.2755 -0.4077  0.2907
  142SAPE   H2X15513   5.014   3.992  10.323  0.6230  0.7112 -0.5627
  142SAPE   H2Y15514   5.125   3.859  10.394 -0.8329 -0.6135 -0.7108
  142SAPE   C2315515   4.791   4.442  10.455  0.0971 -0.3498  0.3464
  142SAPE   H3R15516   4.692   4.484  10.482  0.9357  1.7395  0.3262
  142SAPE   H3S15517   4.775   4.335  10.428  4.2677 -1.1358  0.3098
  142SAPE   C2415518   4.836   4.509  10.328 -0.3558 -0.3419 -0.2035
  142SAPE   H4R15519   4.850   4.618  10.344  0.6398 -0.7760  2.3289
  142SAPE   H4S15520   4.758   4.508  10.249 -1.5026 -0.0294  0.8910
  142SAPE   C2515521   4.968   4.462  10.262  0.3470 -0.4406  0.3264
  142SAPE   H5R15522   5.056   4.462  10.328  0.9205 -1.0352 -0.4244
  142SAPE   C2615523   4.981   4.399  10.147 -0.1398 -0.2531  0.4046
  142SAPE   H6R15524   5.079   4.367  10.108 -0.1660 -0.4873  0.5299
  142SAPE   C2715525   4.871   4.358  10.059  0.6897  0.0946 -1.0349
  142SAPE   H7R15526   4.770   4.336  10.100  0.8534 -1.4876 -1.4116
  142SAPE   H7S15527   4.904   4.262  10.015  0.9622  0.8382 -2.5514
  142SAPE   C2815528   4.852   4.458   9.953  0.6937  0.1113  1.1926
  142SAPE   H8R15529   4.913   4.549   9.967  0.3128  0.2897  1.6906
  142SAPE   C2915530   4.762   4.459   9.850 -0.2331 -0.9302 -0.2688
  142SAPE   H9R15531   4.777   4.544   9.782 -0.6428 -1.6815 -1.3142
  142SAPE  C21015532   4.661   4.359   9.813  0.2763 -0.1767  1.3213
  142SAPE  H10R15533   4.592   4.403   9.737 -0.2256  0.3962  2.0866
  142SAPE  H10S15534   4.585   4.348   9.894 -0.9324  1.8530  0.5331
  142SAPE  C21115535   4.710   4.226   9.774  0.5052  0.6942  0.0217
  142SAPE  H11R15536   4.736   4.155   9.855 -2.6487 -2.0343 -1.1201
  142SAPE  C21215537   4.716   4.175   9.651 -0.4969 -0.2114 -0.1440
  142SAPE  H12R15538   4.765   4.077   9.642  1.7742  0.8788 -0.5306
  142SAPE  C21315539   4.691   4.232   9.513 -0.6372  0.0998  0.0260
  142SAPE  H13R15540   4.587   4.272   9.508 -0.9430 -0.7557 -0.5031
  142SAPE  H13S15541   4.705   4.155   9.435  1.1197 -0.6321  1.0212
  142SAPE  C21415542   4.782   4.347   9.490  0.1224  0.3615  0.5436
  142SAPE  H14R15543   4.802   4.414   9.576  0.4706 -0.3460  1.0220
  142SAPE  C21515544   4.848   4.382   9.375 -0.5725  0.4676  0.2024
  142SAPE  H15R15545   4.911   4.472   9.376 -0.3616  0.3344 -0.6141
  142SAPE  C21615546   4.831   4.311   9.239 -1.1147  0.0978 -0.3341
  142SAPE  H16R15547   4.813   4.202   9.252 -0.2557 -0.2502 -1.8175
  142SAPE  H16S15548   4.926   4.329   9.184 -1.2923 -0.8366 -0.9854
  142SAPE  C21715549   4.711   4.370   9.165  0.8421  0.1110 -0.0801
  142SAPE  H17R15550   4.716   4.481   9.173  0.6763  0.0064  2.1381
  142SAPE  H17S15551   4.618   4.349   9.222  1.6726 -1.3741  0.7832
  142SAPE  C21815552   4.680   4.313   9.024 -0.3399 -0.1698  0.4266
  142SAPE  H18R15553   4.694   4.203   9.027  1.8079  0.0194 -0.7205
  142SAPE  H18S15554   4.754   4.357   8.954  1.1139  0.7252  2.4145
  142SAPE  C21915555   4.545   4.363   8.962 -0.4613 -0.8604 -0.0507
  142SAPE  H19R15556   4.553   4.344   8.853  2.9625 -2.2188  0.3095
  142SAPE  H19S15557   4.552   4.472   8.987 -1.5957 -0.6311 -0.6935
  142SAPE  C22015558   4.427   4.297   9.037 -0.2619 -0.1305 -0.4743
  142SAPE  H20R15559   4.425   4.325   9.144 -1.0838 -0.6037 -0.3619
  142SAPE  H20S15560   4.436   4.186   9.036  0.4426 -0.0959 -2.3434
  142SAPE  H20T15561   4.335   4.321   8.980 -0.5359 -2.2627 -1.0061
  142SAPE   C3315562   5.225   4.019  10.311 -0.3869  0.6244 -0.2273
  142SAPE   H3X15563   5.254   3.946  10.232  1.4682  0.8724  0.1700
  142SAPE   H3Y15564   5.309   4.014  10.383 -0.2088  2.8733 -0.2221
  142SAPE   C3415565   5.207   4.160  10.250  0.0486  0.5906  0.2910
  142SAPE   H4X15566   5.180   4.231  10.331 -1.8445  1.6606 -1.2054
  142SAPE   H4Y15567   5.126   4.152  10.174  0.0266 -0.8205  0.4282
  142SAPE   C3515568   5.341   4.196  10.182 -0.6100 -0.6252 -0.0151
  142SAPE   H5X15569   5.430   4.164  10.241 -0.3655 -2.7061 -1.4113
  142SAPE   H5Y15570   5.338   4.306  10.168 -2.2328 -0.7840 -1.1779
  142SAPE   C3615571   5.348   4.128  10.042 -0.2437 -0.3312 -0.2321
  142SAPE   H6X15572   5.318   4.021  10.046  1.2782 -0.7497  2.5437
  142SAPE   H6Y15573   5.456   4.138  10.017 -0.4368  1.7738 -0.3694
  142SAPE   C3715574   5.261   4.204   9.940  0.0169  0.5907 -0.5375
  142SAPE   H7X15575   5.282   4.313   9.945 -0.7001  0.6960  0.4266
  142SAPE   H7Y15576   5.154   4.196   9.968  0.3402  0.5913  0.7777
  142SAPE   C3815577   5.274   4.165   9.804 -0.4888  0.4050  0.0866
  142SAPE   H8X15578   5.278   4.054   9.799 -1.4535  0.3593  0.0108
  142SAPE   H8Y15579   5.370   4.204   9.765  0.3240  1.1171  2.6194
  142SAPE   C3915580   5.164   4.224   9.710  0.0002 -0.1342 -0.4017
  142SAPE   H9X15581   5.158   4.334   9.716 -1.9934 -0.0781 -2.1682
  142SAPE   H9Y15582   5.064   4.179   9.726 -0.1396  0.8317  1.7678
  142SAPE  C31015583   5.190   4.195   9.558 -0.1193 -0.0569 -0.8803
  142SAPE  H10X15584   5.098   4.227   9.505  0.6806  0.6054 -1.9002
  142SAPE  H10Y15585   5.205   4.085   9.557  2.5156  0.2253  0.2057
  142SAPE  C31115586   5.305   4.265   9.500 -0.5203  0.7819  0.6317
  142SAPE  H11X15587   5.400   4.247   9.555 -0.8625  0.6379  1.1932
  142SAPE  H11Y15588   5.291   4.375   9.510  0.3516  0.8863  0.7797
  142SAPE  C31215589   5.333   4.224   9.349 -0.8888 -0.2968 -0.4400
  142SAPE  H12X15590   5.306   4.118   9.332 -1.0998  0.2657 -4.5994
  142SAPE  H12Y15591   5.442   4.227   9.333 -0.4964  1.6051  1.9560
  142SAPE  C31315592   5.258   4.315   9.243  0.1626 -0.2071 -0.0085
  142SAPE  H13X15593   5.294   4.420   9.255  0.0162 -0.2164  0.5508
  142SAPE  H13Y15594   5.149   4.328   9.262  0.0529  1.5764 -1.5845
  142SAPE  C31415595   5.276   4.274   9.098  0.0391 -0.5212  0.3500
  142SAPE  H14X15596   5.304   4.167   9.094  2.0679 -0.0033 -2.4354
  142SAPE  H14Y15597   5.367   4.326   9.059  0.2160 -2.8602 -2.7125
  142SAPE  C31515598   5.166   4.321   9.005  0.4472 -0.4144 -0.4218
  142SAPE  H15X15599   5.126   4.417   9.045  0.6697  0.2073 -1.6538
  142SAPE  H15Y15600   5.084   4.246   9.007 -0.8074  0.9032  1.0964
  142SAPE  C31615601   5.190   4.354   8.858 -0.3984  0.2202 -1.0358
  142SAPE  H16X15602   5.277   4.423   8.857 -0.7478  0.6981  0.4417
  142SAPE  H16Y15603   5.098   4.400   8.816 -0.3464  0.5769 -0.7545
  142SAPE  C31715604   5.224   4.233   8.763 -0.3516 -0.5304  0.3885
  142SAPE  H17X15605   5.186   4.256   8.661 -0.7865 -2.8355 -0.0157
  142SAPE  H17Y15606   5.178   4.137   8.795 -2.5867  0.4204  0.2352
  142SAPE  C31815607   5.374   4.192   8.750 -0.7379  0.1380 -0.1825
  142SAPE  H18X15608   5.406   4.197   8.644 -2.1894  0.0472 -0.6417
  142SAPE  H18Y15609   5.390   4.090   8.793  0.8040  0.2902 -0.3471
  142SAPE  H18Z15610   5.437   4.261   8.810 -0.7197 -0.8689  1.0120
  143SAPE     N15611   0.684   3.102  11.037  0.4302  0.2899  0.0210
  143SAPE   HN115612   0.636   3.010  11.048  2.4892 -1.0916 -1.6527
  143SAPE   HN215613   0.779   3.083  11.000  0.8254  0.1132  1.0892
  143SAPE   HN315614   0.685   3.156  11.126  0.6332 -0.3239  0.3981
  143SAPE   C1215615   0.615   3.190  10.940  0.2166 -0.4055 -0.4799
  143SAPE  H12A15616   0.598   3.136  10.845  0.1668 -1.2918  0.0234
  143SAPE  H12B15617   0.680   3.279  10.925 -0.7586  0.1400 -1.6651
  143SAPE   C1115618   0.477   3.234  10.996 -0.5489  0.5115 -0.1904
  143SAPE  H11A15619   0.426   3.144  11.036  1.3899  0.2709  1.9737
  143SAPE  H11B15620   0.418   3.274  10.911 -2.0797  0.0578  0.6207
  143SAPE     P15621   0.480   3.492  11.091  0.2234  0.6872 -0.0133
  143SAPE   O1315622   0.459   3.538  11.231 -0.5257 -0.0854  0.2574
  143SAPE   O1415623   0.592   3.552  11.017  0.4714 -0.2842 -0.3291
  143SAPE   O1215624   0.495   3.332  11.100  0.0538  0.0274  0.5281
  143SAPE   O1115625   0.344   3.493  11.008 -0.0409  0.4605 -0.5450
  143SAPE    C115626   0.220   3.485  11.056  0.7644 -0.2275  0.3262
  143SAPE    HA15627   0.208   3.378  11.084  0.2856 -0.2690 -0.0054
  143SAPE    HB15628   0.212   3.542  11.151  0.4790  0.1054  0.1087
  143SAPE    C215629   0.103   3.517  10.952  0.2534 -0.4988  0.7422
  143SAPE    HS15630   0.014   3.530  11.017  0.6224  0.2522  1.1134
  143SAPE   O2115631   0.087   3.404  10.864  0.1489 -0.0368  0.0434
  143SAPE   C2115632  -0.041   3.389  10.816 -0.2864 -0.3067 -0.4352
  143SAPE   O2215633  -0.137   3.436  10.876  0.2941  0.3484 -0.2610
  143SAPE   C2215634  -0.044   3.322  10.679 -0.4377 -0.4070 -0.0154
  143SAPE   H2R15635  -0.036   3.409  10.610  1.9083  0.3471  1.1198
  143SAPE   H2S15636   0.042   3.252  10.686 -0.1079  0.0481  0.5728
  143SAPE    C315637   0.140   3.642  10.866  0.0710  0.2916 -0.7145
  143SAPE    HX15638   0.242   3.632  10.821  0.8693  0.1748  1.0422
  143SAPE    HY15639   0.134   3.726  10.939  2.2839  0.2442 -0.3971
  143SAPE   O3115640   0.049   3.668  10.754  0.3171  0.1612 -0.4179
  143SAPE   C3115641   0.073   3.778  10.682  0.5185 -0.8066 -0.0773
  143SAPE   O3215642   0.165   3.862  10.694  0.3834  0.2048 -0.0622
  143SAPE   C3215643  -0.039   3.787  10.583 -0.2262  0.0178 -0.5780
  143SAPE   H2X15644  -0.129   3.748  10.636 -0.1080  0.9892  0.3615
  143SAPE   H2Y15645   0.001   3.721  10.503 -0.0119 -0.8766  0.2499
  143SAPE   C2315646  -0.177   3.243  10.651 -0.1917  0.1673  0.0340
  143SAPE   H3R15647  -0.249   3.319  10.614  0.3864  0.6766 -0.0612
  143SAPE   H3S15648  -0.211   3.192  10.744 -0.0979  1.7137  0.9466
  143SAPE   C2415649  -0.163   3.122  10.552  0.0964 -0.2025  0.1920
  143SAPE   H4R15650  -0.263   3.074  10.544 -1.2109  1.8347  2.5417
  143SAPE   H4S15651  -0.089   3.051  10.593 -0.1803 -1.2388 -1.0545
  143SAPE   C2515652  -0.127   3.166  10.410 -0.2434  0.3349 -0.1846
  143SAPE   H5R15653  -0.140   3.274  10.392  2.4009  0.6159 -0.8411
  143SAPE   C2615654  -0.058   3.100  10.319  0.2260 -0.1648 -0.3084
  143SAPE   H6R15655  -0.027   3.140  10.222  0.1894 -0.5065 -0.4629
  143SAPE   C2715656   0.001   2.959  10.338 -0.0957 -0.2760 -0.1908
  143SAPE   H7R15657  -0.049   2.908  10.423  0.9862 -0.3450  0.4149
  143SAPE   H7S15658   0.112   2.959  10.342 -0.0544 -3.5243  1.3188
  143SAPE   C2815659  -0.033   2.884  10.213 -0.4224 -0.6499 -0.0158
  143SAPE   H8R15660   0.030   2.900  10.124  1.4619 -0.5883  1.2640
  143SAPE   C2915661  -0.118   2.778  10.204 -0.3142 -0.1196  0.0286
  143SAPE   H9R15662  -0.125   2.729  10.106 -1.1904 -1.1810  0.5969
  143SAPE  C21015663  -0.205   2.728  10.313 -0.2951  0.0364 -0.3562
  143SAPE  H10R15664  -0.311   2.722  10.281 -0.5129 -2.1421  0.5701
  143SAPE  H10S15665  -0.209   2.787  10.407 -2.3381 -0.3336 -0.1477
  143SAPE  C21115666  -0.157   2.584  10.337  0.0193  0.3041 -0.0927
  143SAPE  H11R15667  -0.048   2.569  10.334  0.1989  1.2460  1.1604
  143SAPE  C21215668  -0.228   2.487  10.385  0.2662  0.2041 -0.2041
  143SAPE  H12R15669  -0.182   2.390  10.410  1.1256  0.3828 -1.0571
  143SAPE  C21315670  -0.379   2.488  10.412  0.0480 -0.2126 -0.5429
  143SAPE  H13R15671  -0.418   2.590  10.389  1.2933  0.4609  0.1841
  143SAPE  H13S15672  -0.389   2.479  10.522  0.2484  1.0882 -0.3992
  143SAPE  C21415673  -0.457   2.383  10.341 -0.3484 -0.6537  0.2570
  143SAPE  H14R15674  -0.472   2.286  10.391 -3.5636 -1.6583 -2.2971
  143SAPE  C21515675  -0.532   2.389  10.236 -0.6124 -0.1143 -0.3280
  143SAPE  H15R15676  -0.568   2.290  10.203 -1.5573  0.1155 -0.0194
  143SAPE  C21615677  -0.553   2.509  10.152  0.4464 -0.7929 -0.0170
  143SAPE  H16R15678  -0.577   2.598  10.214 -0.5557  0.7387 -2.4775
  143SAPE  H16S15679  -0.647   2.499  10.094  0.0680  3.8202 -0.5646
  143SAPE  C21715680  -0.446   2.554  10.053 -0.5736 -0.1752  0.4048
  143SAPE  H17R15681  -0.346   2.561  10.101  1.1695  0.7306 -3.0919
  143SAPE  H17S15682  -0.469   2.651  10.004 -2.3564 -1.2118 -0.9408
  143SAPE  C21815683  -0.440   2.467   9.923 -0.3583 -0.5612 -0.5902
  143SAPE  H18R15684  -0.368   2.527   9.862 -1.2222 -0.4584 -1.5257
  143SAPE  H18S15685  -0.542   2.479   9.880  0.3410  1.5587 -1.8439
  143SAPE  C21915686  -0.392   2.329   9.933  0.2922  0.5443  0.0194
  143SAPE  H19R15687  -0.484   2.271   9.956  0.6468  0.4709  1.2960
  143SAPE  H19S15688  -0.316   2.320  10.012  0.2536  1.8877  0.2449
  143SAPE  C22015689  -0.331   2.294   9.797 -0.3485 -0.1199 -0.0006
  143SAPE  H20R15690  -0.247   2.360   9.766 -0.6458 -0.6391 -2.0610
  143SAPE  H20S15691  -0.409   2.309   9.719 -0.1724 -1.0418 -0.3617
  143SAPE  H20T15692  -0.299   2.188   9.797  2.3241  0.5858 -1.6666
  143SAPE   C3315693  -0.069   3.931  10.533  0.3743  0.7705  0.3764
  143SAPE   H3X15694  -0.079   4.007  10.613 -1.2499  1.2619 -0.2385
  143SAPE   H3Y15695  -0.170   3.926  10.485  0.6564  1.2874 -0.2911
  143SAPE   C3415696   0.032   3.989  10.431 -0.2979 -0.4204 -0.3102
  143SAPE   H4X15697   0.034   3.930  10.337 -0.2351 -0.7205 -0.1248
  143SAPE   H4Y15698   0.135   3.992  10.474 -0.6862 -1.0139  0.6967
  143SAPE   C3515699  -0.012   4.135  10.400 -0.5694  0.9180  0.1118
  143SAPE   H5X15700   0.003   4.196  10.492  0.7876  0.4858  0.1995
  143SAPE   H5Y15701  -0.120   4.134  10.375 -0.5310  1.6278 -0.0922
  143SAPE   C3615702   0.066   4.201  10.291 -0.7741 -0.6942  0.2644
  143SAPE   H6X15703   0.098   4.133  10.209  2.9895 -1.7201  2.3129
  143SAPE   H6Y15704   0.158   4.248  10.333 -1.2026  0.3617  0.0660
  143SAPE   C3715705  -0.021   4.308  10.214 -0.4900 -0.6155  0.6491
  143SAPE   H7X15706  -0.104   4.246  10.173  0.6634 -2.1271  0.5192
  143SAPE   H7Y15707   0.036   4.343  10.126 -1.6683 -1.3800 -0.4586
  143SAPE   C3815708  -0.061   4.429  10.298 -0.1978 -0.8055 -0.2877
  143SAPE   H8X15709   0.032   4.480  10.330 -0.2201 -1.3701  0.7084
  143SAPE   H8Y15710  -0.095   4.401  10.400 -0.8037  0.0653 -0.2396
  143SAPE   C3915711  -0.171   4.529  10.245  0.0524 -0.6131  0.5941
  143SAPE   H9X15712  -0.255   4.476  10.196  2.0027 -1.3803 -2.1397
  143SAPE   H9Y15713  -0.136   4.583  10.155  0.2107  0.8064  1.4759
  143SAPE  C31015714  -0.232   4.622  10.350 -0.0327 -0.0961  0.7383
  143SAPE  H10X15715  -0.168   4.705  10.385  0.3603 -0.1569  0.1757
  143SAPE  H10Y15716  -0.243   4.557  10.440 -1.8097 -0.0039  0.6238
  143SAPE  C31115717  -0.380   4.674  10.316 -0.3837  0.0450  0.4614
  143SAPE  H11X15718  -0.411   4.742  10.398  0.8728 -0.6680  1.5674
  143SAPE  H11Y15719  -0.453   4.590  10.314 -1.4449  0.9576 -1.0064
  143SAPE  C31215720  -0.385   4.758  10.185 -0.5269  0.0558 -0.6148
  143SAPE  H12X15721  -0.346   4.685  10.111  1.7433  0.1974  0.3714
  143SAPE  H12Y15722  -0.307   4.834  10.199  1.2575 -1.6087 -1.0860
  143SAPE  C31315723  -0.514   4.801  10.121  0.3716 -0.2241  0.3716
  143SAPE  H13X15724  -0.585   4.845  10.195 -2.9642 -1.9057 -1.6054
  143SAPE  H13Y15725  -0.566   4.711  10.082 -0.5390 -0.3640  1.8030
  143SAPE  C31415726  -0.475   4.897  10.008  0.0174  0.4740 -0.5726
  143SAPE  H14X15727  -0.570   4.930   9.962 -0.1911 -1.5890 -1.7641
  143SAPE  H14Y15728  -0.419   4.852   9.923  3.1970 -0.2085  1.6941
  143SAPE  C31515729  -0.403   5.018  10.061 -0.8872 -0.0660  0.3271
  143SAPE  H15X15730  -0.292   5.019  10.073 -0.7815 -0.3243 -0.5412
  143SAPE  H15Y15731  -0.437   5.018  10.167 -2.1100  1.5089 -0.0295
  143SAPE  C31615732  -0.436   5.153   9.992 -0.4523  0.0806 -0.6015
  143SAPE  H16X15733  -0.381   5.232  10.047 -0.9566 -0.3551  0.5826
  143SAPE  H16Y15734  -0.544   5.178  10.000 -0.2496  0.7011  0.4859
  143SAPE  C31715735  -0.400   5.162   9.847  0.4581  0.6661  0.3520
  143SAPE  H17X15736  -0.466   5.100   9.783  0.5224  0.8675  0.0892
  143SAPE  H17Y15737  -0.296   5.122   9.835 -1.2451 -4.3985  0.0038
  143SAPE  C31815738  -0.430   5.306   9.789  0.1059  0.1830  1.2423
  143SAPE  H18X15739  -0.531   5.342   9.818 -2.2271 -4.0664 -0.7133
  143SAPE  H18Y15740  -0.420   5.301   9.678  1.7033 -1.2932  1.4201
  143SAPE  H18Z15741  -0.355   5.383   9.815 -1.3772  1.9219  0.6408
  144SAPE     N15742   2.916   3.369  11.042 -0.4776 -0.2641  0.0219
  144SAPE   HN115743   3.001   3.377  10.983 -1.9154  2.9592 -1.8613
  144SAPE   HN215744   2.872   3.463  11.050 -0.3767 -0.0188 -2.0165
  144SAPE   HN315745   2.941   3.329  11.135 -1.1705 -1.2478 -0.2013
  144SAPE   C1215746   2.816   3.266  10.983 -0.4166 -0.3162  0.0100
  144SAPE  H12A15747   2.721   3.290  11.034  0.5316 -0.9777  2.2092
  144SAPE  H12B15748   2.841   3.162  11.014  0.3181  0.8948  4.1511
  144SAPE   C1115749   2.786   3.290  10.832 -0.2295 -0.2194 -0.1723
  144SAPE  H11A15750   2.716   3.211  10.799  0.4947 -1.2761  0.7290
  144SAPE  H11B15751   2.879   3.271  10.774 -0.2804  0.3652 -0.4467
  144SAPE     P15752   2.734   3.487  10.662  0.4942 -0.2228 -0.2572
  144SAPE   O1315753   2.607   3.561  10.648  0.2425  0.8251  0.5648
  144SAPE   O1415754   2.858   3.570  10.655 -0.1925  0.1792 -0.4975
  144SAPE   O1215755   2.731   3.424  10.806  0.3716  0.2872 -0.3325
  144SAPE   O1115756   2.738   3.366  10.566 -0.1060 -0.0057 -0.2808
  144SAPE    C115757   2.852   3.317  10.492 -0.0208 -0.2024 -0.1933
  144SAPE    HA15758   2.946   3.338  10.548  1.1392 -1.7400 -1.4626
  144SAPE    HB15759   2.846   3.206  10.491 -3.5433 -0.1297  0.5075
  144SAPE    C215760   2.856   3.367  10.346 -0.7420 -0.2918  0.1326
  144SAPE    HS15761   2.916   3.461  10.342  0.2005 -0.8906 -0.3817
  144SAPE   O2115762   2.728   3.391  10.294 -0.6631 -0.1087 -0.6122
  144SAPE   C2115763   2.683   3.513  10.297  0.3364  0.6213  0.5525
  144SAPE   O2215764   2.751   3.615  10.313 -0.8148 -0.3802  0.7335
  144SAPE   C2215765   2.536   3.509  10.273  0.2831  0.5766  0.0638
  144SAPE   H2R15766   2.508   3.407  10.239  0.8692 -0.0916  1.4901
  144SAPE   H2S15767   2.482   3.536  10.367 -0.4020  1.2216 -0.5038
  144SAPE    C315768   2.945   3.283  10.248  0.1658  0.4419  0.0475
  144SAPE    HX15769   2.908   3.180  10.269  1.7478 -0.4506 -1.3407
  144SAPE    HY15770   3.053   3.283  10.274  0.4510 -0.6495 -1.0476
  144SAPE   O3115771   2.904   3.313  10.114 -0.6726  0.1863 -0.0512
  144SAPE   C3115772   2.939   3.221  10.027  0.0669  0.2359 -0.4992
  144SAPE   O3215773   3.010   3.121  10.051  0.4095  0.2395 -0.1069
  144SAPE   C3215774   2.877   3.255   9.884  0.2242 -0.1147 -0.1135
  144SAPE   H2X15775   2.838   3.358   9.875 -1.5434 -0.6788  0.6101
  144SAPE   H2Y15776   2.788   3.191   9.864 -1.0883  2.0958 -1.8647
  144SAPE   C2315777   2.482   3.608  10.159 -0.3689  0.6516  0.0051
  144SAPE   H3R15778   2.505   3.708  10.202  2.7149 -0.5357  1.4117
  144SAPE   H3S15779   2.371   3.599  10.157 -0.2016 -2.3610  0.0064
  144SAPE   C2415780   2.550   3.593  10.023 -0.3252 -0.3788 -0.0186
  144SAPE   H4R15781   2.480   3.570   9.941  0.2143  0.6477 -0.8020
  144SAPE   H4S15782   2.603   3.496  10.019 -1.0258 -0.8029  0.7701
  144SAPE   C2515783   2.656   3.706   9.993 -0.0246  0.3674 -0.4203
  144SAPE   H5R15784   2.717   3.733  10.080  0.0918  2.3172 -1.0637
  144SAPE   C2615785   2.687   3.755   9.874 -0.1497 -0.3697 -0.1080
  144SAPE   H6R15786   2.767   3.829   9.862 -0.7471  0.4202  0.6225
  144SAPE   C2715787   2.621   3.708   9.749  0.6123  0.2839 -0.1731
  144SAPE   H7R15788   2.516   3.702   9.786  0.7114 -0.0129  0.0660
  144SAPE   H7S15789   2.642   3.601   9.724 -0.0600 -0.4866  2.2817
  144SAPE   C2815790   2.630   3.806   9.638  0.1730  0.2193 -0.1032
  144SAPE   H8R15791   2.584   3.905   9.654  2.2704  1.5379 -1.5915
  144SAPE   C2915792   2.677   3.781   9.514 -0.5052  0.4660 -0.8359
  144SAPE   H9R15793   2.678   3.860   9.438  0.9622  0.1353 -1.1895
  144SAPE  C21015794   2.726   3.643   9.465  0.0713 -0.1511 -0.1950
  144SAPE  H10R15795   2.705   3.641   9.356 -0.7554  0.7613 -0.0666
  144SAPE  H10S15796   2.667   3.555   9.500 -0.0747  0.1428  0.3117
  144SAPE  C21115797   2.874   3.614   9.494 -0.4974 -0.0379 -0.9268
  144SAPE  H11R15798   2.891   3.632   9.602  0.4542 -0.8656 -0.9316
  144SAPE  C21215799   2.981   3.589   9.421  0.1170  0.1432  0.3827
  144SAPE  H12R15800   3.073   3.562   9.475 -1.3711  3.1270  4.9597
  144SAPE  C21315801   2.983   3.569   9.273  0.0625 -0.4055 -0.2191
  144SAPE  H13R15802   2.882   3.544   9.235  0.3756 -1.6555 -0.2753
  144SAPE  H13S15803   3.038   3.477   9.247  0.5569  0.0036 -0.6339
  144SAPE  C21415804   3.031   3.693   9.209  0.8515 -0.3835  0.4275
  144SAPE  H14R15805   3.140   3.709   9.218  0.6241  0.2687  3.0490
  144SAPE  C21515806   2.968   3.804   9.153  0.1828 -0.1633 -0.4344
  144SAPE  H15R15807   3.034   3.878   9.105 -1.6373  1.8268 -0.0322
  144SAPE  C21615808   2.821   3.840   9.143  0.7118 -0.2865  0.7776
  144SAPE  H16R15809   2.793   3.910   9.224 -1.6866  1.4061 -1.3496
  144SAPE  H16S15810   2.750   3.755   9.157  0.0345  0.0233 -0.6249
  144SAPE  C21715811   2.770   3.902   9.009  1.1730 -0.4150  0.6179
  144SAPE  H17R15812   2.848   3.896   8.930  0.1222  0.0852 -0.4835
  144SAPE  H17S15813   2.737   4.008   9.019  0.3599 -0.6413  0.3411
  144SAPE  C21815814   2.660   3.820   8.941 -0.3793 -0.7260 -0.1294
  144SAPE  H18R15815   2.567   3.822   9.002  0.6221 -3.6597  1.7028
  144SAPE  H18S15816   2.681   3.711   8.945 -0.9430 -0.8552  3.8822
  144SAPE  C21915817   2.618   3.867   8.799  0.1732 -0.3299 -0.0152
  144SAPE  H19R15818   2.702   3.840   8.732 -0.7116 -0.8539 -0.9397
  144SAPE  H19S15819   2.597   3.975   8.787  0.4849 -0.1714  0.8020
  144SAPE  C22015820   2.500   3.784   8.744  0.2370 -0.7583 -0.6874
  144SAPE  H20R15821   2.467   3.832   8.650  1.0705 -1.8340 -1.5617
  144SAPE  H20S15822   2.416   3.782   8.818  0.8718 -0.1084  0.0639
  144SAPE  H20T15823   2.521   3.676   8.728 -1.7956 -0.8956 -3.0432
  144SAPE   C3315824   2.995   3.218   9.778  0.5037 -0.4822  0.3382
  144SAPE   H3X15825   3.033   3.117   9.804  0.1246 -0.7732 -0.2299
  144SAPE   H3Y15826   3.080   3.289   9.794  0.7455  0.1459 -3.0186
  144SAPE   C3415827   2.945   3.231   9.630  0.3136 -0.3829 -0.3305
  144SAPE   H4X15828   2.922   3.338   9.609  2.2965 -0.3388 -2.8445
  144SAPE   H4Y15829   2.852   3.169   9.624 -0.8853  1.1814  1.0532
  144SAPE   C3515830   3.046   3.175   9.535  0.0731  0.3890  0.2082
  144SAPE   H5X15831   3.045   3.064   9.543 -1.1567  0.3056 -0.9068
  144SAPE   H5Y15832   3.148   3.215   9.554 -0.2014  0.2764  2.1294
  144SAPE   C3615833   3.021   3.226   9.388 -0.0819  0.0419 -0.2227
  144SAPE   H6X15834   3.104   3.210   9.315  0.9835  0.1577  0.9300
  144SAPE   H6Y15835   2.968   3.323   9.377 -1.1970 -0.6650 -1.3700
  144SAPE   C3715836   2.910   3.136   9.326  0.1858 -0.4718 -0.7137
  144SAPE   H7X15837   2.813   3.156   9.377 -0.8715 -0.0339 -2.7958
  144SAPE   H7Y15838   2.942   3.031   9.343 -1.3416 -0.5549  2.3767
  144SAPE   C3815839   2.894   3.185   9.183 -0.0582  0.0781  0.0919
  144SAPE   H8X15840   2.863   3.291   9.175 -1.0027  0.1111  3.0267
  144SAPE   H8Y15841   2.821   3.119   9.132  1.9870  0.0980 -3.1244
  144SAPE   C3915842   3.011   3.160   9.085  0.2972  0.0032  0.1806
  144SAPE   H9X15843   3.029   3.052   9.102 -3.3256 -1.1422 -2.2871
  144SAPE   H9Y15844   3.103   3.215   9.116  0.4612 -0.1609 -0.0147
  144SAPE  C31015845   2.962   3.185   8.941  0.1864  0.8435  0.8445
  144SAPE  H10X15846   2.882   3.262   8.942  0.4835  1.2451 -1.5163
  144SAPE  H10Y15847   2.918   3.088   8.910  0.6585  0.7293  0.5359
  144SAPE  C31115848   3.067   3.228   8.846 -0.4304  0.1094  0.2764
  144SAPE  H11X15849   3.068   3.166   8.754  1.4977  0.2065  0.2013
  144SAPE  H11Y15850   3.166   3.227   8.896 -1.5436 -1.7617  2.6514
  144SAPE  C31215851   3.052   3.374   8.800  0.7340 -0.6848 -0.4001
  144SAPE  H12X15852   3.093   3.449   8.871  0.6840 -1.0247 -0.0103
  144SAPE  H12Y15853   2.943   3.399   8.794  0.4989 -1.4693  0.3783
  144SAPE  C31315854   3.123   3.403   8.668  0.4193  0.2370  0.3497
  144SAPE  H13X15855   3.073   3.348   8.586  1.8758 -0.0312 -0.3957
  144SAPE  H13Y15856   3.223   3.355   8.670 -0.7772 -2.4054  0.4222
  144SAPE  C31415857   3.128   3.548   8.615  0.2743 -0.5457 -0.5312
  144SAPE  H14X15858   3.198   3.555   8.530 -0.1645  0.9362 -0.7915
  144SAPE  H14Y15859   3.174   3.600   8.702 -0.8563  1.1208 -0.8914
  144SAPE  C31515860   2.991   3.614   8.606  0.2620 -1.2194  0.6646
  144SAPE  H15X15861   2.929   3.603   8.697 -0.6833  4.2007  1.0174
  144SAPE  H15Y15862   2.931   3.571   8.522  0.8949  0.5906 -0.7896
  144SAPE  C31615863   2.998   3.762   8.577  0.2553 -0.1199  0.3852
  144SAPE  H16X15864   3.051   3.819   8.656 -0.3067  1.4979 -0.3470
  144SAPE  H16Y15865   2.895   3.803   8.583 -0.3381 -1.6200  0.7709
  144SAPE  C31715866   3.035   3.795   8.431 -0.0025  0.2108  0.6594
  144SAPE  H17X15867   2.955   3.756   8.366  0.7353  0.1287 -0.2276
  144SAPE  H17Y15868   3.128   3.741   8.403  0.7542 -0.0281  3.3803
  144SAPE  C31815869   3.055   3.941   8.409 -0.3034  0.1930 -0.3706
  144SAPE  H18X15870   2.979   3.999   8.465  1.6428  3.8346 -1.2299
  144SAPE  H18Y15871   3.040   3.976   8.305  0.9725 -2.1885 -1.4429
  144SAPE  H18Z15872   3.160   3.963   8.440  0.6550 -4.1687  0.2301
  145SAPE     N15873   5.894   1.964  11.461 -0.4084 -0.2634  0.3460
  145SAPE   HN115874   5.888   1.972  11.565  0.3007  2.1439  0.2797
  145SAPE   HN215875   5.860   2.058  11.430 -0.0354  0.2437  1.3907
  145SAPE   HN315876   5.829   1.888  11.433 -0.1334 -0.9862  1.5773
  145SAPE   C1215877   6.034   1.933  11.409 -0.3594 -0.3029  0.9412
  145SAPE  H12A15878   6.064   1.845  11.469 -1.2576 -0.7949  0.6799
  145SAPE  H12B15879   6.097   2.025  11.409 -0.2318 -0.3356 -0.8617
  145SAPE   C1115880   6.003   1.898  11.259  0.0885  0.2614 -0.0897
  145SAPE  H11A15881   5.927   1.817  11.269 -0.9810  1.2585  0.0579
  145SAPE  H11B15882   6.094   1.859  11.209 -0.8220 -2.8805  0.5038
  145SAPE     P15883   6.031   2.100  11.102  0.0783  0.2715  0.4014
  145SAPE   O1315884   5.953   2.213  11.060  0.3457 -0.1539  0.0144
  145SAPE   O1415885   6.145   2.126  11.186 -0.5979  0.0177 -0.2610
  145SAPE   O1215886   5.935   2.002  11.190  0.8215 -0.3358  0.3119
  145SAPE   O1115887   6.066   2.011  10.983  0.1286  0.4675  0.7818
  145SAPE    C115888   6.028   1.874  10.958  0.1348 -0.1592  0.0820
  145SAPE    HA15889   6.114   1.809  10.987  0.3849  0.9419  1.9449
  145SAPE    HB15890   5.943   1.834  11.017  1.3366 -1.6601  0.8850
  145SAPE    C215891   6.003   1.841  10.808 -0.3718 -0.8089  0.1107
  145SAPE    HS15892   5.993   1.731  10.795 -0.5390 -0.9609  1.4607
  145SAPE   O2115893   6.107   1.896  10.716 -0.2955 -0.5376  0.4215
  145SAPE   C2115894   6.220   1.830  10.715 -0.4021  0.4502  0.5742
  145SAPE   O2215895   6.247   1.734  10.786 -0.0502  0.0462 -0.3400
  145SAPE   C2215896   6.317   1.900  10.618  0.3062 -0.6343 -0.0258
  145SAPE   H2R15897   6.366   1.981  10.675  1.0368 -1.8908  1.1915
  145SAPE   H2S15898   6.393   1.822  10.599  0.0544 -1.6838  2.8071
  145SAPE    C315899   5.867   1.908  10.774  0.6376 -0.4228  0.4666
  145SAPE    HX15900   5.847   2.012  10.805  0.0490 -0.1771 -0.6590
  145SAPE    HY15901   5.791   1.844  10.825 -1.2686  0.0526 -1.5903
  145SAPE   O3115902   5.835   1.900  10.633 -0.0530 -0.4478 -0.2015
  145SAPE   C3115903   5.855   2.010  10.561  0.4096 -0.5198  0.0528
  145SAPE   O3215904   5.886   2.120  10.603  0.5206 -0.2520  0.2957
  145SAPE   C3215905   5.846   1.969  10.410  0.1402 -0.3343  0.1168
  145SAPE   H2X15906   5.737   1.968  10.393  0.3060  0.6478 -1.1781
  145SAPE   H2Y15907   5.879   1.864  10.397 -3.1248 -1.4336  0.0433
  145SAPE   C2315908   6.253   1.953  10.489  0.0339 -0.2351  0.3581
  145SAPE   H3R15909   6.190   2.044  10.503 -0.9495 -0.1386 -3.5103
  145SAPE   H3S15910   6.181   1.886  10.437 -0.3435 -0.7512  1.5148
  145SAPE   C2415911   6.359   1.996  10.386  0.6172 -0.5767  0.3669
  145SAPE   H4R15912   6.435   1.915  10.388 -0.0780 -1.2634 -0.2671
  145SAPE   H4S15913   6.418   2.086  10.412  1.0243 -0.0442 -2.1195
  145SAPE   C2515914   6.314   2.029  10.244  0.3709 -0.5168  0.3955
  145SAPE   H5R15915   6.217   2.081  10.237 -0.6592 -2.5600 -3.5423
  145SAPE   C2615916   6.381   1.994  10.131  0.8509 -0.3537 -0.3708
  145SAPE   H6R15917   6.358   2.037  10.032 -1.2235 -2.6282 -0.9810
  145SAPE   C2715918   6.510   1.917  10.141  0.8161  0.0008  0.0599
  145SAPE   H7R15919   6.477   1.815  10.112 -0.2273  0.2091  0.4779
  145SAPE   H7S15920   6.550   1.905  10.244 -1.4349 -0.4346  0.9360
  145SAPE   C2815921   6.621   1.964  10.049  1.1424 -0.3424  0.7218
  145SAPE   H8R15922   6.688   2.044  10.086  1.5328 -0.3506  0.0457
  145SAPE   C2915923   6.631   1.928   9.918 -0.1134  0.6874  0.4542
  145SAPE   H9R15924   6.723   1.964   9.870 -1.2719  0.5276 -2.0283
  145SAPE  C21015925   6.554   1.839   9.827 -0.0253 -0.3537  0.3341
  145SAPE  H10R15926   6.480   1.778   9.883  0.6608 -0.7960  0.7715
  145SAPE  H10S15927   6.637   1.773   9.795  0.3539 -0.2503  1.0810
  145SAPE  C21115928   6.479   1.913   9.721  0.4854 -0.5603 -1.0589
  145SAPE  H11R15929   6.374   1.925   9.754  0.3295  1.0804 -2.0234
  145SAPE  C21215930   6.516   1.954   9.596 -0.3700 -1.0630  0.0345
  145SAPE  H12R15931   6.457   2.013   9.525 -0.1814 -1.0851 -0.1414
  145SAPE  C21315932   6.659   1.940   9.533  0.3537  0.5125 -1.1234
  145SAPE  H13R15933   6.728   1.906   9.614  0.6247 -0.5522 -1.7813
  145SAPE  H13S15934   6.701   2.041   9.514 -1.0214  1.2761 -0.2524
  145SAPE  C21415935   6.669   1.828   9.434 -0.5562  0.3466 -0.1850
  145SAPE  H14R15936   6.602   1.744   9.459  2.1051 -2.3110 -1.3570
  145SAPE  C21515937   6.726   1.832   9.316  0.5022  0.0749  0.0307
  145SAPE  H15R15938   6.711   1.746   9.250 -2.0413  0.5035 -0.0481
  145SAPE  C21615939   6.805   1.941   9.252  0.3741 -0.5329  0.3904
  145SAPE  H16R15940   6.869   1.975   9.336 -0.2920 -4.4847  2.7511
  145SAPE  H16S15941   6.734   2.021   9.220 -0.2679 -1.4633 -0.6112
  145SAPE  C21715942   6.890   1.899   9.137 -0.2951  0.1142 -0.0065
  145SAPE  H17R15943   6.830   1.852   9.057  0.8331 -0.1125 -0.7426
  145SAPE  H17S15944   6.968   1.825   9.163 -0.4797  0.1856  0.7696
  145SAPE  C21815945   6.958   2.025   9.073  0.5507 -0.2874  0.1856
  145SAPE  H18R15946   7.019   2.090   9.138 -0.6746  1.9636 -0.7875
  145SAPE  H18S15947   6.879   2.094   9.034  0.4877  0.1328  1.0350
  145SAPE  C21915948   7.047   1.986   8.955  0.1377  0.6208  0.0518
  145SAPE  H19R15949   7.044   2.075   8.888  3.7143  1.0543  0.2396
  145SAPE  H19S15950   7.006   1.900   8.899 -0.6208  1.0131 -0.0030
  145SAPE  C22015951   7.203   1.967   8.990 -0.4851 -0.2431 -0.2730
  145SAPE  H20R15952   7.253   2.065   9.007  3.6528 -2.0341 -1.1360
  145SAPE  H20S15953   7.257   1.919   8.906  1.3449 -1.7188  1.6311
  145SAPE  H20T15954   7.215   1.905   9.081 -1.7238 -0.6128 -0.3450
  145SAPE   C3315955   5.904   2.078  10.313  0.3710  0.1673  0.3679
  145SAPE   H3X15956   6.013   2.076  10.291  0.5847 -1.2273  1.4818
  145SAPE   H3Y15957   5.908   2.181  10.354  2.5352 -0.0266  0.7930
  145SAPE   C3415958   5.813   2.088  10.188  0.0957  0.2904 -0.6711
  145SAPE   H4X15959   5.704   2.098  10.209  0.2993  1.8444 -0.2759
  145SAPE   H4Y15960   5.819   1.991  10.133 -0.7122 -1.2460  1.7811
  145SAPE   C3515961   5.837   2.216  10.110 -0.2296  0.5886 -1.1880
  145SAPE   H5X15962   5.891   2.290  10.173  1.1216 -0.8842 -0.5499
  145SAPE   H5Y15963   5.739   2.264  10.087 -0.0416  1.0722 -0.9843
  145SAPE   C3615964   5.903   2.205   9.975  0.5085  0.2265  0.0218
  145SAPE   H6X15965   5.889   2.296   9.913  1.8054 -0.2289 -0.9974
  145SAPE   H6Y15966   5.853   2.120   9.924  0.7751 -0.3814  0.7723
  145SAPE   C3715967   6.056   2.181   9.979 -0.1878  0.0955 -0.1711
  145SAPE   H7X15968   6.067   2.097  10.052 -0.6690  1.7318  1.8588
  145SAPE   H7Y15969   6.105   2.267  10.029  1.3738 -0.7141 -0.2426
  145SAPE   C3815970   6.092   2.148   9.836 -0.5898  0.0381  0.6174
  145SAPE   H8X15971   6.030   2.062   9.804  1.3859 -1.7555  1.4422
  145SAPE   H8Y15972   6.194   2.104   9.840 -0.9510 -0.8544  0.0629
  145SAPE   C3915973   6.098   2.251   9.728 -0.4346 -0.3713  0.0323
  145SAPE   H9X15974   6.184   2.317   9.747 -0.6961 -0.3141  1.1343
  145SAPE   H9Y15975   6.006   2.312   9.713 -1.6842 -2.3700 -1.0525
  145SAPE  C31015976   6.124   2.185   9.584  0.3454  0.3792  0.5893
  145SAPE  H10X15977   6.027   2.134   9.564 -0.4607  1.8216  0.7153
  145SAPE  H10Y15978   6.208   2.114   9.600  2.2579  2.5267  0.4987
  145SAPE  C31115979   6.153   2.276   9.465 -0.7073  0.0291  0.2401
  145SAPE  H11X15980   6.246   2.325   9.498 -0.2899 -0.8880  0.4537
  145SAPE  H11Y15981   6.070   2.351   9.458 -1.0646 -0.3795  0.0073
  145SAPE  C31215982   6.189   2.200   9.339 -0.5051  0.0055  0.2309
  145SAPE  H12X15983   6.125   2.109   9.330  2.8637 -2.4122 -1.1658
  145SAPE  H12Y15984   6.293   2.162   9.344 -0.0211  1.3312  0.8831
  145SAPE  C31315985   6.176   2.295   9.223 -0.6530 -0.2971  0.0743
  145SAPE  H13X15986   6.235   2.388   9.237 -0.0618 -0.6195 -0.2404
  145SAPE  H13Y15987   6.067   2.316   9.213 -0.3251  3.2529  2.2024
  145SAPE  C31415988   6.218   2.228   9.091 -0.0632 -0.7505  0.2266
  145SAPE  H14X15989   6.178   2.125   9.088  3.1088 -2.1011  0.5602
  145SAPE  H14Y15990   6.328   2.224   9.079 -0.0008  0.3735  0.3203
  145SAPE  C31515991   6.156   2.299   8.960  0.0263 -1.1560 -0.1554
  145SAPE  H15X15992   6.052   2.334   8.977  0.2446 -0.3239 -0.4439
  145SAPE  H15Y15993   6.157   2.227   8.875  0.9179 -1.9063  0.4737
  145SAPE  C31615994   6.224   2.431   8.919 -0.0468 -0.5875  0.4820
  145SAPE  H16X15995   6.333   2.410   8.906  0.4301  0.6220  2.1213
  145SAPE  H16Y15996   6.210   2.509   8.997  1.4418  0.3803 -0.1444
  145SAPE  C31715997   6.153   2.480   8.790  0.4911 -0.1242 -0.0917
  145SAPE  H17X15998   6.044   2.459   8.796  0.6996 -1.3571 -0.2696
  145SAPE  H17Y15999   6.185   2.422   8.700 -1.8776 -1.9001  0.1048
  145SAPE  C31816000   6.179   2.636   8.765 -0.1815  0.5585  0.0426
  145SAPE  H18X16001   6.286   2.660   8.755 -0.3021  0.6476 -1.1282
  145SAPE  H18Y16002   6.157   2.718   8.837  1.2788  0.7482  0.2914
  145SAPE  H18Z16003   6.125   2.654   8.670  0.4748 -0.1038 -0.4588
  146SAPE     N16004   3.704   4.788  11.124  0.2901 -0.9867  0.2609
  146SAPE   HN116005   3.633   4.725  11.082  0.2837 -1.2006  0.5846
  146SAPE   HN216006   3.704   4.796  11.228 -0.6666 -1.7462  0.3314
  146SAPE   HN316007   3.682   4.881  11.083  1.6219  0.2139  2.0988
  146SAPE   C1216008   3.839   4.743  11.073 -0.0228  0.3231 -0.1643
  146SAPE  H12A16009   3.873   4.670  11.149 -2.0088 -1.3981 -0.8191
  146SAPE  H12B16010   3.914   4.824  11.061 -1.4511  1.5024 -1.5383
  146SAPE   C1116011   3.821   4.676  10.938  0.3270  0.7146 -0.2970
  146SAPE  H11A16012   3.927   4.654  10.912  0.0532  0.0970 -0.9232
  146SAPE  H11B16013   3.784   4.744  10.859 -1.5492  1.6383  1.3015
  146SAPE     P16014   3.807   4.416  10.933  0.1701  0.0539  0.0498
  146SAPE   O1316015   3.917   4.403  11.036  0.0250 -0.4991 -0.6331
  146SAPE   O1416016   3.708   4.309  10.923  0.1216 -0.0710  0.1160
  146SAPE   O1216017   3.738   4.558  10.942  0.5747  0.3812 -0.0798
  146SAPE   O1116018   3.887   4.414  10.796  1.0191 -0.3602  0.1010
  146SAPE    C116019   3.827   4.461  10.677 -0.1990  1.0584  0.3739
  146SAPE    HA16020   3.716   4.460  10.676 -0.2151 -0.7128 -1.4456
  146SAPE    HB16021   3.863   4.564  10.654 -0.9840  0.6424 -3.1729
  146SAPE    C216022   3.860   4.372  10.552 -0.2729  0.9012 -0.3921
  146SAPE    HS16023   3.812   4.272  10.558 -1.9057  1.6192 -0.8975
  146SAPE   O2116024   4.000   4.370  10.530 -0.2383  0.0025  0.0736
  146SAPE   C2116025   4.067   4.266  10.565  0.1238 -0.1994  0.5253
  146SAPE   O2216026   4.016   4.162  10.608  0.2948 -0.3293 -0.3159
  146SAPE   C2216027   4.212   4.287  10.519 -0.0530  0.0819  0.2573
  146SAPE   H2R16028   4.203   4.328  10.416 -2.6804  0.5255  0.5907
  146SAPE   H2S16029   4.253   4.371  10.579  0.3895 -0.2357  0.4030
  146SAPE    C316030   3.797   4.445  10.436 -0.6403 -0.6043  0.4238
  146SAPE    HX16031   3.809   4.555  10.450 -0.0599 -0.6106  0.0571
  146SAPE    HY16032   3.689   4.421  10.437 -0.5901 -1.8331 -3.6000
  146SAPE   O3116033   3.853   4.397  10.316  0.2453 -0.6174  0.5818
  146SAPE   C3116034   3.949   4.457  10.239  0.5661  0.2375 -0.3031
  146SAPE   O3216035   4.009   4.561  10.265  0.3465 -0.1977  0.3331
  146SAPE   C3216036   3.980   4.365  10.118  1.2663 -0.0390  0.1955
  146SAPE   H2X16037   3.938   4.265  10.143  1.5828 -0.3324 -0.4252
  146SAPE   H2Y16038   4.090   4.361  10.105  0.9314 -0.4566 -3.3596
  146SAPE   C2316039   4.295   4.159  10.529 -0.0259  0.2939 -0.2104
  146SAPE   H3R16040   4.241   4.079  10.474 -2.4613  2.7328 -1.6150
  146SAPE   H3S16041   4.304   4.133  10.636 -0.7406 -0.2207 -0.2683
  146SAPE   C2416042   4.438   4.187  10.478  0.0043 -0.3972 -0.0534
  146SAPE   H4R16043   4.505   4.116  10.532  0.5527  1.6678  2.1435
  146SAPE   H4S16044   4.459   4.285  10.526 -0.2597  0.2564 -1.2313
  146SAPE   C2516045   4.453   4.207  10.329 -0.5780  0.3822 -1.2883
  146SAPE   H5R16046   4.393   4.293  10.296 -1.5220  1.4740  2.7938
  146SAPE   C2616047   4.526   4.135  10.244 -0.8264 -0.8410  0.5705
  146SAPE   H6R16048   4.532   4.171  10.140 -2.0943 -2.1473  0.0045
  146SAPE   C2716049   4.627   4.032  10.285 -0.0039  0.1119  0.7193
  146SAPE   H7R16050   4.575   3.951  10.341 -0.2282 -0.6182 -0.5160
  146SAPE   H7S16051   4.692   4.086  10.357 -2.0628  2.1773  1.1727
  146SAPE   C2816052   4.706   3.975  10.164  0.3876 -0.6724 -0.2460
  146SAPE   H8R16053   4.807   4.014  10.149  0.3447 -0.0503  0.9622
  146SAPE   C2916054   4.662   3.874  10.084 -0.0834  0.8995  0.2669
  146SAPE   H9R16055   4.738   3.836  10.014  2.8216  2.5462  2.2774
  146SAPE  C21016056   4.528   3.799  10.098 -0.2487 -0.1500  0.3524
  146SAPE  H10R16057   4.483   3.799   9.996  0.0757 -1.1679  0.2041
  146SAPE  H10S16058   4.473   3.866  10.168 -0.7257 -0.1055 -0.0567
  146SAPE  C21116059   4.543   3.664  10.168 -0.4722  0.2330  0.1845
  146SAPE  H11R16060   4.649   3.635  10.171 -0.2752  0.7413 -1.2356
  146SAPE  C21216061   4.442   3.582  10.211  0.6259 -0.1709 -0.5530
  146SAPE  H12R16062   4.468   3.482  10.248 -0.5289  0.7218  3.0757
  146SAPE  C21316063   4.291   3.599  10.187 -0.0451  1.0954 -0.1895
  146SAPE  H13R16064   4.259   3.690  10.131 -1.4727  1.3878  1.0310
  146SAPE  H13S16065   4.245   3.602  10.288 -0.8849  2.0745 -0.5721
  146SAPE  C21416066   4.254   3.472  10.119  0.7260 -0.6561 -0.1994
  146SAPE  H14R16067   4.264   3.377  10.173  1.1576  0.7170  2.2579
  146SAPE  C21516068   4.201   3.462   9.997 -0.0734  0.2184  0.4313
  146SAPE  H15R16069   4.183   3.360   9.960  2.2328  0.2387 -0.9158
  146SAPE  C21616070   4.182   3.572   9.893  0.6772  0.8661  0.0732
  146SAPE  H16R16071   4.261   3.647   9.915  2.1364 -0.6666  0.2180
  146SAPE  H16S16072   4.078   3.613   9.900 -0.1907 -1.0666 -0.7548
  146SAPE  C21716073   4.198   3.517   9.750 -0.0208 -0.9443  0.0795
  146SAPE  H17R16074   4.143   3.424   9.725  0.3052 -0.5193 -2.5762
  146SAPE  H17S16075   4.305   3.487   9.741  0.2745 -0.4039  1.5796
  146SAPE  C21816076   4.175   3.621   9.642  0.1632 -0.0214  0.0682
  146SAPE  H18R16077   4.181   3.723   9.684 -2.7956  0.3870 -0.2767
  146SAPE  H18S16078   4.069   3.610   9.611  0.8099 -1.7295 -1.7567
  146SAPE  C21916079   4.245   3.606   9.509  0.5815  0.3162 -0.0079
  146SAPE  H19R16080   4.350   3.578   9.530  0.9569 -1.0223 -3.1361
  146SAPE  H19S16081   4.255   3.698   9.449 -0.5920  0.5039  0.0608
  146SAPE  C22016082   4.179   3.491   9.432 -0.1042  0.8558  0.1186
  146SAPE  H20R16083   4.203   3.490   9.324  1.3434 -0.1959  0.4232
  146SAPE  H20S16084   4.069   3.504   9.431 -0.2823 -0.4993 -0.4577
  146SAPE  H20T16085   4.205   3.392   9.475  2.2884  0.7655 -1.3284
  146SAPE   C3316086   3.910   4.413   9.988  1.2838  0.6012 -0.4124
  146SAPE   H3X16087   3.926   4.522   9.969  1.2073  0.5734 -0.6355
  146SAPE   H3Y16088   3.801   4.399  10.003  1.2340 -0.5303 -1.7290
  146SAPE   C3416089   3.950   4.347   9.851  0.7359 -0.1322 -0.1427
  146SAPE   H4X16090   3.927   4.238   9.849  0.0014  0.0096  0.1881
  146SAPE   H4Y16091   4.060   4.357   9.840  1.0160 -0.9728  1.4423
  146SAPE   C3516092   3.876   4.404   9.728  0.1818  0.4206  0.1660
  146SAPE   H5X16093   3.875   4.515   9.730 -0.7994  0.4238  0.0458
  146SAPE   H5Y16094   3.772   4.368   9.736 -0.0945  1.3097  0.6779
  146SAPE   C3616095   3.945   4.364   9.596 -0.0790  0.0666 -0.7258
  146SAPE   H6X16096   3.895   4.272   9.560 -0.5418 -0.0438  0.1443
  146SAPE   H6Y16097   4.049   4.340   9.625 -0.3377 -0.0138  0.1784
  146SAPE   C3716098   3.958   4.473   9.486  0.3889  0.6287 -0.6724
  146SAPE   H7X16099   4.029   4.549   9.524  0.5666  0.5463 -0.8393
  146SAPE   H7Y16100   3.863   4.529   9.477  0.3176  0.7475  0.6383
  146SAPE   C3816101   3.991   4.419   9.347  0.4966 -0.1815  0.9915
  146SAPE   H8X16102   3.940   4.323   9.322 -0.8242  0.6847  0.2853
  146SAPE   H8Y16103   4.097   4.386   9.347  0.1710 -1.5518 -1.9284
  146SAPE   C3916104   3.986   4.526   9.239 -0.6843 -0.0809 -0.6646
  146SAPE   H9X16105   4.050   4.615   9.259  1.0629 -1.8200  2.1778
  146SAPE   H9Y16106   3.886   4.574   9.231  0.1668  1.5871 -1.8940
  146SAPE  C31016107   4.027   4.473   9.102  0.1980 -0.5980 -0.1253
  146SAPE  H10X16108   3.968   4.385   9.071 -0.4321  0.3934 -1.8523
  146SAPE  H10Y16109   4.130   4.433   9.117 -0.1203 -0.7583  2.0449
  146SAPE  C31116110   4.030   4.583   8.998 -0.0223  0.0036 -0.0668
  146SAPE  H11X16111   4.104   4.663   9.017  2.3236 -1.2398 -3.0927
  146SAPE  H11Y16112   3.930   4.629   8.982  0.5431  1.0133 -0.8010
  146SAPE  C31216113   4.063   4.528   8.851  0.2797  0.1206 -0.0921
  146SAPE  H12X16114   3.977   4.465   8.819  1.5781 -1.2038 -1.1124
  146SAPE  H12Y16115   4.151   4.462   8.866  0.8801  0.8283 -0.4710
  146SAPE  C31316116   4.103   4.641   8.751  0.1595  0.8165  0.0884
  146SAPE  H13X16117   4.189   4.699   8.791  0.6367  0.4627 -0.4047
  146SAPE  H13Y16118   4.020   4.715   8.741 -0.7721 -0.2503 -0.2386
  146SAPE  C31416119   4.148   4.579   8.621 -1.0261 -0.2202 -0.4539
  146SAPE  H14X16120   4.059   4.538   8.569 -0.7507  0.3909 -1.4393
  146SAPE  H14Y16121   4.217   4.495   8.642 -0.1196  0.7769  0.7412
  146SAPE  C31516122   4.215   4.679   8.524  0.3099  0.2543  0.3603
  146SAPE  H15X16123   4.263   4.758   8.586 -0.5009  0.8844  0.2047
  146SAPE  H15Y16124   4.143   4.736   8.463  1.8156  3.2999  1.1973
  146SAPE  C31616125   4.300   4.612   8.410  0.1241 -1.0666  0.3649
  146SAPE  H16X16126   4.388   4.570   8.463  0.7034  0.1809  0.4300
  146SAPE  H16Y16127   4.337   4.680   8.330 -1.5186 -1.5715 -0.8844
  146SAPE  C31716128   4.229   4.485   8.342 -0.1706 -0.4074 -0.2017
  146SAPE  H17X16129   4.151   4.529   8.276 -1.0652  0.6336  1.4518
  146SAPE  H17Y16130   4.186   4.417   8.419 -3.1176 -0.0598 -1.4101
  146SAPE  C31816131   4.328   4.414   8.262  0.4944 -0.6695 -0.5302
  146SAPE  H18X16132   4.368   4.469   8.174  0.6840 -0.3205 -0.2293
  146SAPE  H18Y16133   4.291   4.317   8.220 -1.2745 -0.9771  1.5715
  146SAPE  H18Z16134   4.422   4.384   8.313  0.8637 -2.6076 -2.2236
  147SAPE     N16135   6.727   1.096   6.210  0.5895 -0.0519  0.3294
  147SAPE   HN116136   6.779   1.026   6.153  0.1788  0.4965 -0.7364
  147SAPE   HN216137   6.627   1.065   6.209  0.8523 -1.0761 -2.4339
  147SAPE   HN316138   6.729   1.189   6.165  0.1469 -0.4199 -0.4829
  147SAPE   C1216139   6.762   1.090   6.358  0.3519 -0.1057 -0.6564
  147SAPE  H12A16140   6.711   1.173   6.412  1.9630  0.9674 -0.6965
  147SAPE  H12B16141   6.872   1.108   6.352  0.9257 -2.1582  1.8017
  147SAPE   C1116142   6.727   0.953   6.419 -0.2532 -0.3034 -0.0373
  147SAPE  H11A16143   6.616   0.942   6.425 -0.0723 -1.5937  1.5471
  147SAPE  H11B16144   6.751   0.963   6.527 -0.6770 -0.6774  0.0948
  147SAPE     P16145   6.933   0.792   6.372 -0.4824  0.1722 -0.0549
  147SAPE   O1316146   6.978   0.714   6.254  0.1711  0.0422  0.2019
  147SAPE   O1416147   7.026   0.903   6.421 -0.3044  0.4415 -0.2768
  147SAPE   O1216148   6.789   0.847   6.351  0.2025  0.7281 -0.4757
  147SAPE   O1116149   6.907   0.699   6.501 -0.1741  0.0715 -0.3214
  147SAPE    C116150   7.021   0.606   6.516  0.7113 -0.0732 -0.5875
  147SAPE    HA16151   7.022   0.527   6.438  1.9627 -0.2464 -0.4148
  147SAPE    HB16152   7.121   0.652   6.499  0.9460 -0.1176  0.5964
  147SAPE    C216153   7.020   0.537   6.656 -0.0836 -0.6437 -0.7211
  147SAPE    HS16154   6.928   0.477   6.669  0.6420 -1.6414 -0.0237
  147SAPE   O2116155   7.026   0.642   6.757 -0.0266  0.0690 -0.4725
  147SAPE   C2116156   6.973   0.619   6.875  0.6763 -0.0674  0.2805
  147SAPE   O2216157   6.892   0.532   6.907 -0.0067 -0.0180  0.2778
  147SAPE   C2216158   7.033   0.722   6.970 -0.1384 -0.5676 -0.0287
  147SAPE   H2R16159   7.143   0.712   6.958 -0.1232 -0.2115 -0.1866
  147SAPE   H2S16160   7.011   0.821   6.925  2.1440 -0.2031 -0.4938
  147SAPE    C316161   7.150   0.456   6.671 -0.6660 -0.1986  0.7105
  147SAPE    HX16162   7.239   0.522   6.662 -1.1269  0.4055  0.5571
  147SAPE    HY16163   7.155   0.393   6.579 -1.0579  2.9089 -1.6031
  147SAPE   O3116164   7.148   0.382   6.793 -0.6513  0.2949  0.2802
  147SAPE   C3116165   7.203   0.263   6.789 -0.4565  0.1401  0.1318
  147SAPE   O3216166   7.230   0.199   6.684  0.2515 -0.0901 -0.0963
  147SAPE   C3216167   7.248   0.223   6.938  0.2779  0.0727 -0.0676
  147SAPE   H2X16168   7.317   0.299   6.980  0.4165  0.3373 -0.7742
  147SAPE   H2Y16169   7.294   0.122   6.930 -0.4727 -0.6445  3.0428
  147SAPE   C2316170   6.989   0.721   7.119 -0.2544  0.9065 -0.2595
  147SAPE   H3R16171   6.986   0.614   7.149  1.7718  1.0669  0.6413
  147SAPE   H3S16172   6.889   0.770   7.128 -1.1151 -0.9021  0.5328
  147SAPE   C2416173   7.093   0.800   7.195  0.3655 -0.3903 -0.2093
  147SAPE   H4R16174   7.099   0.903   7.154 -1.4795 -1.0106 -2.2510
  147SAPE   H4S16175   7.190   0.748   7.181  1.1270  0.2091  2.3292
  147SAPE   C2516176   7.051   0.809   7.343  0.4801  0.2789  0.5854
  147SAPE   H5R16177   6.952   0.854   7.361  1.0093  1.9760 -0.5558
  147SAPE   C2616178   7.124   0.772   7.448 -0.4946  1.4969 -0.6424
  147SAPE   H6R16179   7.087   0.780   7.551  1.2109 -4.0525  0.7535
  147SAPE   C2716180   7.260   0.714   7.440 -0.4724 -0.3101 -0.4754
  147SAPE   H7R16181   7.292   0.661   7.348 -0.2233 -0.9984 -0.0020
  147SAPE   H7S16182   7.273   0.646   7.527 -0.1425  0.1731 -0.1385
  147SAPE   C2816183   7.360   0.832   7.436  0.5324 -0.0001 -0.0981
  147SAPE   H8R16184   7.349   0.900   7.350 -0.6301  0.9707  0.7730
  147SAPE   C2916185   7.443   0.860   7.536 -0.0701 -0.1079  0.3788
  147SAPE   H9R16186   7.519   0.937   7.517 -0.5422  0.1559 -0.4818
  147SAPE  C21016187   7.468   0.792   7.666 -0.8073  0.3801  0.2728
  147SAPE  H10R16188   7.386   0.717   7.674  0.4105 -1.6871 -3.6902
  147SAPE  H10S16189   7.463   0.865   7.749  1.3115  1.8435 -0.7958
  147SAPE  C21116190   7.602   0.712   7.663 -0.0797  0.0075 -0.0415
  147SAPE  H11R16191   7.645   0.670   7.571 -0.3475  0.7372 -0.5091
  147SAPE  C21216192   7.686   0.694   7.768  1.1214 -0.0470  0.5142
  147SAPE  H12R16193   7.785   0.653   7.744 -0.2015 -3.0450 -0.3745
  147SAPE  C21316194   7.661   0.743   7.909 -0.2389 -0.3122 -1.2164
  147SAPE  H13R16195   7.633   0.660   7.976  1.7830 -1.4962 -1.7639
  147SAPE  H13S16196   7.570   0.807   7.905  0.1685  0.4165  0.4340
  147SAPE  C21416197   7.770   0.829   7.979  0.0192  0.4498  0.4494
  147SAPE  H14R16198   7.857   0.852   7.916 -1.2662  0.6995 -1.3163
  147SAPE  C21516199   7.760   0.880   8.100 -0.4915  0.2791 -0.2005
  147SAPE  H15R16200   7.852   0.930   8.133 -0.4412 -0.3212  0.5928
  147SAPE  C21616201   7.643   0.866   8.193  0.0611  0.1789  0.6199
  147SAPE  H16R16202   7.677   0.816   8.286 -1.0296 -0.3565  0.7398
  147SAPE  H16S16203   7.564   0.803   8.147  0.1827  0.6946 -0.3331
  147SAPE  C21716204   7.597   1.011   8.237  0.7252  0.6477  0.1227
  147SAPE  H17R16205   7.543   1.060   8.154 -0.5093  1.6210  1.4392
  147SAPE  H17S16206   7.686   1.074   8.258 -0.3157  2.5176 -0.8870
  147SAPE  C21816207   7.520   1.011   8.365  0.4382 -0.5127 -0.6460
  147SAPE  H18R16208   7.564   0.947   8.444 -1.1924  0.2118  0.9008
  147SAPE  H18S16209   7.417   0.974   8.351 -0.6736  1.3429  1.8786
  147SAPE  C21916210   7.507   1.148   8.434 -0.4853 -0.4216 -0.0325
  147SAPE  H19R16211   7.463   1.218   8.360 -0.2653 -0.3758 -0.1187
  147SAPE  H19S16212   7.608   1.183   8.463  0.5996 -1.2291 -2.5599
  147SAPE  C22016213   7.420   1.131   8.555  0.4325  0.0762 -0.5285
  147SAPE  H20R16214   7.320   1.089   8.532  0.5216 -0.3072 -0.2263
  147SAPE  H20S16215   7.421   1.228   8.610 -2.0434 -0.1789  0.0815
  147SAPE  H20T16216   7.465   1.058   8.626 -0.5733  0.5139  0.5797
  147SAPE   C3316217   7.122   0.206   7.029 -0.0456 -0.6356  0.5978
  147SAPE   H3X16218   7.078   0.111   6.992  0.0463 -0.6308  0.4746
  147SAPE   H3Y16219   7.053   0.291   7.010  1.0726  0.8354  2.6622
  147SAPE   C3416220   7.142   0.182   7.176  0.3448  1.0440 -0.1432
  147SAPE   H4X16221   7.217   0.101   7.183 -2.7303 -2.0645 -0.5847
  147SAPE   H4Y16222   7.057   0.118   7.208  2.1267 -1.3255  0.0900
  147SAPE   C3516223   7.164   0.302   7.268 -0.7439 -0.1162  0.2363
  147SAPE   H5X16224   7.088   0.374   7.231 -0.8643  0.3589  1.3523
  147SAPE   H5Y16225   7.264   0.351   7.266 -0.7586 -0.1126 -0.7209
  147SAPE   C3616226   7.127   0.266   7.409  0.0026  0.2601  0.0343
  147SAPE   H6X16227   7.206   0.204   7.457 -2.1779 -1.9584  0.9807
  147SAPE   H6Y16228   7.036   0.202   7.408  0.1840 -0.1184  2.4002
  147SAPE   C3716229   7.105   0.376   7.512 -1.1600 -0.5619  0.3910
  147SAPE   H7X16230   7.035   0.438   7.452 -0.0970  0.7565  0.4637
  147SAPE   H7Y16231   7.198   0.437   7.519 -0.6122 -1.5331  2.1734
  147SAPE   C3816232   7.046   0.337   7.643  0.0885  0.3677 -0.5242
  147SAPE   H8X16233   7.060   0.228   7.660  0.2018  0.3354 -0.8202
  147SAPE   H8Y16234   6.936   0.353   7.641  0.1456  1.8824  2.7266
  147SAPE   C3916235   7.098   0.403   7.772  0.0649 -0.0124 -0.2618
  147SAPE   H9X16236   7.100   0.508   7.736 -0.8944  0.2367  0.3528
  147SAPE   H9Y16237   7.195   0.354   7.791 -0.0439  0.0633  0.5247
  147SAPE  C31016238   7.017   0.384   7.905  0.6646 -0.0891  0.0371
  147SAPE  H10X16239   7.055   0.291   7.953  2.5308 -0.7892 -2.5309
  147SAPE  H10Y16240   6.913   0.364   7.873  1.1358 -1.2364 -0.8481
  147SAPE  C31116241   7.017   0.495   8.008  0.0379  0.0591 -0.6005
  147SAPE  H11X16242   6.973   0.582   7.953  0.7312 -0.0678 -1.3777
  147SAPE  H11Y16243   7.122   0.510   8.041 -0.3318 -1.5580  1.5050
  147SAPE  C31216244   6.925   0.457   8.129  0.1254  0.1689 -0.4055
  147SAPE  H12X16245   6.952   0.356   8.166  1.1168  0.4742 -0.2438
  147SAPE  H12Y16246   6.819   0.448   8.098 -0.2352 -0.9516  1.0064
  147SAPE  C31316247   6.973   0.555   8.236  0.4199 -0.5804  0.1537
  147SAPE  H13X16248   6.962   0.655   8.188  0.1132 -1.3137 -1.3413
  147SAPE  H13Y16249   7.081   0.535   8.254  1.9642  4.9591 -1.0462
  147SAPE  C31416250   6.877   0.546   8.360 -0.5032  1.0910 -1.0741
  147SAPE  H14X16251   6.779   0.588   8.330 -0.2782  2.5599  0.1343
  147SAPE  H14Y16252   6.919   0.606   8.444 -0.1447  0.5765 -0.8836
  147SAPE  C31516253   6.873   0.400   8.413 -0.5519  0.2708 -0.8807
  147SAPE  H15X16254   6.973   0.371   8.452 -0.9919 -3.0360 -1.8853
  147SAPE  H15Y16255   6.844   0.330   8.332 -0.8146  1.5039 -1.8846
  147SAPE  C31616256   6.785   0.386   8.540  0.0856  0.4354 -0.2445
  147SAPE  H16X16257   6.681   0.419   8.522 -0.0312  0.3998  0.3616
  147SAPE  H16Y16258   6.826   0.457   8.614 -1.3455 -0.5188  1.5385
  147SAPE  C31716259   6.806   0.249   8.606 -0.0613  0.0767 -0.8097
  147SAPE  H17X16260   6.910   0.214   8.625 -0.2398  1.0239  2.6160
  147SAPE  H17Y16261   6.774   0.179   8.527 -2.0993  1.6526 -1.4699
  147SAPE  C31816262   6.729   0.227   8.740 -0.2037 -0.5924  0.8227
  147SAPE  H18X16263   6.618   0.227   8.735 -0.2879 -0.0663  2.2984
  147SAPE  H18Y16264   6.769   0.302   8.812  0.0537  1.3135 -1.1804
  147SAPE  H18Z16265   6.756   0.125   8.773 -0.7211 -1.0638 -0.1681
  148SAPE     N16266   6.193   5.360   6.570  1.2385  0.2619  0.3183
  148SAPE   HN116267   6.148   5.295   6.504  0.2608  1.0195  0.2182
  148SAPE   HN216268   6.292   5.375   6.540  1.1356 -1.3845 -0.9628
  148SAPE   HN316269   6.201   5.306   6.658 -0.1264 -2.1582 -0.9501
  148SAPE   C1216270   6.108   5.478   6.581  0.1334 -0.0675 -0.4417
  148SAPE  H12A16271   6.022   5.443   6.641 -0.5167  2.1093 -0.0081
  148SAPE  H12B16272   6.071   5.510   6.481 -1.4500 -0.0330  0.1324
  148SAPE   C1116273   6.183   5.592   6.657 -0.0215 -0.4485 -0.1624
  148SAPE  H11A16274   6.211   5.558   6.759 -0.4756  1.6371  0.7187
  148SAPE  H11B16275   6.115   5.680   6.657  0.4190 -0.0205  2.3918
  148SAPE     P16276   6.334   5.757   6.523 -0.0693  0.0064 -0.1306
  148SAPE   O1316277   6.449   5.750   6.429 -0.5425  0.2296  0.0911
  148SAPE   O1416278   6.217   5.822   6.464  0.8421 -0.3663 -0.0636
  148SAPE   O1216279   6.298   5.618   6.582 -0.5693  0.1598  0.1166
  148SAPE   O1116280   6.376   5.843   6.648  0.2384  0.1238 -0.2674
  148SAPE    C116281   6.508   5.848   6.698  0.4765  0.0512 -0.2229
  148SAPE    HA16282   6.577   5.878   6.616  0.4937 -1.5948 -0.8466
  148SAPE    HB16283   6.504   5.917   6.786  0.1209  1.4043 -1.2582
  148SAPE    C216284   6.557   5.721   6.766  0.2250 -0.3842 -0.4849
  148SAPE    HS16285   6.555   5.639   6.690  1.3841  0.7979 -1.8413
  148SAPE   O2116286   6.476   5.695   6.883  0.8466 -0.7284  0.3603
  148SAPE   C2116287   6.457   5.567   6.908 -0.0537 -0.2970  0.1818
  148SAPE   O2216288   6.506   5.472   6.843 -0.0264  0.1470 -0.3457
  148SAPE   C2216289   6.334   5.566   7.008 -0.1309  0.4209  0.4076
  148SAPE   H2R16290   6.375   5.634   7.086  0.3707  1.6942 -0.9125
  148SAPE   H2S16291   6.256   5.629   6.961 -0.2085 -0.5629 -0.8274
  148SAPE    C316292   6.701   5.724   6.824  0.1035  0.2479  0.0347
  148SAPE    HX16293   6.774   5.757   6.746  0.0072  0.9900  0.2517
  148SAPE    HY16294   6.721   5.617   6.845  1.3739  0.6995  1.2789
  148SAPE   O3116295   6.709   5.790   6.947 -0.6542 -0.7867 -0.0966
  148SAPE   C3116296   6.773   5.909   6.945  0.1353 -0.4369 -0.3737
  148SAPE   O3216297   6.831   5.956   6.848 -0.6357 -0.3710 -0.4004
  148SAPE   C3216298   6.769   5.960   7.092 -1.2353 -0.6886 -0.6519
  148SAPE   H2X16299   6.760   5.872   7.160 -1.4704 -0.9605 -1.0261
  148SAPE   H2Y16300   6.684   6.030   7.106 -2.2295 -2.2101  1.5170
  148SAPE   C2316301   6.286   5.426   7.047  0.2281  0.5130  0.1006
  148SAPE   H3R16302   6.363   5.350   7.072  0.5642  1.2135  1.2829
  148SAPE   H3S16303   6.239   5.387   6.954  0.0782 -0.7737  0.6867
  148SAPE   C2416304   6.193   5.417   7.171 -0.8235  0.2544  0.0616
  148SAPE   H4R16305   6.266   5.425   7.254 -0.0198  1.3299 -0.7185
  148SAPE   H4S16306   6.144   5.321   7.144 -1.3951  1.0221 -1.7834
  148SAPE   C2516307   6.093   5.523   7.190  0.1919 -0.0569  0.2985
  148SAPE   H5R16308   6.132   5.619   7.228 -1.5242  0.1263  1.7018
  148SAPE   C2616309   5.959   5.511   7.168 -0.3716  0.9006 -0.2288
  148SAPE   H6R16310   5.898   5.599   7.195  0.3005  2.1074 -2.4312
  148SAPE   C2716311   5.884   5.389   7.124 -0.0857  0.2207 -0.1956
  148SAPE   H7R16312   5.952   5.313   7.079 -2.9529 -1.4806 -1.9678
  148SAPE   H7S16313   5.804   5.415   7.052  1.0322  0.4815 -1.3959
  148SAPE   C2816314   5.816   5.322   7.243 -0.0051 -0.4280  0.9007
  148SAPE   H8R16315   5.879   5.250   7.298 -1.0523 -1.3368  0.9577
  148SAPE   C2916316   5.684   5.333   7.284  0.4822  0.2996  0.1772
  148SAPE   H9R16317   5.652   5.268   7.366  3.5560  0.0553  1.2934
  148SAPE  C21016318   5.573   5.418   7.226  0.0461  0.3377 -0.0951
  148SAPE  H10R16319   5.610   5.520   7.207  1.0051  0.0638  0.2584
  148SAPE  H10S16320   5.490   5.423   7.300 -0.1859 -2.9697  0.0402
  148SAPE  C21116321   5.522   5.366   7.090  0.5841 -0.4350 -0.8130
  148SAPE  H11R16322   5.555   5.265   7.063  0.7770 -0.5501 -0.1684
  148SAPE  C21216323   5.430   5.436   7.021  0.4210 -0.1283 -0.4531
  148SAPE  H12R16324   5.400   5.387   6.927 -2.1365  0.4051  0.0114
  148SAPE  C21316325   5.357   5.570   7.052  0.3149  0.7471  0.3363
  148SAPE  H13R16326   5.332   5.607   6.950  0.0666 -1.6436 -0.5188
  148SAPE  H13S16327   5.435   5.636   7.097  1.4016  0.6941 -1.3541
  148SAPE  C21416328   5.239   5.559   7.134  0.3545 -0.0555 -0.0339
  148SAPE  H14R16329   5.164   5.501   7.077 -0.0572 -0.0052  0.4535
  148SAPE  C21516330   5.206   5.643   7.236 -0.0216 -0.2417 -0.2542
  148SAPE  H15R16331   5.113   5.629   7.294 -0.2237 -0.7876 -0.6957
  148SAPE  C21616332   5.296   5.754   7.295  0.2714 -0.0909  0.1477
  148SAPE  H16R16333   5.239   5.849   7.299  0.1706 -0.0163 -1.8844
  148SAPE  H16S16334   5.373   5.786   7.221 -2.9555  2.1098 -2.6295
  148SAPE  C21716335   5.350   5.704   7.420 -1.0457  0.8372 -0.1125
  148SAPE  H17R16336   5.439   5.764   7.449  0.7377 -0.6760 -2.1720
  148SAPE  H17S16337   5.402   5.607   7.404  0.0586  0.8588  2.6883
  148SAPE  C21816338   5.253   5.683   7.536 -0.9994 -0.6083  0.1200
  148SAPE  H18R16339   5.181   5.604   7.505 -2.8382  0.4644  1.5234
  148SAPE  H18S16340   5.200   5.779   7.555 -0.3098  0.2122 -1.8265
  148SAPE  C21916341   5.331   5.646   7.665  0.0577 -0.1803  0.8334
  148SAPE  H19R16342   5.411   5.720   7.685 -0.5536  0.9209 -0.6057
  148SAPE  H19S16343   5.365   5.542   7.649 -1.6532 -1.1014  2.7257
  148SAPE  C22016344   5.235   5.639   7.785 -0.7391 -0.0050 -0.0089
  148SAPE  H20R16345   5.290   5.603   7.875 -1.0461 -0.4231  0.0172
  148SAPE  H20S16346   5.148   5.570   7.778 -0.3984 -0.8776  2.9511
  148SAPE  H20T16347   5.186   5.737   7.806 -0.6205  0.4195 -1.6119
  148SAPE   C3316348   6.901   6.031   7.121 -1.2935  0.2836 -0.5457
  148SAPE   H3X16349   6.901   6.114   7.047 -1.5070  0.8618  0.0974
  148SAPE   H3Y16350   6.992   5.969   7.105 -0.6702  0.7086  1.1084
  148SAPE   C3416351   6.898   6.085   7.265  0.8354 -0.2606 -0.2198
  148SAPE   H4X16352   6.878   6.012   7.346  1.4886  1.1899  1.3025
  148SAPE   H4Y16353   6.813   6.157   7.266  0.4119 -0.7504  0.7005
  148SAPE   C3516354   7.027   6.152   7.311  0.0887  0.3878  0.3954
  148SAPE   H5X16355   7.062   6.217   7.228  1.3279 -0.8262 -0.0754
  148SAPE   H5Y16356   7.115   6.085   7.320  1.5338  2.0912 -0.4948
  148SAPE   C3616357   7.003   6.234   7.436 -0.2197  0.1587  0.0329
  148SAPE   H6X16358   6.918   6.305   7.426 -1.9667 -1.7074  0.8069
  148SAPE   H6Y16359   7.095   6.293   7.455 -0.4661 -0.3409  3.3070
  148SAPE   C3716360   6.961   6.153   7.560  0.1176  0.4121 -0.7755
  148SAPE   H7X16361   7.009   6.053   7.564 -1.2530 -0.2598 -0.7656
  148SAPE   H7Y16362   6.857   6.116   7.555  0.0254  0.5534 -0.0380
  148SAPE   C3816363   6.975   6.223   7.701 -0.0835  0.0881  0.6490
  148SAPE   H8X16364   6.932   6.165   7.785  3.0364 -1.9399  1.0052
  148SAPE   H8Y16365   6.923   6.320   7.694  3.5679  2.1240 -1.1663
  148SAPE   C3916366   7.123   6.250   7.750  0.6669  0.1921 -0.6879
  148SAPE   H9X16367   7.148   6.348   7.704  0.8813  0.1209 -0.7233
  148SAPE   H9Y16368   7.197   6.173   7.721  0.4605 -1.0488  1.8089
  148SAPE  C31016369   7.120   6.277   7.902  0.6229 -0.0379 -0.1131
  148SAPE  H10X16370   7.073   6.194   7.960  1.5062 -1.3217 -1.1554
  148SAPE  H10Y16371   7.042   6.355   7.903 -1.6495 -2.1760  1.1952
  148SAPE  C31116372   7.248   6.334   7.968  0.0780  0.2909  0.3179
  148SAPE  H11X16373   7.240   6.430   8.022 -1.1798  0.4070 -0.0480
  148SAPE  H11Y16374   7.320   6.342   7.883  0.2407  0.4987  0.4731
  148SAPE  C31216375   7.311   6.245   8.065  0.2334  0.1445  0.0794
  148SAPE  H12X16376   7.400   6.296   8.107  1.3327 -0.8922 -0.9369
  148SAPE  H12Y16377   7.336   6.145   8.024  1.2187  0.6295 -0.5145
  148SAPE  C31316378   7.216   6.221   8.192  0.2639  1.0121  0.0018
  148SAPE  H13X16379   7.131   6.159   8.158 -0.2553  0.9636  1.3265
  148SAPE  H13Y16380   7.171   6.319   8.219  0.2195  1.2916 -1.0229
  148SAPE  C31416381   7.280   6.143   8.305 -0.0863 -0.3402 -0.5696
  148SAPE  H14X16382   7.330   6.052   8.264  0.0986 -0.6246  0.2721
  148SAPE  H14Y16383   7.204   6.111   8.378 -2.1022  0.4840 -2.2159
  148SAPE  C31516384   7.383   6.219   8.386  0.0012 -0.2931 -0.1988
  148SAPE  H15X16385   7.346   6.315   8.427 -2.0220 -1.2827  0.3884
  148SAPE  H15Y16386   7.471   6.252   8.325 -0.6657 -0.5804 -1.3490
  148SAPE  C31616387   7.452   6.134   8.491  0.1953 -0.2623  0.0524
  148SAPE  H16X16388   7.488   6.038   8.449  0.3091 -0.8358  1.3870
  148SAPE  H16Y16389   7.378   6.110   8.570  0.1260  1.0176  0.3977
  148SAPE  C31716390   7.574   6.199   8.560  0.0149  0.2615 -0.3987
  148SAPE  H17X16391   7.539   6.295   8.605 -0.6405  0.5492 -1.4893
  148SAPE  H17Y16392   7.643   6.229   8.478  2.7823 -0.6617  1.4537
  148SAPE  C31816393   7.639   6.107   8.658 -0.0029 -0.2626  0.2425
  148SAPE  H18X16394   7.572   6.075   8.741  0.2606 -0.2853  0.4479
  148SAPE  H18Y16395   7.728   6.155   8.703  1.0709 -1.8776 -0.1019
  148SAPE  H18Z16396   7.673   6.012   8.613  3.2761  1.3613 -1.0381
  149SAPE     N16397   5.484   5.587   6.477  0.1203 -0.5008  0.1212
  149SAPE   HN116398   5.500   5.665   6.544 -2.3381 -0.4769  0.7632
  149SAPE   HN216399   5.582   5.575   6.442 -0.0123  1.3826 -1.0461
  149SAPE   HN316400   5.424   5.610   6.395  0.1188 -1.6651 -0.2216
  149SAPE   C1216401   5.434   5.460   6.542  0.0847 -0.0499 -0.5839
  149SAPE  H12A16402   5.517   5.409   6.596 -0.1895  0.2494  0.1382
  149SAPE  H12B16403   5.407   5.392   6.458 -0.1535 -0.6777 -0.0184
  149SAPE   C1116404   5.324   5.497   6.647 -0.2615  0.5847  0.8141
  149SAPE  H11A16405   5.365   5.561   6.729  2.4670  0.1423 -0.0904
  149SAPE  H11B16406   5.293   5.405   6.699 -1.7440  0.9701  0.6556
  149SAPE     P16407   5.078   5.480   6.563  0.1192  0.3014  0.2903
  149SAPE   O1316408   4.975   5.563   6.491 -0.0863  0.6884 -0.2399
  149SAPE   O1416409   5.129   5.358   6.492 -0.2047 -0.8171 -0.8547
  149SAPE   O1216410   5.206   5.567   6.593  0.2525  0.0574 -0.3062
  149SAPE   O1116411   5.040   5.427   6.707  0.0452 -0.0806 -0.5960
  149SAPE    C116412   4.917   5.483   6.764  0.4994  0.9100 -0.5762
  149SAPE    HA16413   4.927   5.593   6.779  2.2842  0.6036  0.8228
  149SAPE    HB16414   4.836   5.467   6.691  1.3147  0.9767 -1.5226
  149SAPE    C216415   4.864   5.391   6.891 -0.1799  0.4667  0.0594
  149SAPE    HS16416   4.755   5.380   6.870 -0.0996  1.9594 -1.3105
  149SAPE   O2116417   4.888   5.449   7.020  0.1323 -0.5580 -0.2952
  149SAPE   C2116418   4.801   5.540   7.055 -0.1112  0.1049 -1.1048
  149SAPE   O2216419   4.720   5.593   6.981 -0.0474 -0.8036 -0.6473
  149SAPE   C2216420   4.818   5.560   7.210  1.0734  0.0552  0.2721
  149SAPE   H2R16421   4.765   5.473   7.254  1.8647 -1.5324 -1.7292
  149SAPE   H2S16422   4.925   5.539   7.230  0.6064 -0.5805  2.2584
  149SAPE    C316423   4.921   5.249   6.873 -0.0890 -0.6966  0.3027
  149SAPE    HX16424   5.032   5.248   6.886  0.1201 -2.0670 -1.1280
  149SAPE    HY16425   4.899   5.211   6.771 -1.1740  0.5307  0.0535
  149SAPE   O3116426   4.866   5.159   6.977 -0.5190 -0.4130  0.0156
  149SAPE   C3116427   4.922   5.042   6.984 -0.1529 -0.6854  0.3578
  149SAPE   O3216428   5.020   5.003   6.917 -0.0421 -0.2595 -0.0225
  149SAPE   C3216429   4.839   4.948   7.071  0.7492 -0.6459  0.4791
  149SAPE   H2X16430   4.822   4.861   7.004 -0.7731  1.1779 -1.6538
  149SAPE   H2Y16431   4.738   4.988   7.092  1.0009 -1.0280  2.7037
  149SAPE   C2316432   4.787   5.698   7.276  0.1544  0.2253 -0.7102
  149SAPE   H3R16433   4.696   5.746   7.234 -0.0268 -0.2906 -0.9168
  149SAPE   H3S16434   4.869   5.769   7.248 -0.9231  1.2998 -1.2197
  149SAPE   C2416435   4.772   5.704   7.433  0.4644  0.4715 -0.3496
  149SAPE   H4R16436   4.695   5.630   7.463  2.4398 -1.8373 -0.6222
  149SAPE   H4S16437   4.738   5.802   7.471  1.1357  1.1529 -1.4389
  149SAPE   C2516438   4.903   5.664   7.503 -0.1809 -0.0229 -0.0387
  149SAPE   H5R16439   4.980   5.742   7.505  0.4408 -0.5555  3.3646
  149SAPE   C2616440   4.928   5.545   7.569  0.7767 -0.2162 -0.4745
  149SAPE   H6R16441   5.015   5.540   7.636 -0.0779 -1.3017  0.6014
  149SAPE   C2716442   4.833   5.423   7.586  0.0215 -0.7029  0.0599
  149SAPE   H7R16443   4.777   5.397   7.493  0.3571  0.3461 -0.4557
  149SAPE   H7S16444   4.751   5.464   7.648  0.8052  0.8380  0.1404
  149SAPE   C2816445   4.910   5.308   7.647  0.7008 -0.2247 -0.2081
  149SAPE   H8R16446   4.978   5.254   7.579 -2.0240 -2.5903 -1.2730
  149SAPE   C2916447   4.883   5.253   7.769  0.1089  0.2139  0.3134
  149SAPE   H9R16448   4.943   5.164   7.794 -0.2133 -0.6723 -1.8546
  149SAPE  C21016449   4.779   5.308   7.867 -0.3793  0.0144  0.0281
  149SAPE  H10R16450   4.678   5.317   7.820 -0.0234  3.6289 -0.2794
  149SAPE  H10S16451   4.809   5.412   7.889 -0.8820 -0.1495  1.6081
  149SAPE  C21116452   4.766   5.234   7.990 -0.1093  0.0487 -0.0613
  149SAPE  H11R16453   4.793   5.128   7.978 -1.4626 -0.3927  0.6264
  149SAPE  C21216454   4.722   5.282   8.115 -0.2121  1.5983  0.2446
  149SAPE  H12R16455   4.736   5.214   8.200  2.9907  1.2172 -0.4548
  149SAPE  C21316456   4.683   5.418   8.164  0.5078  0.2275  0.2466
  149SAPE  H13R16457   4.746   5.489   8.105  0.7841  1.1641  1.6165
  149SAPE  H13S16458   4.713   5.443   8.268  0.9414  0.3208  0.1022
  149SAPE  C21416459   4.534   5.443   8.140  0.2125 -0.1190  0.6878
  149SAPE  H14R16460   4.492   5.376   8.064 -2.3700  3.2707 -1.1625
  149SAPE  C21516461   4.456   5.529   8.201  0.0172  0.5536  0.8043
  149SAPE  H15R16462   4.347   5.534   8.187  0.0064  0.4479  0.8504
  149SAPE  C21616463   4.504   5.623   8.314  0.0686  1.3902  0.2663
  149SAPE  H16R16464   4.615   5.618   8.324 -0.0385 -0.9547  0.8231
  149SAPE  H16S16465   4.459   5.601   8.413 -0.0606  1.6025  0.2564
  149SAPE  C21716466   4.467   5.772   8.287  0.8869  0.2469  0.0865
  149SAPE  H17R16467   4.489   5.805   8.183 -0.8361  3.5273  0.6576
  149SAPE  H17S16468   4.527   5.846   8.343  2.1100  0.8521 -1.9071
  149SAPE  C21816469   4.323   5.809   8.319 -0.6271  0.1874 -0.0524
  149SAPE  H18R16470   4.314   5.806   8.430 -2.5962  0.4701 -0.1637
  149SAPE  H18S16471   4.250   5.732   8.286  0.5485 -1.4424  0.9660
  149SAPE  C21916472   4.279   5.949   8.270 -0.1033 -0.3319 -0.3838
  149SAPE  H19R16473   4.357   6.027   8.284  0.1629 -0.7379  0.4278
  149SAPE  H19S16474   4.190   5.968   8.334 -0.2543 -1.0106 -0.3917
  149SAPE  C22016475   4.211   5.960   8.131  0.4883  0.2644  0.0067
  149SAPE  H20R16476   4.126   5.891   8.113  2.3221 -1.6562 -1.8844
  149SAPE  H20S16477   4.283   5.926   8.054 -2.2456 -0.2110 -2.5371
  149SAPE  H20T16478   4.186   6.066   8.108 -2.0656 -0.5142 -1.1623
  149SAPE   C3316479   4.905   4.900   7.206 -0.0665 -0.5185  0.3135
  149SAPE   H3X16480   5.013   4.887   7.184  0.0409  0.4223  0.2719
  149SAPE   H3Y16481   4.855   4.804   7.234  0.2481 -0.4703  1.0522
  149SAPE   C3416482   4.874   4.984   7.329 -0.1481  0.6714  0.6174
  149SAPE   H4X16483   4.771   5.023   7.318  0.0597  0.7930 -1.4370
  149SAPE   H4Y16484   4.936   5.076   7.318  0.5184 -0.0344 -2.6220
  149SAPE   C3516485   4.896   4.911   7.462  0.4254 -0.1100  0.2505
  149SAPE   H5X16486   4.887   4.987   7.543  2.0008 -1.3793  1.6878
  149SAPE   H5Y16487   4.990   4.855   7.480  0.4404 -0.1572  0.0183
  149SAPE   C3616488   4.781   4.817   7.512 -0.3246  0.5409  0.6298
  149SAPE   H6X16489   4.748   4.745   7.434 -1.7696  0.1002  1.6106
  149SAPE   H6Y16490   4.687   4.873   7.529 -1.6004 -1.4622  0.5907
  149SAPE   C3716491   4.819   4.740   7.638 -0.0723  0.2093 -0.2482
  149SAPE   H7X16492   4.915   4.684   7.632  0.5638  0.8520  2.4890
  149SAPE   H7Y16493   4.732   4.673   7.656  0.2677 -0.3542 -0.6910
  149SAPE   C3816494   4.841   4.830   7.766  0.1190  0.3603 -0.3864
  149SAPE   H8X16495   4.744   4.869   7.804 -0.3928 -2.3245  1.3301
  149SAPE   H8Y16496   4.888   4.928   7.744 -1.3641  0.9179 -1.2512
  149SAPE   C3916497   4.901   4.753   7.885 -0.0689 -1.3412 -0.3353
  149SAPE   H9X16498   5.006   4.719   7.872  1.1609  0.9581  2.5985
  149SAPE   H9Y16499   4.845   4.656   7.893 -0.0386 -1.3345 -0.0304
  149SAPE  C31016500   4.914   4.847   8.015 -0.1467  0.0497  0.5572
  149SAPE  H10X16501   4.820   4.904   8.027  0.5934  1.5823 -0.6080
  149SAPE  H10Y16502   4.998   4.916   7.996 -1.5419  1.3488 -1.3163
  149SAPE  C31116503   4.955   4.765   8.137 -0.6648 -0.3310 -0.4783
  149SAPE  H11X16504   4.996   4.826   8.220  0.8757  0.9217 -2.0872
  149SAPE  H11Y16505   5.040   4.700   8.107  0.0203  1.0782 -1.6855
  149SAPE  C31216506   4.836   4.690   8.189 -0.1596 -0.0479 -0.2980
  149SAPE  H12X16507   4.791   4.628   8.108  3.0124 -1.9641 -0.7468
  149SAPE  H12Y16508   4.765   4.763   8.234 -0.0296  2.0487 -3.2251
  149SAPE  C31316509   4.887   4.588   8.300  0.1689 -0.4829  0.7689
  149SAPE  H13X16510   4.956   4.648   8.362  0.9297 -0.3631 -0.1691
  149SAPE  H13Y16511   4.951   4.520   8.239 -2.4312 -1.5620 -0.9448
  149SAPE  C31416512   4.775   4.521   8.379 -0.0809 -0.1520 -0.1011
  149SAPE  H14X16513   4.700   4.470   8.315 -0.0286 -0.6021  0.1952
  149SAPE  H14Y16514   4.731   4.604   8.437  1.1369 -0.2549  1.0112
  149SAPE  C31516515   4.817   4.414   8.470  0.0013  0.9483  0.1646
  149SAPE  H15X16516   4.866   4.459   8.559  0.9966  1.6591 -0.7178
  149SAPE  H15Y16517   4.891   4.349   8.418  0.7042  2.0850 -0.2847
  149SAPE  C31616518   4.702   4.325   8.529  0.6627 -0.5719 -0.9095
  149SAPE  H16X16519   4.635   4.295   8.446 -1.1832 -1.1138  0.6841
  149SAPE  H16Y16520   4.633   4.385   8.593  0.6443 -1.0628 -0.4558
  149SAPE  C31716521   4.755   4.211   8.615  0.7265 -0.6283  0.4634
  149SAPE  H17X16522   4.809   4.254   8.702 -0.4654 -0.3857  1.1064
  149SAPE  H17Y16523   4.831   4.155   8.556  1.0152  0.3989 -0.1495
  149SAPE  C31816524   4.654   4.125   8.680  0.0276 -0.1080  0.5932
  149SAPE  H18X16525   4.592   4.066   8.609 -1.7215  0.2758  1.7582
  149SAPE  H18Y16526   4.579   4.187   8.732 -0.8306  0.1055 -0.8532
  149SAPE  H18Z16527   4.714   4.050   8.738  0.5514 -0.2020 -0.0560
  150SAPE     N16528   4.023   6.813   6.128  0.4835 -0.0323  0.1940
  150SAPE   HN116529   4.113   6.790   6.082  2.4134  0.9965  3.1736
  150SAPE   HN216530   3.940   6.760   6.095  1.4496 -1.2737 -0.3227
  150SAPE   HN316531   4.011   6.910   6.094  0.1675 -0.6523 -1.5450
  150SAPE   C1216532   4.020   6.810   6.278 -0.7937  1.2694  0.2706
  150SAPE  H12A16533   4.124   6.791   6.314 -0.9757 -0.1720  0.1071
  150SAPE  H12B16534   3.954   6.726   6.309 -2.2655  0.9996 -3.0819
  150SAPE   C1116535   3.951   6.935   6.332 -0.5856  0.3209 -0.5499
  150SAPE  H11A16536   4.014   7.024   6.312  0.1621 -0.1109 -0.1489
  150SAPE  H11B16537   3.943   6.919   6.442  1.7608 -0.0725 -0.3850
  150SAPE     P16538   3.756   7.096   6.318  0.3416 -0.1837  0.2088
  150SAPE   O1316539   3.846   7.207   6.272 -0.2429 -0.3402  0.4592
  150SAPE   O1416540   3.621   7.103   6.260  0.4671  0.1124  0.2244
  150SAPE   O1216541   3.823   6.956   6.285  0.1545 -0.1356 -0.1734
  150SAPE   O1116542   3.745   7.098   6.469  0.9085 -0.1743 -0.0418
  150SAPE    C116543   3.738   7.225   6.537  0.2806  0.6570  0.1888
  150SAPE    HA16544   3.731   7.311   6.468 -0.9930  0.5568  0.1620
  150SAPE    HB16545   3.644   7.220   6.597  0.7144  0.2970  0.8551
  150SAPE    C216546   3.865   7.256   6.631 -0.4195  0.0349 -1.0057
  150SAPE    HS16547   3.953   7.238   6.566  0.8181  1.2049  0.2979
  150SAPE   O2116548   3.844   7.163   6.744  0.2649 -0.4318 -0.2609
  150SAPE   C2116549   3.947   7.151   6.821  0.0893 -0.5939 -0.5291
  150SAPE   O2216550   4.051   7.215   6.815  0.2316  0.2871  0.5642
  150SAPE   C2216551   3.928   7.034   6.916 -0.1193  0.5320 -0.7367
  150SAPE   H2R16552   3.863   6.956   6.869  1.0476 -1.4508  0.7462
  150SAPE   H2S16553   4.028   6.991   6.939 -1.4161 -1.8011  1.0820
  150SAPE    C316554   3.860   7.401   6.677  0.9924 -0.2275 -0.2773
  150SAPE    HX16555   3.897   7.465   6.594  1.9845  0.0673  0.3804
  150SAPE    HY16556   3.936   7.417   6.756 -0.2983  1.7290  0.6572
  150SAPE   O3116557   3.729   7.446   6.718 -0.3855 -0.3795 -0.6012
  150SAPE   C3116558   3.734   7.574   6.766  0.5560 -0.1300 -0.1733
  150SAPE   O3216559   3.838   7.642   6.769 -0.0260 -0.1727  0.3092
  150SAPE   C3216560   3.600   7.625   6.826  0.7832  0.3037  0.0314
  150SAPE   H2X16561   3.565   7.550   6.900 -1.4032  1.0742 -0.1523
  150SAPE   H2Y16562   3.524   7.636   6.745  0.6314  0.2548  0.1680
  150SAPE   C2316563   3.862   7.071   7.054  0.0174 -0.3774  0.3415
  150SAPE   H3R16564   3.757   7.091   7.025  0.8505  0.6945 -2.2106
  150SAPE   H3S16565   3.903   7.168   7.087  1.8567 -0.3481 -1.7864
  150SAPE   C2416566   3.871   6.966   7.173 -0.2621  0.2067 -0.2366
  150SAPE   H4R16567   3.971   6.965   7.221 -0.0690  1.0672 -0.6002
  150SAPE   H4S16568   3.861   6.870   7.119 -4.2669  0.4241 -0.1703
  150SAPE   C2516569   3.756   6.978   7.268  0.7761  0.0185 -0.1678
  150SAPE   H5R16570   3.683   7.058   7.248  1.2596  0.6137  0.4024
  150SAPE   C2616571   3.743   6.913   7.380 -0.9460 -0.8368 -0.2312
  150SAPE   H6R16572   3.658   6.943   7.443 -0.0559  1.5579 -0.0810
  150SAPE   C2716573   3.844   6.820   7.436  0.7509  0.0135  0.1179
  150SAPE   H7R16574   3.939   6.877   7.432  0.1770  1.1947  1.9701
  150SAPE   H7S16575   3.854   6.734   7.366 -0.0910 -0.4767  0.5782
  150SAPE   C2816576   3.804   6.773   7.573 -0.7643  0.3419  0.1009
  150SAPE   H8R16577   3.736   6.688   7.589 -1.1767  0.5334 -0.6063
  150SAPE   C2916578   3.857   6.833   7.682 -0.1293  0.1417 -0.9791
  150SAPE   H9R16579   3.837   6.796   7.784 -0.1237 -1.3509 -1.5008
  150SAPE  C21016580   3.953   6.951   7.678 -0.1576  0.5738 -0.7461
  150SAPE  H10R16581   3.903   7.032   7.621 -1.4949  0.0898 -0.2886
  150SAPE  H10S16582   4.040   6.923   7.614 -1.1388 -0.2123 -1.7941
  150SAPE  C21116583   3.984   6.998   7.815 -0.7426 -0.5397 -0.5425
  150SAPE  H11R16584   3.957   6.932   7.899  0.2521 -0.4477 -0.1396
  150SAPE  C21216585   4.038   7.117   7.848 -0.6049  0.0412  0.8545
  150SAPE  H12R16586   4.053   7.144   7.954 -4.6669  2.1812  1.0806
  150SAPE  C21316587   4.091   7.217   7.748  0.2919  0.5219  0.6376
  150SAPE  H13R16588   4.056   7.194   7.645  3.3967  0.7950 -0.5931
  150SAPE  H13S16589   4.201   7.211   7.752  0.3909  0.3108 -1.3620
  150SAPE  C21416590   4.050   7.354   7.783 -0.9340 -0.5511  0.6034
  150SAPE  H14R16591   3.954   7.383   7.738  0.5281  1.2046 -1.6249
  150SAPE  C21516592   4.132   7.450   7.847 -0.0537  0.2169 -0.1367
  150SAPE  H15R16593   4.074   7.542   7.864 -1.9010 -1.2993  2.4809
  150SAPE  C21616594   4.269   7.435   7.905  0.0051  0.7041  0.0641
  150SAPE  H16R16595   4.332   7.524   7.881  0.0332  1.0229  1.2500
  150SAPE  H16S16596   4.320   7.351   7.852 -1.4944  1.1046 -2.1444
  150SAPE  C21716597   4.268   7.409   8.055 -0.7296  0.1501  0.4078
  150SAPE  H17R16598   4.225   7.307   8.066  1.7534 -0.9020  1.1591
  150SAPE  H17S16599   4.202   7.483   8.103 -1.0989 -0.0636  0.2398
  150SAPE  C21816600   4.411   7.403   8.123  0.4654 -0.3617 -0.7380
  150SAPE  H18R16601   4.455   7.503   8.107  1.0621 -0.3721  0.7167
  150SAPE  H18S16602   4.476   7.327   8.075 -2.2424 -1.8659 -2.2889
  150SAPE  C21916603   4.394   7.360   8.272 -0.1956  0.6203  0.7634
  150SAPE  H19R16604   4.320   7.412   8.337  0.8674  2.4931  0.5493
  150SAPE  H19S16605   4.494   7.373   8.318 -0.0262 -0.8128  0.8586
  150SAPE  C22016606   4.357   7.209   8.278  0.4704  0.0611  0.2633
  150SAPE  H20R16607   4.382   7.162   8.376  1.1496 -3.0151 -1.2372
  150SAPE  H20S16608   4.418   7.155   8.203  0.6102  1.5283 -0.6983
  150SAPE  H20T16609   4.249   7.192   8.258  0.4415  1.8214 -1.3578
  150SAPE   C3316610   3.619   7.757   6.904  0.0714 -0.1263 -0.6850
  150SAPE   H3X16611   3.626   7.848   6.840 -0.9239  1.9828  2.0046
  150SAPE   H3Y16612   3.710   7.749   6.967 -0.9008  2.1316  1.1489
  150SAPE   C3416613   3.501   7.777   7.001 -0.2099  0.2817 -0.3667
  150SAPE   H4X16614   3.417   7.713   6.965  2.2228 -2.7554 -1.2039
  150SAPE   H4Y16615   3.463   7.881   6.997 -1.6552 -0.2176 -0.0296
  150SAPE   C3516616   3.538   7.766   7.153 -0.1774 -0.3805 -0.2758
  150SAPE   H5X16617   3.644   7.796   7.167 -0.7902  1.4413  0.8136
  150SAPE   H5Y16618   3.523   7.660   7.184  0.4935 -0.4944 -0.3092
  150SAPE   C3616619   3.460   7.851   7.255 -0.4965 -0.3711 -0.3082
  150SAPE   H6X16620   3.352   7.840   7.229 -0.9423  1.0735  0.7521
  150SAPE   H6Y16621   3.496   7.952   7.227 -1.3468 -0.8334 -3.4644
  150SAPE   C3716622   3.492   7.825   7.400 -0.6401  0.2322  0.5533
  150SAPE   H7X16623   3.599   7.806   7.424 -0.3492  0.2147 -0.6999
  150SAPE   H7Y16624   3.450   7.727   7.432  1.4367 -0.5294  1.0997
  150SAPE   C3816625   3.458   7.943   7.495  0.1984  0.7114  0.2595
  150SAPE   H8X16626   3.347   7.951   7.496  0.2201  2.5128  3.6902
  150SAPE   H8Y16627   3.492   8.035   7.444  0.2921  0.8907  0.6402
  150SAPE   C3916628   3.508   7.946   7.644  0.1402  0.3886 -0.1681
  150SAPE   H9X16629   3.617   7.943   7.663 -0.2394 -0.1753  2.4252
  150SAPE   H9Y16630   3.467   7.852   7.687 -1.0996  1.4690  1.1435
  150SAPE  C31016631   3.444   8.066   7.712  0.3090 -0.3032  0.3395
  150SAPE  H10X16632   3.337   8.060   7.682  0.5351 -0.5427 -0.4439
  150SAPE  H10Y16633   3.483   8.166   7.683 -1.1101  0.2269  0.1897
  150SAPE  C31116634   3.464   8.058   7.860 -0.3341  0.0014 -0.3220
  150SAPE  H11X16635   3.428   7.963   7.904 -1.4163 -0.1326 -1.4373
  150SAPE  H11Y16636   3.424   8.147   7.912 -0.0295 -0.4817  0.7635
  150SAPE  C31216637   3.617   8.076   7.895  0.5387  0.2895 -0.2118
  150SAPE  H12X16638   3.677   8.149   7.838  0.3352  1.0780  0.5569
  150SAPE  H12Y16639   3.662   7.977   7.870 -1.8221  0.1401 -4.9352
  150SAPE  C31316640   3.642   8.112   8.046  0.0517  0.0984  0.3136
  150SAPE  H13X16641   3.598   8.210   8.074 -0.3352 -0.0810  0.3391
  150SAPE  H13Y16642   3.750   8.133   8.058  0.3144 -0.3520 -1.0433
  150SAPE  C31416643   3.597   8.003   8.139  0.4731  0.9434 -0.0202
  150SAPE  H14X16644   3.649   7.911   8.106  0.7235  0.3844  1.7787
  150SAPE  H14Y16645   3.489   7.980   8.128  0.5563  1.1313 -1.3387
  150SAPE  C31516646   3.630   8.036   8.285 -0.0123 -0.2725  0.2476
  150SAPE  H15X16647   3.573   8.118   8.331  1.6964  0.4303  1.2229
  150SAPE  H15Y16648   3.739   8.055   8.297  0.2419 -0.0049 -2.0935
  150SAPE  C31616649   3.606   7.912   8.373 -0.4880  0.3248 -0.2726
  150SAPE  H16X16650   3.506   7.869   8.352 -0.9007  0.6740  0.8932
  150SAPE  H16Y16651   3.608   7.956   8.475 -3.3029 -0.9589  0.4073
  150SAPE  C31716652   3.716   7.800   8.360  0.2905  0.0751 -0.0988
  150SAPE  H17X16653   3.817   7.847   8.358  1.3422 -2.0677 -2.5417
  150SAPE  H17Y16654   3.706   7.755   8.259 -0.0848 -0.7413  0.2983
  150SAPE  C31816655   3.708   7.691   8.474 -0.1817 -0.5419 -0.4050
  150SAPE  H18X16656   3.800   7.632   8.493 -1.4214 -2.6311 -0.5633
  150SAPE  H18Y16657   3.623   7.624   8.451  0.2386 -1.0061 -0.6298
  150SAPE  H18Z16658   3.688   7.755   8.563 -0.7436 -1.4220  0.1088
  151SAPE     N16659   6.015   3.918   6.543  0.7996 -0.1820  0.5268
  151SAPE   HN116660   6.107   3.952   6.577  0.0157  1.0881  1.4683
  151SAPE   HN216661   5.950   3.983   6.591 -0.4774 -0.6507 -0.5102
  151SAPE   HN316662   5.990   3.820   6.569  2.1427 -1.2762 -1.9265
  151SAPE   C1216663   6.004   3.936   6.390  0.1550 -0.3728 -0.1798
  151SAPE  H12A16664   5.897   3.933   6.360  0.2842 -0.3628 -0.6494
  151SAPE  H12B16665   6.067   3.852   6.351  1.2272 -0.1333  0.9666
  151SAPE   C1116666   6.068   4.077   6.357  0.4796  0.0898 -0.4146
  151SAPE  H11A16667   6.002   4.155   6.400 -1.5727 -1.5409 -0.4088
  151SAPE  H11B16668   6.070   4.088   6.246  0.3512 -0.2337 -0.4500
  151SAPE     P16669   6.304   4.170   6.352  0.0104 -0.0694  0.2189
  151SAPE   O1316670   6.380   4.076   6.269  0.6648 -0.4726  0.0941
  151SAPE   O1416671   6.245   4.283   6.282  0.0297 -0.7552 -0.0823
  151SAPE   O1216672   6.195   4.080   6.414 -0.2413 -0.3166 -0.2563
  151SAPE   O1116673   6.389   4.218   6.471  0.3848  0.8647 -0.5200
  151SAPE    C116674   6.340   4.292   6.588  0.2758  0.3647 -0.3548
  151SAPE    HA16675   6.413   4.374   6.606 -0.3382  1.0837 -1.0109
  151SAPE    HB16676   6.251   4.356   6.569  0.4021  1.2825  1.9415
  151SAPE    C216677   6.305   4.204   6.710  0.6337  0.1128  0.0373
  151SAPE    HS16678   6.213   4.147   6.685 -0.1985  0.8159  1.3520
  151SAPE   O2116679   6.283   4.294   6.824 -0.2068 -0.1567  0.2142
  151SAPE   C2116680   6.184   4.267   6.910  0.6368 -0.0146  1.2119
  151SAPE   O2216681   6.115   4.166   6.909  0.4621 -0.5905 -0.1529
  151SAPE   C2216682   6.150   4.377   7.005 -0.5504 -0.2685 -0.4864
  151SAPE   H2R16683   6.206   4.472   6.990 -0.5600  0.1117  1.6612
  151SAPE   H2S16684   6.042   4.396   6.989 -0.6519 -0.8818 -0.5148
  151SAPE    C316685   6.423   4.103   6.744 -0.1962 -0.2948  0.8107
  151SAPE    HX16686   6.512   4.155   6.785 -1.6634  1.6719  1.6291
  151SAPE    HY16687   6.452   4.053   6.649 -2.5327  1.8862 -1.1844
  151SAPE   O3116688   6.388   4.009   6.842  0.2480 -0.1134 -0.6123
  151SAPE   C3116689   6.286   3.919   6.817 -0.1288 -1.0522 -0.2319
  151SAPE   O3216690   6.241   3.897   6.704  0.4031  0.3856  0.4697
  151SAPE   C3216691   6.251   3.853   6.945  0.3604 -0.3761 -0.4714
  151SAPE   H2X16692   6.288   3.749   6.953  0.2390 -0.2950  2.3630
  151SAPE   H2Y16693   6.140   3.848   6.951  0.0961  1.5278 -2.5629
  151SAPE   C2316694   6.164   4.330   7.155  0.0774  0.3165 -0.0453
  151SAPE   H3R16695   6.269   4.312   7.185 -0.1142 -0.6813  0.0690
  151SAPE   H3S16696   6.123   4.228   7.174  2.4435 -0.2955  2.1881
  151SAPE   C2416697   6.094   4.432   7.241  0.0520 -0.0783 -0.0366
  151SAPE   H4R16698   6.073   4.390   7.342  2.1149  0.3824  0.6298
  151SAPE   H4S16699   5.995   4.461   7.197  0.3685  1.0304 -0.0618
  151SAPE   C2516700   6.181   4.556   7.264  0.9983 -0.3802  0.1419
  151SAPE   H5R16701   6.247   4.573   7.178 -0.2785  1.8273 -0.4836
  151SAPE   C2616702   6.183   4.631   7.371 -0.1569 -0.1448 -0.1733
  151SAPE   H6R16703   6.246   4.720   7.358  0.7201 -0.3698  2.1830
  151SAPE   C2716704   6.097   4.632   7.493 -0.7099 -1.0076  0.2924
  151SAPE   H7R16705   5.999   4.591   7.465 -0.0538 -0.8263 -2.5238
  151SAPE   H7S16706   6.094   4.738   7.526 -1.4329 -1.7493  2.8175
  151SAPE   C2816707   6.137   4.532   7.595  0.0716 -0.1987 -0.8680
  151SAPE   H8R16708   6.118   4.425   7.575 -3.3981  0.0377  0.4429
  151SAPE   C2916709   6.188   4.562   7.717 -0.0500  0.4626  0.2444
  151SAPE   H9R16710   6.243   4.485   7.773  1.4343 -0.0140 -1.7746
  151SAPE  C21016711   6.226   4.699   7.766 -0.2240  0.0401  0.8586
  151SAPE  H10R16712   6.225   4.707   7.877  1.1414  0.6546  0.8574
  151SAPE  H10S16713   6.136   4.763   7.753 -0.2510  0.0915  1.2823
  151SAPE  C21116714   6.356   4.753   7.708  0.6803 -0.7823  0.0028
  151SAPE  H11R16715   6.403   4.721   7.613  2.7906  0.1237  0.7004
  151SAPE  C21216716   6.410   4.859   7.766  0.0675  0.1142  0.2824
  151SAPE  H12R16717   6.509   4.886   7.725 -0.2924 -0.5308 -1.0582
  151SAPE  C21316718   6.358   4.935   7.885 -0.5456  0.1509  0.1463
  151SAPE  H13R16719   6.398   4.886   7.976 -0.7861  0.1465  0.2475
  151SAPE  H13S16720   6.248   4.927   7.891 -0.3513 -1.9841  1.9120
  151SAPE  C21416721   6.415   5.076   7.873  0.1924  0.2911  0.5022
  151SAPE  H14R16722   6.439   5.115   7.772 -2.6009 -1.5233 -1.0158
  151SAPE  C21516723   6.456   5.161   7.973 -0.0724  0.3884  0.2514
  151SAPE  H15R16724   6.499   5.259   7.948 -2.0492  1.2862  0.1873
  151SAPE  C21616725   6.457   5.133   8.113  0.2195  0.4213  0.4209
  151SAPE  H16R16726   6.370   5.069   8.138  0.2261  0.4919  0.6248
  151SAPE  H16S16727   6.454   5.225   8.175  0.0378  0.2626  0.6492
  151SAPE  C21716728   6.581   5.053   8.157  0.3707 -0.1037  0.3466
  151SAPE  H17R16729   6.669   5.115   8.131  0.9662 -1.3518 -0.7462
  151SAPE  H17S16730   6.592   4.964   8.092  2.0212  0.0276  0.4078
  151SAPE  C21816731   6.597   5.014   8.309  0.4283  0.3297  0.1581
  151SAPE  H18R16732   6.619   5.108   8.364  1.7878  1.5295 -2.2687
  151SAPE  H18S16733   6.686   4.948   8.322 -0.4593 -0.8093  0.6253
  151SAPE  C21916734   6.482   4.951   8.375  0.0226 -0.7342  0.1176
  151SAPE  H19R16735   6.400   5.024   8.393  2.3438  1.4684  2.7304
  151SAPE  H19S16736   6.519   4.924   8.476 -1.6990 -0.6246  0.8252
  151SAPE  C22016737   6.427   4.833   8.292  0.7253 -0.6668  0.4070
  151SAPE  H20R16738   6.343   4.783   8.345 -1.1139 -1.8505 -3.2961
  151SAPE  H20S16739   6.378   4.865   8.198 -1.5864 -1.8862  1.1150
  151SAPE  H20T16740   6.498   4.751   8.269 -0.4352 -2.1135  1.7319
  151SAPE   C3316741   6.300   3.936   7.065  0.3188 -0.3574 -0.1112
  151SAPE   H3X16742   6.248   4.034   7.070 -1.0757 -1.0898  0.1499
  151SAPE   H3Y16743   6.410   3.949   7.062  0.3965 -1.0456 -0.6971
  151SAPE   C3416744   6.285   3.859   7.198 -0.4853 -0.3248 -0.6654
  151SAPE   H4X16745   6.361   3.778   7.200 -0.0116  0.1220  1.3205
  151SAPE   H4Y16746   6.186   3.810   7.215  1.2965 -3.4100  2.0067
  151SAPE   C3516747   6.323   3.954   7.312 -0.6954  0.5636 -0.2645
  151SAPE   H5X16748   6.270   4.050   7.291 -1.9362 -0.4452 -1.9754
  151SAPE   H5Y16749   6.432   3.974   7.305 -0.5776  0.2843  0.6914
  151SAPE   C3616750   6.277   3.902   7.451  0.2597 -0.0826 -0.6512
  151SAPE   H6X16751   6.339   3.816   7.482  1.9764  0.8337 -1.3796
  151SAPE   H6Y16752   6.168   3.880   7.445  0.5531 -1.4951 -1.2082
  151SAPE   C3716753   6.290   4.001   7.561 -0.1959  0.8404  0.9912
  151SAPE   H7X16754   6.251   4.097   7.522 -1.4909  0.2149  0.6869
  151SAPE   H7Y16755   6.400   4.013   7.569  0.2864 -0.9604 -1.6771
  151SAPE   C3816756   6.219   3.962   7.693 -0.0760  0.1375 -0.3089
  151SAPE   H8X16757   6.253   3.862   7.727  0.0050  0.4313  0.5133
  151SAPE   H8Y16758   6.112   3.941   7.675  0.2777 -2.7974  0.5016
  151SAPE   C3916759   6.232   4.062   7.803  0.2072 -0.3454 -0.1876
  151SAPE   H9X16760   6.131   4.080   7.846  0.4309  0.6206 -0.0366
  151SAPE   H9Y16761   6.257   4.156   7.749  2.2055  0.1057  1.3876
  151SAPE  C31016762   6.338   4.020   7.904  0.1912  0.9400  0.2195
  151SAPE  H10X16763   6.434   4.033   7.852 -0.2121 -1.4370 -1.2819
  151SAPE  H10Y16764   6.332   3.911   7.925 -1.7436  0.8413 -0.6484
  151SAPE  C31116765   6.330   4.095   8.043  0.3111 -1.0002  1.0167
  151SAPE  H11X16766   6.410   4.068   8.115 -0.0729 -2.6970  0.8458
  151SAPE  H11Y16767   6.229   4.083   8.088 -0.0569 -2.0155 -0.0083
  151SAPE  C31216768   6.351   4.245   8.023 -0.3347  0.0387  0.7091
  151SAPE  H12X16769   6.265   4.277   7.961  2.0083  0.4471 -2.6128
  151SAPE  H12Y16770   6.439   4.269   7.959 -1.5642  2.6141 -0.1131
  151SAPE  C31316771   6.372   4.329   8.150 -0.4530  0.7400  0.2730
  151SAPE  H13X16772   6.361   4.438   8.129 -0.6641  0.6168 -0.2552
  151SAPE  H13Y16773   6.480   4.311   8.171 -0.2562  0.4637 -0.9213
  151SAPE  C31416774   6.276   4.298   8.265 -0.6055  0.4659 -0.0435
  151SAPE  H14X16775   6.295   4.194   8.300 -2.1002  0.2049  0.0442
  151SAPE  H14Y16776   6.175   4.300   8.219 -0.7694  1.3197  0.3206
  151SAPE  C31516777   6.273   4.407   8.373  0.4790 -0.0868 -0.2145
  151SAPE  H15X16778   6.228   4.497   8.328 -4.0978 -1.4366  1.1309
  151SAPE  H15Y16779   6.377   4.423   8.409  1.3647 -1.5043 -2.0179
  151SAPE  C31616780   6.198   4.361   8.502  0.3437  0.0285  0.3824
  151SAPE  H16X16781   6.245   4.270   8.545 -0.3853 -0.9768 -0.8715
  151SAPE  H16Y16782   6.095   4.337   8.467  0.3295 -0.5724  0.8319
  151SAPE  C31716783   6.200   4.465   8.612 -0.3445 -0.0466 -0.5789
  151SAPE  H17X16784   6.138   4.453   8.703  1.1984 -3.3975  0.1674
  151SAPE  H17Y16785   6.165   4.560   8.566 -1.1693  0.0803  0.2784
  151SAPE  C31816786   6.341   4.498   8.667 -0.0966  0.6172 -0.2435
  151SAPE  H18X16787   6.416   4.539   8.595 -0.2538  1.0074 -0.1872
  151SAPE  H18Y16788   6.380   4.407   8.719 -3.6725  0.1521  1.9894
  151SAPE  H18Z16789   6.325   4.583   8.736  2.2791  1.5433 -0.7197
  152SAPE     N16790   4.276   1.606   5.928 -0.0078  0.3798 -0.1715
  152SAPE   HN116791   4.205   1.681   5.917 -0.1648  0.4163  0.9789
  152SAPE   HN216792   4.364   1.639   5.884  1.2537 -0.3512  1.6963
  152SAPE   HN316793   4.249   1.518   5.879  0.9307  0.1907 -0.3757
  152SAPE   C1216794   4.266   1.584   6.070 -0.1893  0.1963  0.0926
  152SAPE  H12A16795   4.162   1.545   6.078 -0.2942 -0.0763 -2.0291
  152SAPE  H12B16796   4.287   1.676   6.128 -2.5519  0.7366  0.1906
  152SAPE   C1116797   4.368   1.464   6.102  0.5314  0.0403  0.1132
  152SAPE  H11A16798   4.322   1.371   6.064  0.0491  0.6456 -0.8284
  152SAPE  H11B16799   4.367   1.450   6.213 -1.5194  1.1220  0.2873
  152SAPE     P16800   4.611   1.579   6.100 -0.2585 -0.2256  0.2825
  152SAPE   O1316801   4.747   1.560   6.035  0.5012  0.2140 -0.0686
  152SAPE   O1416802   4.564   1.723   6.121  0.3214  0.0356  0.2418
  152SAPE   O1216803   4.504   1.475   6.031 -0.2032  0.4160  0.9492
  152SAPE   O1116804   4.615   1.515   6.235 -0.0520 -0.3061 -0.0950
  152SAPE    C116805   4.641   1.379   6.251 -0.0871  0.9007 -0.4197
  152SAPE    HA16806   4.580   1.309   6.190 -1.1600  1.2288  0.2628
  152SAPE    HB16807   4.750   1.368   6.230 -0.1007  1.1992 -0.6550
  152SAPE    C216808   4.619   1.334   6.398  0.1838 -0.1444  0.0826
  152SAPE    HS16809   4.509   1.327   6.413  0.1655  0.8153  0.4565
  152SAPE   O2116810   4.680   1.426   6.496 -0.0037  0.0024 -0.0650
  152SAPE   C2116811   4.623   1.426   6.614  0.7715 -0.2117 -0.8673
  152SAPE   O2216812   4.523   1.363   6.645  0.2279 -0.0135 -0.2787
  152SAPE   C2216813   4.707   1.515   6.710  0.1711 -0.7221 -0.5155
  152SAPE   H2R16814   4.815   1.518   6.682  0.0723  0.7866 -0.8577
  152SAPE   H2S16815   4.674   1.622   6.708 -0.8151 -0.9393  1.4847
  152SAPE    C316816   4.675   1.197   6.413  0.0541  0.3550  0.0247
  152SAPE    HX16817   4.786   1.205   6.421  0.1474 -1.3214  0.9219
  152SAPE    HY16818   4.645   1.129   6.331 -1.3594  0.1478  0.6836
  152SAPE   O3116819   4.623   1.136   6.538 -0.2765  0.0285  0.2217
  152SAPE   C3116820   4.706   1.039   6.579  1.0008 -0.2260 -0.3612
  152SAPE   O3216821   4.815   1.018   6.529  0.1443  0.3694 -1.0685
  152SAPE   C3216822   4.640   0.964   6.694  0.2311  0.0527  0.4199
  152SAPE   H2X16823   4.629   0.861   6.655  1.3186  0.2418 -0.4314
  152SAPE   H2Y16824   4.547   1.022   6.715  0.2074  0.7711 -1.4824
  152SAPE   C2316825   4.715   1.461   6.862  0.1430  0.1932  1.2575
  152SAPE   H3R16826   4.757   1.358   6.862  1.5924  0.6553 -1.7729
  152SAPE   H3S16827   4.612   1.436   6.895 -0.7569  3.0954  0.9040
  152SAPE   C2416828   4.792   1.542   6.966  0.4892  0.5107 -0.8337
  152SAPE   H4R16829   4.769   1.493   7.064  1.8887  2.5152  0.5847
  152SAPE   H4S16830   4.748   1.643   6.956  0.6874  0.6579 -0.2967
  152SAPE   C2516831   4.939   1.548   6.938 -0.8345  0.3738  0.8172
  152SAPE   H5R16832   4.969   1.577   6.837  0.4895  0.7091  1.2808
  152SAPE   C2616833   5.042   1.515   7.024  0.0662 -0.3498  0.7283
  152SAPE   H6R16834   5.141   1.505   6.977 -1.1594 -0.4320 -1.9620
  152SAPE   C2716835   5.036   1.474   7.168 -0.4006 -0.3209  0.5447
  152SAPE   H7R16836   5.139   1.449   7.204 -0.4850 -1.1592  0.2291
  152SAPE   H7S16837   4.971   1.384   7.175 -3.0012  1.4352 -0.0214
  152SAPE   C2816838   4.971   1.575   7.257 -0.0861 -0.6356  0.3926
  152SAPE   H8R16839   4.951   1.671   7.207 -1.0885 -0.8820  0.3067
  152SAPE   C2916840   4.940   1.554   7.381  0.3547  0.1078 -0.6506
  152SAPE   H9R16841   4.895   1.643   7.427  1.8398  1.5364 -1.8460
  152SAPE  C21016842   4.958   1.431   7.476 -0.0416  0.0352  0.7624
  152SAPE  H10R16843   4.944   1.336   7.421 -2.8187  1.5568 -1.4144
  152SAPE  H10S16844   4.882   1.453   7.554 -1.3048 -2.0421  0.1999
  152SAPE  C21116845   5.091   1.422   7.538  0.1125  0.2335  0.1420
  152SAPE  H11R16846   5.168   1.370   7.480  1.5871  1.6864  0.7119
  152SAPE  C21216847   5.119   1.444   7.662 -0.4545 -0.3055 -0.4934
  152SAPE  H12R16848   5.227   1.444   7.683 -0.5211 -0.6757 -0.1488
  152SAPE  C21316849   5.043   1.495   7.780 -0.1584 -0.7970 -0.1366
  152SAPE  H13R16850   5.030   1.413   7.855  0.7624 -2.7566 -2.0156
  152SAPE  H13S16851   4.939   1.522   7.753 -0.9167 -2.9536  0.3674
  152SAPE  C21416852   5.102   1.619   7.845 -0.4491 -0.1158 -0.1799
  152SAPE  H14R16853   5.049   1.711   7.814 -2.5295 -1.1609  0.0894
  152SAPE  C21516854   5.187   1.633   7.956  0.8587  0.0726 -0.1283
  152SAPE  H15R16855   5.204   1.736   7.992  1.2589  0.0258 -0.1805
  152SAPE  C21616856   5.240   1.512   8.030  0.9552 -0.1806 -0.5879
  152SAPE  H16R16857   5.269   1.428   7.964 -0.1170  1.0371 -2.7142
  152SAPE  H16S16858   5.159   1.480   8.100 -2.7433  2.2905 -3.3305
  152SAPE  C21716859   5.366   1.540   8.108  0.1842  0.0761  0.2164
  152SAPE  H17R16860   5.349   1.636   8.161 -1.4864  1.0279 -1.8929
  152SAPE  H17S16861   5.444   1.543   8.030 -0.5271 -0.9757 -0.5695
  152SAPE  C21816862   5.401   1.422   8.209 -0.1479  0.5356  0.3600
  152SAPE  H18R16863   5.511   1.426   8.222  0.2494  0.8055 -2.4690
  152SAPE  H18S16864   5.384   1.329   8.149  2.0393  0.9524 -1.0125
  152SAPE  C21916865   5.304   1.414   8.329  0.1738  0.4922 -0.0894
  152SAPE  H19R16866   5.198   1.402   8.299 -0.1021 -1.1357  1.3652
  152SAPE  H19S16867   5.302   1.508   8.390  0.4844  1.6054 -1.7416
  152SAPE  C22016868   5.344   1.294   8.416 -1.0067 -0.0847  0.8345
  152SAPE  H20R16869   5.337   1.204   8.350  1.1369  0.4431 -0.1986
  152SAPE  H20S16870   5.266   1.278   8.494 -1.8243 -2.1350 -0.3205
  152SAPE  H20T16871   5.446   1.311   8.455 -0.8187  0.7504  0.0119
  152SAPE   C3316872   4.734   0.959   6.812  0.0755  0.0027 -0.2148
  152SAPE   H3X16873   4.835   0.917   6.792 -1.0717 -3.2362  0.2251
  152SAPE   H3Y16874   4.694   0.884   6.883  0.7485 -2.5620 -2.3973
  152SAPE   C3416875   4.755   1.102   6.875  0.5350 -0.8047 -0.2741
  152SAPE   H4X16876   4.656   1.150   6.876  1.1464  0.9750 -4.4895
  152SAPE   H4Y16877   4.826   1.160   6.812  1.4621 -0.9363  0.6247
  152SAPE   C3516878   4.833   1.109   7.011 -0.7173 -0.0279  0.8855
  152SAPE   H5X16879   4.863   1.215   7.028  0.2045  0.1932 -1.6449
  152SAPE   H5Y16880   4.934   1.066   6.995 -0.2273  1.9281 -2.2375
  152SAPE   C3616881   4.758   1.041   7.134 -0.0277 -0.4437  0.2654
  152SAPE   H6X16882   4.723   0.939   7.109 -3.1038  0.7938 -1.0121
  152SAPE   H6Y16883   4.664   1.099   7.145  0.4433  0.3874  0.0152
  152SAPE   C3716884   4.838   1.047   7.265  0.0267 -0.0468 -0.2441
  152SAPE   H7X16885   4.884   1.148   7.268  1.0120 -0.4964  2.4540
  152SAPE   H7Y16886   4.922   0.975   7.259  0.5830  0.5119  0.7005
  152SAPE   C3816887   4.754   1.015   7.390 -0.1970  0.6218  0.7224
  152SAPE   H8X16888   4.690   0.926   7.373  1.3814 -0.2481 -1.1073
  152SAPE   H8Y16889   4.681   1.097   7.407 -0.6076  0.6256 -0.9069
  152SAPE   C3916890   4.848   1.011   7.508 -0.1224 -0.0067 -0.2645
  152SAPE   H9X16891   4.791   1.016   7.603 -1.9109  0.5462 -1.3281
  152SAPE   H9Y16892   4.906   1.106   7.503  0.9905 -0.6975 -0.8476
  152SAPE  C31016893   4.950   0.896   7.507 -0.4703 -0.7402 -0.0027
  152SAPE  H10X16894   5.019   0.901   7.420 -0.1893  0.7657  0.2873
  152SAPE  H10Y16895   4.895   0.799   7.504  1.0429 -1.6245 -0.4256
  152SAPE  C31116896   5.038   0.903   7.625 -0.4861 -0.3156 -0.3566
  152SAPE  H11X16897   4.985   0.872   7.718 -1.9673  0.1708 -1.0078
  152SAPE  H11Y16898   5.068   1.010   7.624 -1.1078 -0.1258 -2.1563
  152SAPE  C31216899   5.157   0.804   7.626  0.2728  0.5122  0.4923
  152SAPE  H12X16900   5.226   0.858   7.558  0.1371  0.2505  0.1408
  152SAPE  H12Y16901   5.111   0.714   7.580  1.0480  0.6740 -0.6697
  152SAPE  C31316902   5.207   0.779   7.776 -0.3127 -0.0711  0.3146
  152SAPE  H13X16903   5.122   0.760   7.846 -0.6671 -0.4246 -0.2019
  152SAPE  H13Y16904   5.259   0.871   7.811  0.7403  0.3817 -2.2459
  152SAPE  C31416905   5.301   0.663   7.795  0.5246 -0.1721 -0.1578
  152SAPE  H14X16906   5.388   0.685   7.730  0.7619  1.9543  0.8171
  152SAPE  H14Y16907   5.259   0.572   7.746  0.3742 -0.4897  0.5428
  152SAPE  C31516908   5.341   0.633   7.942  0.8655 -0.3409 -0.0203
  152SAPE  H15X16909   5.370   0.730   7.988 -1.2124  0.7659 -0.8892
  152SAPE  H15Y16910   5.430   0.567   7.950  0.5671 -0.7943 -0.4522
  152SAPE  C31616911   5.225   0.565   8.023 -0.2150 -0.3812 -0.3093
  152SAPE  H16X16912   5.187   0.472   7.976 -0.5153 -0.8635  0.8409
  152SAPE  H16Y16913   5.131   0.624   8.019  0.4793  0.6752 -2.0340
  152SAPE  C31716914   5.261   0.521   8.169 -0.2856 -0.0639  0.3699
  152SAPE  H17X16915   5.277   0.615   8.225 -0.7429  0.3682 -0.2177
  152SAPE  H17Y16916   5.348   0.452   8.168 -1.5592 -1.9064 -3.2012
  152SAPE  C31816917   5.150   0.442   8.236 -0.5420  0.0721 -0.8076
  152SAPE  H18X16918   5.136   0.347   8.181  0.3945 -0.3133 -0.4165
  152SAPE  H18Y16919   5.060   0.507   8.233  1.3201  3.0279  1.2963
  152SAPE  H18Z16920   5.163   0.418   8.344 -1.8083 -0.5895 -0.7825
  153SAPE     N16921   1.494   1.513   6.175  0.2454  0.1338  0.8049
  153SAPE   HN116922   1.482   1.419   6.131 -0.8379  1.1178 -1.1405
  153SAPE   HN216923   1.498   1.585   6.100  1.1745  0.3796  1.0795
  153SAPE   HN316924   1.590   1.510   6.216  1.4413 -1.7263 -1.8219
  153SAPE   C1216925   1.391   1.540   6.281 -0.5842  1.0417 -0.3241
  153SAPE  H12A16926   1.386   1.452   6.349  1.0366  0.4601 -0.9072
  153SAPE  H12B16927   1.297   1.551   6.222  0.5852  1.6186 -2.1669
  153SAPE   C1116928   1.417   1.641   6.389  0.1555  0.2919  1.0110
  153SAPE  H11A16929   1.517   1.638   6.438  0.6314  1.6030  0.1682
  153SAPE  H11B16930   1.339   1.626   6.467 -0.7973  0.0866  0.0351
  153SAPE     P16931   1.297   1.857   6.288 -0.0622  0.2617  0.0210
  153SAPE   O1316932   1.346   1.973   6.225 -0.0977 -0.1537 -0.0190
  153SAPE   O1416933   1.200   1.774   6.209 -0.1919 -0.6113 -0.4611
  153SAPE   O1216934   1.422   1.771   6.334  0.4634 -0.0764  0.2889
  153SAPE   O1116935   1.221   1.901   6.422  0.1073  0.0214  0.1914
  153SAPE    C116936   1.286   1.896   6.551  0.6354 -0.3343 -0.0956
  153SAPE    HA16937   1.345   1.804   6.571 -0.1454 -0.6191  1.0137
  153SAPE    HB16938   1.352   1.984   6.564  1.3716 -1.0298  1.1381
  153SAPE    C216939   1.184   1.903   6.663 -0.4981 -0.5993 -0.2209
  153SAPE    HS16940   1.116   1.986   6.634  1.4315  1.4309  0.7796
  153SAPE   O2116941   1.256   1.913   6.787  0.3529 -0.4753  0.2267
  153SAPE   C2116942   1.215   2.008   6.869 -0.2165  0.6204  0.3669
  153SAPE   O2216943   1.140   2.099   6.842 -0.1297 -0.0388  0.7325
  153SAPE   C2216944   1.283   1.976   7.007  0.0156 -0.2300  0.5042
  153SAPE   H2R16945   1.393   1.960   6.993 -0.0237  1.2087 -2.1453
  153SAPE   H2S16946   1.262   2.065   7.069 -0.1791 -1.2091  1.9011
  153SAPE    C316947   1.093   1.771   6.673 -0.4777 -0.4960  0.7087
  153SAPE    HX16948   1.157   1.683   6.699  2.0184  0.4226 -1.8525
  153SAPE    HY16949   1.058   1.758   6.569  0.0669  1.1454  0.2870
  153SAPE   O3116950   0.987   1.789   6.762 -0.2034  0.1689 -0.4079
  153SAPE   C3116951   0.889   1.857   6.719 -0.6416  0.3403  0.2297
  153SAPE   O3216952   0.879   1.921   6.616 -0.4006 -0.3814 -0.5581
  153SAPE   C3216953   0.768   1.848   6.820  0.1801  0.2272  0.1996
  153SAPE   H2X16954   0.719   1.752   6.792 -0.3142 -0.0934  2.0264
  153SAPE   H2Y16955   0.707   1.939   6.801  0.9801  0.5001 -1.1643
  153SAPE   C2316956   1.210   1.851   7.066 -0.2238 -0.1870 -0.1076
  153SAPE   H3R16957   1.248   1.760   7.013 -2.1340 -0.4516 -1.1217
  153SAPE   H3S16958   1.105   1.850   7.031  0.2417 -0.1990 -1.5585
  153SAPE   C2416959   1.229   1.829   7.217  0.4072 -0.6399 -0.1409
  153SAPE   H4R16960   1.180   1.736   7.253  0.6028 -0.6571  0.0906
  153SAPE   H4S16961   1.180   1.915   7.268 -0.4122 -0.3575 -1.3724
  153SAPE   C2516962   1.376   1.826   7.256  0.5330 -0.3270 -0.3058
  153SAPE   H5R16963   1.445   1.828   7.170  0.1198 -0.6500 -0.6461
  153SAPE   C2616964   1.433   1.823   7.381 -0.2232 -0.5977 -0.2304
  153SAPE   H6R16965   1.543   1.821   7.386 -0.2713 -1.0263  1.8446
  153SAPE   C2716966   1.357   1.818   7.510  0.1465  0.1319 -0.9441
  153SAPE   H7R16967   1.251   1.793   7.484 -0.4914  0.5825  1.0589
  153SAPE   H7S16968   1.340   1.915   7.560 -0.2022 -1.6244  2.6456
  153SAPE   C2816969   1.412   1.713   7.606  0.4346 -0.4146  0.0789
  153SAPE   H8R16970   1.463   1.629   7.557  1.2625 -0.6840  1.3471
  153SAPE   C2916971   1.419   1.718   7.739  0.1389  0.0968 -0.5090
  153SAPE   H9R16972   1.460   1.632   7.794 -0.1636  1.6118  2.2443
  153SAPE  C21016973   1.368   1.822   7.844  0.5207  0.3579 -0.3517
  153SAPE  H10R16974   1.373   1.770   7.942  0.5626 -0.4178 -0.7598
  153SAPE  H10S16975   1.261   1.847   7.836  0.6618  1.0859 -0.0718
  153SAPE  C21116976   1.451   1.953   7.836  0.2164 -0.5818 -0.9373
  153SAPE  H11R16977   1.446   1.997   7.735 -1.0570 -0.4049 -0.8139
  153SAPE  C21216978   1.525   2.017   7.929  0.7207  0.8590 -0.1718
  153SAPE  H12R16979   1.582   2.103   7.891 -1.5278  2.1198 -0.8444
  153SAPE  C21316980   1.531   1.964   8.074  0.0675 -0.9207  0.2746
  153SAPE  H13R16981   1.575   1.863   8.060 -0.1427 -0.8799 -0.7829
  153SAPE  H13S16982   1.428   1.959   8.114 -0.8842 -0.7881 -2.0320
  153SAPE  C21416983   1.617   2.040   8.172  0.2574  0.6392 -0.0495
  153SAPE  H14R16984   1.721   2.042   8.138  0.1164  0.4170 -0.5130
  153SAPE  C21516985   1.587   2.096   8.289 -0.1289 -0.2266 -0.4270
  153SAPE  H15R16986   1.668   2.147   8.344 -1.5388  0.6983  0.8650
  153SAPE  C21616987   1.454   2.104   8.355  0.1614 -0.5553  0.4370
  153SAPE  H16R16988   1.368   2.093   8.285 -1.1965  3.2352  1.2622
  153SAPE  H16S16989   1.444   2.203   8.405 -0.8536 -1.5488  2.3241
  153SAPE  C21716990   1.437   2.001   8.457 -0.3644  0.8352 -0.9585
  153SAPE  H17R16991   1.461   1.903   8.410 -3.7939 -0.1685 -0.8244
  153SAPE  H17S16992   1.330   1.986   8.478  0.2548 -1.5449  0.8986
  153SAPE  C21816993   1.516   2.033   8.589  1.0832  0.5025  0.3070
  153SAPE  H18R16994   1.513   2.141   8.613 -2.0780  0.3408  1.1033
  153SAPE  H18S16995   1.619   1.996   8.566  0.9637  1.0272 -1.1971
  153SAPE  C21916996   1.455   1.947   8.708 -0.2871 -0.6231 -0.6703
  153SAPE  H19R16997   1.438   1.844   8.670 -0.7446 -0.7670 -0.0924
  153SAPE  H19S16998   1.356   1.991   8.732  1.2646  2.3372  0.9942
  153SAPE  C22016999   1.535   1.946   8.833 -0.3870  0.0906 -0.8658
  153SAPE  H20R17000   1.641   1.918   8.813  0.0629  1.2894 -0.3038
  153SAPE  H20S17001   1.513   1.868   8.909  1.6681 -0.4281 -0.7264
  153SAPE  H20T17002   1.547   2.042   8.887  2.0953  0.4630 -1.9372
  153SAPE   C3317003   0.808   1.853   6.977 -0.5315  0.0713 -0.0311
  153SAPE   H3X17004   0.887   1.778   6.996  1.6882  1.7350 -2.1213
  153SAPE   H3Y17005   0.714   1.826   7.032 -1.0290  2.9069  0.6873
  153SAPE   C3417006   0.860   1.987   7.032  0.3394  0.3003  0.1682
  153SAPE   H4X17007   0.811   2.071   6.977 -0.9169  0.4781  1.5031
  153SAPE   H4Y17008   0.967   1.991   7.002  0.4881 -0.3455  0.6073
  153SAPE   C3517009   0.841   2.004   7.177  0.2190  0.0837 -0.1445
  153SAPE   H5X17010   0.889   1.931   7.246 -1.3087  0.4911  1.4196
  153SAPE   H5Y17011   0.733   1.999   7.201  0.6655 -0.8280  1.8923
  153SAPE   C3617012   0.883   2.145   7.221 -0.4709  0.0154 -0.2591
  153SAPE   H6X17013   0.805   2.217   7.187  1.0657  1.8644 -0.0320
  153SAPE   H6Y17014   0.984   2.183   7.195 -0.0383 -0.5399  0.6022
  153SAPE   C3717015   0.871   2.159   7.372  0.6167 -0.2489  0.1904
  153SAPE   H7X17016   0.765   2.137   7.395 -0.6817  2.1032 -2.7244
  153SAPE   H7Y17017   0.870   2.270   7.380 -1.1204 -0.3280  1.7456
  153SAPE   C3817018   0.989   2.107   7.445  0.3004  0.7036 -0.0805
  153SAPE   H8X17019   1.075   2.147   7.387 -0.5056 -0.7155 -2.3511
  153SAPE   H8Y17020   1.015   1.999   7.448  0.9233  0.8536  2.0787
  153SAPE   C3917021   0.996   2.159   7.590 -0.4425 -0.3709  0.5311
  153SAPE   H9X17022   0.930   2.097   7.654 -1.3334  0.1700  0.1538
  153SAPE   H9Y17023   0.961   2.264   7.602 -1.5017 -0.8035  1.3888
  153SAPE  C31017024   1.133   2.143   7.656  0.0660 -0.3599  0.8344
  153SAPE  H10X17025   1.212   2.195   7.598 -0.5365 -0.9348 -0.5422
  153SAPE  H10Y17026   1.148   2.034   7.669 -0.7739 -0.7777 -1.1950
  153SAPE  C31117027   1.139   2.187   7.807 -0.1446 -0.1077  0.4997
  153SAPE  H11X17028   1.115   2.295   7.819 -1.4088 -0.2522 -0.5518
  153SAPE  H11Y17029   1.247   2.166   7.825 -0.2172 -1.5702 -0.6235
  153SAPE  C31217030   1.058   2.102   7.910  0.4489 -0.0877  0.5226
  153SAPE  H12X17031   1.054   1.998   7.870 -2.4319 -0.0649  0.5606
  153SAPE  H12Y17032   0.956   2.143   7.902  0.5661 -0.0113 -0.8371
  153SAPE  C31317033   1.112   2.102   8.057 -0.0867 -0.8896 -0.7004
  153SAPE  H13X17034   1.123   2.207   8.093 -1.3123 -0.7864 -0.6011
  153SAPE  H13Y17035   1.217   2.065   8.061 -0.7101 -2.7205  0.3119
  153SAPE  C31417036   1.020   2.014   8.148  0.0156  0.1634  1.0826
  153SAPE  H14X17037   1.039   1.910   8.112  2.5969  0.6570  0.8381
  153SAPE  H14Y17038   0.916   2.043   8.119  0.0388  0.3755  1.2105
  153SAPE  C31517039   1.043   2.023   8.289 -0.6187  0.3808 -0.9934
  153SAPE  H15X17040   1.040   2.131   8.316  0.4758 -0.0729  1.2621
  153SAPE  H15Y17041   1.141   1.979   8.320 -0.5633  1.6835  0.9156
  153SAPE  C31617042   0.946   1.956   8.376  0.3050  0.0484 -0.0875
  153SAPE  H16X17043   0.951   1.845   8.378 -1.4936 -0.0582  1.3231
  153SAPE  H16Y17044   0.847   1.990   8.339  0.1928 -0.9282 -0.7254
  153SAPE  C31717045   0.948   2.011   8.512  0.3664  0.3178  0.3143
  153SAPE  H17X17046   0.845   1.994   8.550  0.4029  0.5600  0.5179
  153SAPE  H17Y17047   0.957   2.122   8.504  1.6163  0.1072 -2.0725
  153SAPE  C31817048   1.056   1.953   8.598  0.5620 -0.2823 -0.3388
  153SAPE  H18X17049   1.146   2.012   8.572  0.4212 -0.1400 -0.5038
  153SAPE  H18Y17050   1.073   1.847   8.568  3.2120 -0.4288  1.3316
  153SAPE  H18Z17051   1.032   1.962   8.706 -0.2762 -0.2505 -0.5194
  154SAPE     N17052   5.429   0.111   6.159 -0.5550 -0.0577 -0.1220
  154SAPE   HN117053   5.477   0.027   6.197  0.7993 -0.0557 -1.6811
  154SAPE   HN217054   5.476   0.191   6.207  2.4523 -2.5362  1.4795
  154SAPE   HN317055   5.327   0.114   6.176 -0.8371  1.0390 -1.7739
  154SAPE   C1217056   5.455   0.125   6.014  0.3996 -0.4493  0.1865
  154SAPE  H12A17057   5.437   0.024   5.971  2.8839 -0.4628 -0.9869
  154SAPE  H12B17058   5.559   0.159   5.998 -0.6033  2.5200 -0.6861
  154SAPE   C1117059   5.353   0.227   5.945  0.1604 -0.0634  0.3871
  154SAPE  H11A17060   5.251   0.181   5.950 -0.8758  2.1161  0.5702
  154SAPE  H11B17061   5.382   0.228   5.838 -2.3251 -0.4562 -0.3671
  154SAPE     P17062   5.249   0.415   6.090 -0.6951  0.1103  0.3713
  154SAPE   O1317063   5.160   0.487   5.999 -0.0944  0.2226 -0.2104
  154SAPE   O1417064   5.182   0.302   6.157  0.1803 -0.0528 -0.2862
  154SAPE   O1217065   5.371   0.348   6.009  0.0587 -0.6477 -0.3481
  154SAPE   O1117066   5.324   0.508   6.195  0.0498  0.2529  0.0139
  154SAPE    C117067   5.443   0.584   6.162  0.0801 -0.2359 -0.4790
  154SAPE    HA17068   5.527   0.514   6.144  0.0006 -1.0556  1.9695
  154SAPE    HB17069   5.431   0.638   6.066  0.9735 -0.7165 -0.8700
  154SAPE    C217070   5.468   0.699   6.259 -0.2609  0.1510 -0.5908
  154SAPE    HS17071   5.567   0.744   6.238 -0.0481  0.2379  0.5633
  154SAPE   O2117072   5.456   0.649   6.397  0.5301 -0.1526  0.2277
  154SAPE   C2117073   5.565   0.606   6.446 -0.2250 -0.0669 -0.1475
  154SAPE   O2217074   5.666   0.577   6.387 -0.5808  0.1830  0.4957
  154SAPE   C2217075   5.546   0.577   6.595  0.2807 -0.1739 -0.0434
  154SAPE   H2R17076   5.518   0.673   6.644 -1.0624 -0.2568 -0.5859
  154SAPE   H2S17077   5.460   0.507   6.601  0.7179 -0.8689 -1.4069
  154SAPE    C317078   5.362   0.813   6.226 -0.5588  0.3459  0.3646
  154SAPE    HX17079   5.327   0.800   6.121 -1.6893 -1.7473  0.9559
  154SAPE    HY17080   5.420   0.908   6.234  0.7783 -0.4482  0.4413
  154SAPE   O3117081   5.249   0.809   6.311  0.4338  0.1577 -0.8654
  154SAPE   C3117082   5.252   0.873   6.435 -0.0776 -0.2225 -0.0884
  154SAPE   O3217083   5.336   0.950   6.471 -0.0021 -0.6017 -0.5612
  154SAPE   C3217084   5.126   0.829   6.513 -0.0782 -0.3579  0.1760
  154SAPE   H2X17085   5.115   0.719   6.503  0.3704 -0.6057  2.0997
  154SAPE   H2Y17086   5.031   0.877   6.479  1.0400  0.3227 -2.2681
  154SAPE   C2317087   5.669   0.515   6.657  0.0668 -0.1424 -0.0680
  154SAPE   H3R17088   5.755   0.566   6.610 -1.8917  3.2393 -0.3347
  154SAPE   H3S17089   5.670   0.404   6.649  1.8112 -0.3980  2.5520
  154SAPE   C2417090   5.668   0.545   6.810  0.2794 -0.0789 -0.3783
  154SAPE   H4R17091   5.678   0.656   6.819  1.3685 -0.0450 -1.7808
  154SAPE   H4S17092   5.764   0.500   6.841  0.3457  0.2588 -0.0845
  154SAPE   C2517093   5.547   0.494   6.880  0.2671 -0.5874  0.2568
  154SAPE   H5R17094   5.451   0.524   6.835  1.0624 -0.1437 -1.1919
  154SAPE   C2617095   5.537   0.403   6.980 -0.9041  0.0349  0.0637
  154SAPE   H6R17096   5.438   0.380   7.022 -0.8183  2.2011  1.5894
  154SAPE   C2717097   5.649   0.346   7.060 -0.3643 -1.0661 -0.1680
  154SAPE   H7R17098   5.614   0.349   7.165  1.3567 -0.7159  0.4234
  154SAPE   H7S17099   5.742   0.404   7.046  0.5309 -2.5026 -0.3349
  154SAPE   C2817100   5.701   0.203   7.026 -0.3308 -0.1372 -0.1161
  154SAPE   H8R17101   5.727   0.207   6.919 -1.0477  1.2685 -0.2641
  154SAPE   C2917102   5.716   0.101   7.108 -0.4553  0.2139 -0.3124
  154SAPE   H9R17103   5.744   0.004   7.064 -1.5423 -1.2093  1.9600
  154SAPE  C21017104   5.677   0.099   7.246 -0.3144  0.3827 -0.4839
  154SAPE  H10R17105   5.667  -0.006   7.280  0.5017 -0.4833 -2.6768
  154SAPE  H10S17106   5.570   0.129   7.242 -0.4345  0.1433  0.7862
  154SAPE  C21117107   5.765   0.179   7.348 -0.2507 -0.2213  0.0584
  154SAPE  H11R17108   5.836   0.255   7.310  0.8731 -0.5815  1.3761
  154SAPE  C21217109   5.771   0.155   7.478 -0.3728  0.0985 -0.0372
  154SAPE  H12R17110   5.826   0.216   7.551 -1.0192 -0.5075  0.9804
  154SAPE  C21317111   5.693   0.049   7.549 -0.1718 -0.3912  0.4489
  154SAPE  H13R17112   5.750   0.001   7.632 -0.7523 -2.6820 -0.4210
  154SAPE  H13S17113   5.655  -0.034   7.486  0.1957  0.5746 -1.1085
  154SAPE  C21417114   5.575   0.112   7.624  0.9517 -0.2206  0.2986
  154SAPE  H14R17115   5.505   0.166   7.558  1.9070  1.7893  0.8310
  154SAPE  C21517116   5.563   0.122   7.756 -0.1822 -0.0716  1.1348
  154SAPE  H15R17117   5.473   0.174   7.790  0.4227  2.3096 -0.6462
  154SAPE  C21617118   5.671   0.101   7.862  0.7915  0.0641  0.0785
  154SAPE  H16R17119   5.724   0.197   7.879 -0.2528  0.5849  0.5426
  154SAPE  H16S17120   5.749   0.030   7.828 -0.0884 -2.0380  2.1903
  154SAPE  C21717121   5.624   0.055   8.002 -0.1533  0.0005 -0.7751
  154SAPE  H17R17122   5.549   0.120   8.053 -1.0604 -1.1875 -0.5394
  154SAPE  H17S17123   5.712   0.048   8.069 -0.7290 -1.1250 -0.1044
  154SAPE  C21817124   5.570  -0.086   7.989  0.6524  0.2116  0.8702
  154SAPE  H18R17125   5.643  -0.146   7.930  0.0197  1.9080 -1.8214
  154SAPE  H18S17126   5.474  -0.082   7.933  1.2060 -1.1490 -0.2532
  154SAPE  C21917127   5.557  -0.156   8.129  0.3880 -0.5215  0.5080
  154SAPE  H19R17128   5.658  -0.157   8.174  1.9430 -1.5207 -2.6970
  154SAPE  H19S17129   5.534  -0.259   8.095 -0.4380 -0.1460 -0.1101
  154SAPE  C22017130   5.454  -0.093   8.223  0.9378  0.3596 -0.1852
  154SAPE  H20R17131   5.347  -0.106   8.194  0.7013  0.6507  0.5300
  154SAPE  H20S17132   5.467   0.018   8.230 -2.4473  0.9404 -1.1271
  154SAPE  H20T17133   5.462  -0.130   8.328 -1.7483  0.5501  0.1715
  154SAPE   C3317134   5.142   0.866   6.662 -0.4735 -0.4051  0.1412
  154SAPE   H3X17135   5.044   0.879   6.713 -0.5107  0.5190 -0.1515
  154SAPE   H3Y17136   5.199   0.959   6.685  1.7947 -1.5184 -0.6214
  154SAPE   C3417137   5.232   0.763   6.734  0.0548  0.0099 -0.6053
  154SAPE   H4X17138   5.309   0.813   6.796  2.4350 -1.8367 -1.8831
  154SAPE   H4Y17139   5.304   0.710   6.668 -1.2661 -0.7337 -1.5002
  154SAPE   C3517140   5.157   0.658   6.816 -0.1807  0.1394 -0.4882
  154SAPE   H5X17141   5.234   0.593   6.863 -2.2320 -2.6730 -0.7125
  154SAPE   H5Y17142   5.087   0.597   6.755 -0.3831  1.3907 -1.5559
  154SAPE   C3617143   5.078   0.720   6.925 -0.0737 -0.2610  0.3356
  154SAPE   H6X17144   4.988   0.780   6.902 -2.0512 -3.4165 -0.9030
  154SAPE   H6Y17145   5.140   0.795   6.979  0.3046  0.5748 -1.2141
  154SAPE   C3717146   5.036   0.609   7.020 -0.4231  0.0990 -1.0584
  154SAPE   H7X17147   5.130   0.575   7.068 -0.2112 -0.1607 -1.6449
  154SAPE   H7Y17148   4.999   0.523   6.959  0.0554 -2.3805  1.8756
  154SAPE   C3817149   4.933   0.653   7.126 -0.1880 -0.2128 -0.2246
  154SAPE   H8X17150   4.852   0.705   7.071  0.8936  0.2773 -1.3875
  154SAPE   H8Y17151   4.967   0.735   7.193 -2.3444  0.5506  0.0125
  154SAPE   C3917152   4.880   0.531   7.190 -0.2920 -0.0602  0.6328
  154SAPE   H9X17153   4.968   0.466   7.211  1.2385  1.4666 -0.8263
  154SAPE   H9Y17154   4.825   0.462   7.121 -1.4930 -0.3293  1.8216
  154SAPE  C31017155   4.804   0.545   7.317  0.4644  0.1623 -0.0164
  154SAPE  H10X17156   4.723   0.621   7.308  0.1135 -0.3177 -1.1622
  154SAPE  H10Y17157   4.869   0.601   7.388  0.3915 -2.8808  2.6563
  154SAPE  C31117158   4.775   0.414   7.391  0.3170  0.0982  0.0627
  154SAPE  H11X17159   4.870   0.372   7.432  0.2159  1.0934  1.3960
  154SAPE  H11Y17160   4.724   0.358   7.310  2.5387  2.9397 -3.5812
  154SAPE  C31217161   4.700   0.437   7.525 -0.4420 -0.3308  0.4138
  154SAPE  H12X17162   4.626   0.515   7.500  0.2534  0.5573  1.0778
  154SAPE  H12Y17163   4.758   0.476   7.611  0.0250  2.2806 -0.9735
  154SAPE  C31317164   4.635   0.305   7.574  0.3347  0.1773  0.6780
  154SAPE  H13X17165   4.717   0.238   7.608 -0.9082 -1.2840  0.8953
  154SAPE  H13Y17166   4.581   0.254   7.492  3.8414 -0.2691 -1.5394
  154SAPE  C31417167   4.551   0.325   7.698  0.7010 -0.0813  0.0134
  154SAPE  H14X17168   4.486   0.237   7.719  1.1250 -0.1885  0.8943
  154SAPE  H14Y17169   4.479   0.408   7.681 -1.2275 -1.5528  0.5320
  154SAPE  C31517170   4.621   0.347   7.836  0.5298 -0.0616  0.2643
  154SAPE  H15X17171   4.549   0.376   7.915 -0.0558  1.0231 -0.6417
  154SAPE  H15Y17172   4.702   0.423   7.834 -0.8641  1.4832  0.7660
  154SAPE  C31617173   4.683   0.217   7.894 -0.3805 -0.2670  0.6545
  154SAPE  H16X17174   4.750   0.168   7.820 -1.6371 -1.1735  0.0899
  154SAPE  H16Y17175   4.608   0.143   7.931 -1.6484 -0.0710 -1.3868
  154SAPE  C31717176   4.772   0.245   8.021  0.9880 -0.3754  0.6170
  154SAPE  H17X17177   4.815   0.347   8.017  1.8170 -0.7412 -1.1950
  154SAPE  H17Y17178   4.863   0.181   8.016  0.6689 -0.8080  0.2380
  154SAPE  C31817179   4.703   0.217   8.153  0.1400 -0.3003 -0.6361
  154SAPE  H18X17180   4.601   0.259   8.140 -0.3365 -1.1560  0.2258
  154SAPE  H18Y17181   4.754   0.271   8.235 -0.8441  0.4955 -0.5363
  154SAPE  H18Z17182   4.701   0.106   8.161  0.4349 -0.2488  0.2686
  155SAPE     N17183   0.572   2.660   6.351 -0.1330 -0.1385 -0.7626
  155SAPE   HN117184   0.494   2.722   6.380  0.3475 -0.1656  0.6367
  155SAPE   HN217185   0.566   2.563   6.389  0.4039  0.2487  0.3399
  155SAPE   HN317186   0.665   2.700   6.373 -0.8039  2.9286 -2.8626
  155SAPE   C1217187   0.575   2.632   6.201  0.2232 -0.1797  0.0167
  155SAPE  H12A17188   0.584   2.726   6.142 -0.5030  0.9111  1.5583
  155SAPE  H12B17189   0.474   2.588   6.187 -0.4642  0.8810  1.3532
  155SAPE   C1117190   0.692   2.533   6.191  0.5703  0.0130  0.1790
  155SAPE  H11A17191   0.789   2.577   6.226  1.0021 -0.5863 -0.2407
  155SAPE  H11B17192   0.704   2.515   6.082  0.5172  3.0032 -0.4179
  155SAPE     P17193   0.683   2.269   6.212 -0.1464  0.6215  0.4434
  155SAPE   O1317194   0.728   2.289   6.075 -0.3004  0.1789  0.3598
  155SAPE   O1417195   0.767   2.186   6.305 -0.5533  0.8688 -0.1411
  155SAPE   O1217196   0.667   2.415   6.268  0.1855  0.1535 -0.2307
  155SAPE   O1117197   0.543   2.205   6.192  0.0819 -0.2196  0.4048
  155SAPE    C117198   0.411   2.251   6.228 -0.2691 -0.2194 -0.1175
  155SAPE    HA17199   0.409   2.359   6.202  1.0841  0.1809  1.2680
  155SAPE    HB17200   0.340   2.190   6.168 -0.0730 -0.7295  0.1570
  155SAPE    C217201   0.383   2.222   6.374  0.1978 -0.1981 -0.0229
  155SAPE    HS17202   0.450   2.292   6.428 -1.6061  1.4757  0.1687
  155SAPE   O2117203   0.400   2.081   6.399 -0.4774 -0.0856 -0.3384
  155SAPE   C2117204   0.467   2.050   6.510 -0.0545  0.0810 -0.4133
  155SAPE   O2217205   0.512   2.128   6.594  0.4168  0.3187  0.3431
  155SAPE   C2217206   0.497   1.901   6.511 -0.2720 -0.6307  0.2634
  155SAPE   H2R17207   0.527   1.868   6.410  0.2044 -0.6950  0.4193
  155SAPE   H2S17208   0.582   1.877   6.580  0.9546  0.0967 -0.9453
  155SAPE    C317209   0.237   2.264   6.414 -0.6980 -0.5292  0.1665
  155SAPE    HX17210   0.170   2.228   6.333  1.8355 -1.6774 -1.5259
  155SAPE    HY17211   0.231   2.375   6.405  3.8114 -0.1113 -0.0014
  155SAPE   O3117212   0.208   2.218   6.546 -0.6687 -0.4521  0.0379
  155SAPE   C3117213   0.251   2.293   6.641 -0.5994  0.3052  0.1654
  155SAPE   O3217214   0.323   2.392   6.634  0.2208 -0.0066  0.1477
  155SAPE   C3217215   0.202   2.240   6.780 -0.1641 -0.0576  0.3357
  155SAPE   H2X17216   0.202   2.129   6.774  0.3788 -0.0640  0.4285
  155SAPE   H2Y17217   0.099   2.272   6.804  0.3863  0.8380  1.5604
  155SAPE   C2317218   0.377   1.825   6.565  0.0968  0.2966 -0.1324
  155SAPE   H3R17219   0.416   1.721   6.563  1.9056  0.8430  2.0904
  155SAPE   H3S17220   0.299   1.837   6.488 -0.0664 -0.6735 -0.1227
  155SAPE   C2417221   0.335   1.838   6.718  1.1166 -0.0736 -0.0098
  155SAPE   H4R17222   0.278   1.933   6.724 -0.0404 -0.7825  0.6423
  155SAPE   H4S17223   0.427   1.841   6.781  1.0823  0.0731  0.0352
  155SAPE   C2517224   0.236   1.729   6.754 -0.4797 -0.4255 -0.0330
  155SAPE   H5R17225   0.209   1.656   6.677 -2.0533  1.7819 -1.6991
  155SAPE   C2617226   0.185   1.707   6.873 -0.3704 -0.0387  0.2784
  155SAPE   H6R17227   0.121   1.619   6.889 -1.3242  0.9083  2.0640
  155SAPE   C2717228   0.213   1.793   6.996  0.6312  0.4380 -0.1289
  155SAPE   H7R17229   0.120   1.854   7.007  0.3361 -0.0385  0.0700
  155SAPE   H7S17230   0.283   1.875   6.974 -2.0683  3.0004  0.1194
  155SAPE   C2817231   0.245   1.711   7.114 -0.0706  0.9172 -0.2477
  155SAPE   H8R17232   0.327   1.640   7.098  1.0133  2.0750  0.0171
  155SAPE   C2917233   0.198   1.731   7.239 -0.0258  0.1230 -0.1489
  155SAPE   H9R17234   0.236   1.661   7.315 -0.9276 -2.4632 -1.9233
  155SAPE  C21017235   0.094   1.832   7.281 -0.6820  0.1625  0.2493
  155SAPE  H10R17236   0.012   1.833   7.206 -0.9930 -0.4566  0.5754
  155SAPE  H10S17237   0.113   1.940   7.301  0.5033 -0.2842  1.7546
  155SAPE  C21117238   0.025   1.774   7.400  0.0088  0.3890 -0.1436
  155SAPE  H11R17239  -0.072   1.725   7.384 -0.4458  0.3028  2.3874
  155SAPE  C21217240   0.074   1.768   7.523  0.1328 -0.0425 -0.0514
  155SAPE  H12R17241   0.005   1.728   7.599 -1.1891 -3.8579 -2.9359
  155SAPE  C21317242   0.209   1.823   7.562  0.1937 -0.5981 -0.2677
  155SAPE  H13R17243   0.243   1.887   7.478  2.0185 -1.4534 -0.2274
  155SAPE  H13S17244   0.287   1.744   7.558  0.1300 -0.8305  1.8561
  155SAPE  C21417245   0.211   1.900   7.695 -0.9151 -0.0206  0.4511
  155SAPE  H14R17246   0.224   2.007   7.673  0.2825 -0.3429 -0.5063
  155SAPE  C21517247   0.199   1.845   7.809  0.1916 -1.2375  0.1226
  155SAPE  H15R17248   0.202   1.911   7.896  0.7374 -1.1219  0.0208
  155SAPE  C21617249   0.201   1.700   7.841 -0.2636 -0.5695  0.3712
  155SAPE  H16R17250   0.230   1.644   7.750 -0.9094  0.4762 -0.5007
  155SAPE  H16S17251   0.100   1.661   7.868  0.6897 -1.9982  2.1036
  155SAPE  C21717252   0.308   1.655   7.947  0.2585  0.7385  0.2297
  155SAPE  H17R17253   0.404   1.699   7.913  0.4350  1.6416  1.8194
  155SAPE  H17S17254   0.329   1.548   7.924  0.6443  0.1626  2.9409
  155SAPE  C21817255   0.262   1.677   8.087 -1.0031  0.1926 -0.3107
  155SAPE  H18R17256   0.154   1.661   8.108 -0.1617 -1.9091  3.5051
  155SAPE  H18S17257   0.274   1.784   8.115  2.8973 -0.1513 -0.0399
  155SAPE  C21917258   0.344   1.597   8.196 -0.0792  0.2816  0.4017
  155SAPE  H19R17259   0.439   1.654   8.198 -0.7733  1.5010 -0.0922
  155SAPE  H19S17260   0.365   1.498   8.151  0.1600 -0.4196  1.9677
  155SAPE  C22017261   0.271   1.598   8.331 -0.3168 -0.5746 -0.0670
  155SAPE  H20R17262   0.323   1.534   8.406 -0.8000 -0.6404  0.2150
  155SAPE  H20S17263   0.164   1.569   8.321  0.2963 -2.2655 -2.4991
  155SAPE  H20T17264   0.282   1.702   8.370  0.2959 -1.0467  1.0687
  155SAPE   C3317265   0.305   2.271   6.895 -0.3653  0.3424 -0.2322
  155SAPE   H3X17266   0.305   2.382   6.909  0.2760  0.1054  2.0195
  155SAPE   H3Y17267   0.410   2.257   6.863  0.0348  1.4648  0.5020
  155SAPE   C3417268   0.280   2.204   7.026 -0.5666  0.3193  0.7546
  155SAPE   H4X17269   0.272   2.093   7.021 -1.2107  0.3731  0.3976
  155SAPE   H4Y17270   0.182   2.245   7.060 -1.4818  0.3983 -1.7562
  155SAPE   C3517271   0.385   2.244   7.132  0.6093 -0.2873 -0.1393
  155SAPE   H5X17272   0.390   2.354   7.146 -1.8985 -0.0703 -0.5311
  155SAPE   H5Y17273   0.488   2.207   7.113  2.4833  2.8680  2.8468
  155SAPE   C3617274   0.355   2.176   7.275 -0.5688 -0.0307  0.6501
  155SAPE   H6X17275   0.330   2.069   7.259 -2.7493  0.5660 -0.4346
  155SAPE   H6Y17276   0.263   2.219   7.320 -0.1527 -0.9886  2.4894
  155SAPE   C3717277   0.477   2.192   7.372  0.1494  0.3330 -0.0921
  155SAPE   H7X17278   0.540   2.281   7.352  0.5831 -0.0975 -0.6805
  155SAPE   H7Y17279   0.543   2.109   7.339  0.2193 -0.3105  1.5624
  155SAPE   C3817280   0.444   2.179   7.519  1.1526  0.4358 -0.0951
  155SAPE   H8X17281   0.430   2.071   7.538  1.9361  0.6409  1.8401
  155SAPE   H8Y17282   0.357   2.239   7.553 -1.2292 -0.7019 -3.5997
  155SAPE   C3917283   0.564   2.214   7.610  0.7434 -0.1907 -0.0026
  155SAPE   H9X17284   0.595   2.317   7.581 -1.7390  0.2865 -1.3027
  155SAPE   H9Y17285   0.656   2.152   7.604 -0.7997 -2.7317  0.9681
  155SAPE  C31017286   0.530   2.234   7.762 -0.0214 -0.8222  0.7367
  155SAPE  H10X17287   0.475   2.144   7.797 -0.3191 -0.7921  0.3527
  155SAPE  H10Y17288   0.453   2.313   7.775 -0.7214 -1.6329  1.6666
  155SAPE  C31117289   0.654   2.266   7.855  0.2266 -0.1183  0.3480
  155SAPE  H11X17290   0.697   2.363   7.822 -0.6303  0.2976  0.4461
  155SAPE  H11Y17291   0.730   2.187   7.836  0.8880  0.1993  1.5335
  155SAPE  C31217292   0.611   2.276   8.012 -0.5341 -0.2068 -0.4358
  155SAPE  H12X17293   0.519   2.338   8.010 -0.2442  0.2459  0.1075
  155SAPE  H12Y17294   0.693   2.325   8.068 -0.5872  0.0177 -0.5554
  155SAPE  C31317295   0.593   2.138   8.064  0.1363  0.7725 -0.2328
  155SAPE  H13X17296   0.677   2.074   8.031 -0.6172 -0.9392  0.9830
  155SAPE  H13Y17297   0.506   2.098   8.008 -1.1583 -0.5589  2.5004
  155SAPE  C31417298   0.562   2.117   8.214 -0.3251 -0.3718  0.2944
  155SAPE  H14X17299   0.484   2.194   8.234  1.7174  2.0886 -0.7093
  155SAPE  H14Y17300   0.653   2.133   8.275  1.5191 -0.6263 -2.2322
  155SAPE  C31517301   0.499   1.975   8.235 -0.8875  0.3079  0.1283
  155SAPE  H15X17302   0.570   1.903   8.188  0.7131  0.4605  2.1504
  155SAPE  H15Y17303   0.397   1.965   8.191 -1.8460 -0.4838  2.3904
  155SAPE  C31617304   0.481   1.932   8.383 -0.0921  0.6973  0.1923
  155SAPE  H16X17305   0.572   1.960   8.439  1.6265 -4.6202  0.6274
  155SAPE  H16Y17306   0.467   1.822   8.381  0.0584  0.6695  0.6728
  155SAPE  C31717307   0.362   2.007   8.448  0.0709  0.4459 -0.2201
  155SAPE  H17X17308   0.262   1.981   8.407  0.6069 -1.2317 -0.5340
  155SAPE  H17Y17309   0.375   2.117   8.442  3.4866  0.2651  1.4971
  155SAPE  C31817310   0.349   1.966   8.591  0.5654 -0.0376 -0.1142
  155SAPE  H18X17311   0.346   1.859   8.620 -1.1114  0.5120  1.9737
  155SAPE  H18Y17312   0.254   2.010   8.629 -0.3096  1.4614 -3.6223
  155SAPE  H18Z17313   0.431   2.015   8.649  0.6500  1.1861 -1.2126
  156SAPE     N17314   4.981   1.613   6.149 -0.1327 -0.5782 -0.1114
  156SAPE   HN117315   4.885   1.589   6.117 -0.0001 -1.4332  0.0874
  156SAPE   HN217316   4.994   1.710   6.116  0.9823  0.2419  2.4707
  156SAPE   HN317317   5.046   1.548   6.098 -1.1423 -0.2226 -1.9310
  156SAPE   C1217318   5.006   1.621   6.301 -0.5048  0.1214  0.1101
  156SAPE  H12A17319   5.106   1.666   6.316  0.5032 -1.8317 -0.5134
  156SAPE  H12B17320   5.030   1.515   6.324  2.8569  0.9312  0.7969
  156SAPE   C1117321   4.888   1.675   6.377 -0.1184 -0.0379 -0.1387
  156SAPE  H11A17322   4.895   1.677   6.487  1.1210 -0.8928 -0.1807
  156SAPE  H11B17323   4.799   1.608   6.366 -0.2215  0.0277  0.2868
  156SAPE     P17324   4.870   1.935   6.408 -0.2177  0.5321  0.1402
  156SAPE   O1317325   5.016   1.949   6.440  0.8815 -0.4670  0.4213
  156SAPE   O1417326   4.809   2.041   6.330  0.2154  0.3106  0.1908
  156SAPE   O1217327   4.856   1.803   6.327 -0.1364  0.4554  0.7163
  156SAPE   O1117328   4.787   1.919   6.538  0.1513  0.1340  0.6919
  156SAPE    C117329   4.646   1.880   6.532  0.2522 -0.2535 -0.2557
  156SAPE    HA17330   4.597   1.904   6.436  0.1856 -1.2047 -0.4616
  156SAPE    HB17331   4.641   1.771   6.551  1.9763 -0.5980 -1.5347
  156SAPE    C217332   4.572   1.955   6.640  0.6751 -0.4504  0.6977
  156SAPE    HS17333   4.575   2.065   6.633 -1.5636 -0.4337 -2.0018
  156SAPE   O2117334   4.618   1.908   6.769 -0.0205 -0.0919 -0.2339
  156SAPE   C2117335   4.657   2.009   6.849 -1.8525 -0.2833  0.2450
  156SAPE   O2217336   4.650   2.126   6.828  0.4032  0.6367 -0.3897
  156SAPE   C2217337   4.730   1.962   6.973 -0.0886  0.1776 -0.6731
  156SAPE   H2R17338   4.804   1.887   6.939 -0.2267  1.3199 -3.8747
  156SAPE   H2S17339   4.775   2.050   7.025  0.4852 -0.9047  0.7135
  156SAPE    C317340   4.423   1.918   6.636  0.4271 -0.0833  0.0499
  156SAPE    HX17341   4.409   1.808   6.627  0.2558 -0.0493 -0.1128
  156SAPE    HY17342   4.357   1.957   6.555 -2.2669 -1.4141  1.4799
  156SAPE   O3117343   4.359   1.943   6.756  0.0837  0.6709  0.2689
  156SAPE   C3117344   4.317   2.070   6.778  0.4195 -0.0435 -0.1918
  156SAPE   O3217345   4.308   2.152   6.693  0.6108  0.2107  0.2625
  156SAPE   C3217346   4.271   2.096   6.927 -0.1184 -0.6234  0.6790
  156SAPE   H2X17347   4.302   2.016   6.997 -1.1360 -2.7744 -1.2133
  156SAPE   H2Y17348   4.160   2.102   6.915 -0.4318  0.3255  3.3067
  156SAPE   C2317349   4.631   1.888   7.066 -0.2325 -0.0399 -0.6574
  156SAPE   H3R17350   4.593   1.800   7.009  1.4947 -0.5945 -0.9956
  156SAPE   H3S17351   4.553   1.960   7.101 -1.6836 -1.2898 -1.1998
  156SAPE   C2417352   4.706   1.837   7.195 -0.3948 -0.7983  0.2436
  156SAPE   H4R17353   4.793   1.901   7.222  0.8343 -2.0103 -0.7134
  156SAPE   H4S17354   4.753   1.749   7.147  3.0227  1.9591 -1.9743
  156SAPE   C2517355   4.613   1.793   7.307 -0.1697 -0.1738 -0.2982
  156SAPE   H5R17356   4.559   1.699   7.287 -0.9243  0.0667  0.5148
  156SAPE   C2617357   4.602   1.859   7.425 -0.2508 -0.0827 -0.2243
  156SAPE   H6R17358   4.538   1.810   7.500  2.5231 -0.8780  1.7817
  156SAPE   C2717359   4.679   1.987   7.469  0.1825  0.1094 -0.1997
  156SAPE   H7R17360   4.678   2.059   7.385  1.5592  0.6825  0.2416
  156SAPE   H7S17361   4.788   1.967   7.472  0.3681  0.9434 -1.0742
  156SAPE   C2817362   4.625   2.049   7.592 -0.6794  0.3714  0.1518
  156SAPE   H8R17363   4.556   2.130   7.564 -0.4859  1.3018  2.2637
  156SAPE   C2917364   4.656   2.025   7.720  0.8195  0.5996  0.1756
  156SAPE   H9R17365   4.610   2.081   7.802  0.5108 -0.0552  0.4556
  156SAPE  C21017366   4.740   1.920   7.781 -0.5624  0.1906  0.2296
  156SAPE  H10R17367   4.796   1.953   7.870 -0.3425  2.3514 -0.6427
  156SAPE  H10S17368   4.819   1.895   7.707 -0.3379  1.2723  0.0901
  156SAPE  C21117369   4.652   1.805   7.810  0.3492  0.2228 -0.1748
  156SAPE  H11R17370   4.593   1.766   7.725 -2.4218  0.2355  1.6188
  156SAPE  C21217371   4.633   1.749   7.931 -0.8458  0.1745 -0.1688
  156SAPE  H12R17372   4.567   1.661   7.937 -0.0669 -0.3431  0.9915
  156SAPE  C21317373   4.707   1.776   8.065 -0.0955 -0.8326 -0.1349
  156SAPE  H13R17374   4.634   1.796   8.146 -0.5078 -2.0648 -0.1861
  156SAPE  H13S17375   4.775   1.864   8.057  0.0739 -0.9335  0.1855
  156SAPE  C21417376   4.788   1.652   8.103  0.0904 -0.0822 -0.3893
  156SAPE  H14R17377   4.820   1.598   8.013  0.9776 -3.0798  1.5794
  156SAPE  C21517378   4.828   1.593   8.218  0.4692 -0.3284 -0.1375
  156SAPE  H15R17379   4.908   1.518   8.220  1.0770  0.2793 -0.8780
  156SAPE  C21617380   4.799   1.649   8.351 -0.2679  1.0607  0.1960
  156SAPE  H16R17381   4.749   1.576   8.419 -0.8946  2.0605  0.8258
  156SAPE  H16S17382   4.724   1.731   8.347 -1.5088  0.0960  2.0006
  156SAPE  C21717383   4.926   1.687   8.424  0.4799  0.3156  0.3382
  156SAPE  H17R17384   4.963   1.781   8.379 -0.2385  0.5091  0.1278
  156SAPE  H17S17385   5.000   1.604   8.424  1.4925  1.1962 -0.8286
  156SAPE  C21817386   4.902   1.710   8.569  0.9600 -0.4808 -0.1376
  156SAPE  H18R17387   4.861   1.617   8.612 -1.7296  1.0802  0.9454
  156SAPE  H18S17388   4.822   1.787   8.583  1.4086 -0.2555  1.3105
  156SAPE  C21917389   5.021   1.771   8.645 -0.3912  1.0415 -0.6018
  156SAPE  H19R17390   5.021   1.870   8.594 -3.5243  0.1783 -2.6016
  156SAPE  H19S17391   5.123   1.726   8.639  0.1909  2.4288 -1.8450
  156SAPE  C22017392   5.008   1.788   8.801 -0.1789 -0.1367 -0.5518
  156SAPE  H20R17393   5.006   1.687   8.848  0.2457 -0.0649 -0.3719
  156SAPE  H20S17394   4.916   1.849   8.818  0.2956  1.0725 -2.0911
  156SAPE  H20T17395   5.100   1.839   8.836  1.0322 -1.7454 -1.2821
  156SAPE   C3317396   4.330   2.227   6.976 -0.2617 -0.1040  0.4314
  156SAPE   H3X17397   4.305   2.318   6.918  1.6690  0.8042  0.9160
  156SAPE   H3Y17398   4.441   2.228   6.969 -0.1906 -1.1338  1.0699
  156SAPE   C3417399   4.297   2.263   7.120 -0.2245 -0.3399 -0.2744
  156SAPE   H4X17400   4.188   2.245   7.129  0.0398 -2.0849 -0.1833
  156SAPE   H4Y17401   4.304   2.374   7.128 -1.3816 -0.2787 -0.0756
  156SAPE   C3517402   4.385   2.196   7.222  0.3497  0.7550 -0.4683
  156SAPE   H5X17403   4.488   2.235   7.235  0.4470  0.3704 -0.0522
  156SAPE   H5Y17404   4.401   2.091   7.188 -0.5407 -0.4710  2.5738
  156SAPE   C3617405   4.327   2.211   7.363  0.2847  0.0448 -0.0414
  156SAPE   H6X17406   4.380   2.135   7.424 -1.3410 -0.1823  1.1638
  156SAPE   H6Y17407   4.217   2.191   7.364 -0.1492  2.0790 -1.1178
  156SAPE   C3717408   4.349   2.346   7.427 -0.2068 -0.5864  0.3254
  156SAPE   H7X17409   4.311   2.424   7.358  0.2183 -0.4583  0.2275
  156SAPE   H7Y17410   4.460   2.355   7.432 -0.1903  0.1306 -0.9467
  156SAPE   C3817411   4.288   2.359   7.563  0.3177  0.1311  0.3174
  156SAPE   H8X17412   4.185   2.320   7.547 -0.0503  1.7685 -1.6289
  156SAPE   H8Y17413   4.258   2.462   7.589  1.3272  0.2367  1.1435
  156SAPE   C3917414   4.356   2.302   7.680  0.2634 -0.0331  0.3651
  156SAPE   H9X17415   4.460   2.337   7.692  0.1198  0.8970 -0.8604
  156SAPE   H9Y17416   4.356   2.191   7.670  0.4160  0.0192 -0.2730
  156SAPE  C31017417   4.279   2.337   7.808 -0.7464  0.5333 -0.8442
  156SAPE  H10X17418   4.185   2.277   7.808  0.0284 -0.8450  1.6279
  156SAPE  H10Y17419   4.247   2.443   7.808 -0.1819  0.7285  1.0880
  156SAPE  C31117420   4.354   2.305   7.933 -0.5056  0.6145 -0.4057
  156SAPE  H11X17421   4.290   2.339   8.017 -0.2600  0.7894 -0.2846
  156SAPE  H11Y17422   4.451   2.359   7.940 -0.6546  0.8247  0.1083
  156SAPE  C31217423   4.393   2.157   7.950 -0.1386 -0.2713  0.0287
  156SAPE  H12X17424   4.409   2.108   7.851  4.5894  0.7560  0.0638
  156SAPE  H12Y17425   4.300   2.104   7.977 -0.3297  1.1310  2.4043
  156SAPE  C31317426   4.509   2.131   8.051  0.1632 -0.0592 -0.8826
  156SAPE  H13X17427   4.595   2.196   8.022 -2.5232  3.8073 -0.9730
  156SAPE  H13Y17428   4.548   2.029   8.033  0.2922 -0.3363  0.7946
  156SAPE  C31417429   4.468   2.154   8.198 -0.5023 -0.6892  0.4419
  156SAPE  H14X17430   4.388   2.081   8.224  0.1327 -0.9825  1.7070
  156SAPE  H14Y17431   4.429   2.256   8.213  0.0285 -0.5468  0.8911
  156SAPE  C31517432   4.578   2.115   8.293 -0.2022 -0.3595 -1.1622
  156SAPE  H15X17433   4.655   2.194   8.304  1.1682 -1.4213 -2.7305
  156SAPE  H15Y17434   4.623   2.021   8.255  2.5070  0.8010 -1.0009
  156SAPE  C31617435   4.518   2.087   8.433 -0.0591 -0.3950 -0.3365
  156SAPE  H16X17436   4.429   2.020   8.423 -1.6526  1.6959 -1.0092
  156SAPE  H16Y17437   4.478   2.184   8.470  1.2175 -0.0630  0.2250
  156SAPE  C31717438   4.622   2.030   8.537  0.1721  0.9004  0.0164
  156SAPE  H17X17439   4.691   2.115   8.558  2.5628 -0.6170 -1.2247
  156SAPE  H17Y17440   4.679   1.946   8.492 -2.5448 -1.0181 -0.0307
  156SAPE  C31817441   4.541   1.976   8.652  0.2049 -0.1541 -0.1372
  156SAPE  H18X17442   4.481   1.895   8.605 -1.5119  2.5031 -2.9305
  156SAPE  H18Y17443   4.466   2.049   8.689 -3.9437 -3.0065 -2.0517
  156SAPE  H18Z17444   4.605   1.948   8.738  1.1574 -2.1913 -1.4183
  157SAPE     N17445   2.285   3.781   5.839  0.8859 -0.0492  0.6375
  157SAPE   HN117446   2.274   3.868   5.896  1.5333  0.5742 -0.1589
  157SAPE   HN217447   2.380   3.774   5.798  0.7983 -1.5090  0.6292
  157SAPE   HN317448   2.217   3.785   5.760  2.3054 -0.9274 -0.6725
  157SAPE   C1217449   2.255   3.654   5.915  0.1146  0.1967  0.3052
  157SAPE  H12A17450   2.335   3.648   5.992 -2.2045 -0.5082  2.7958
  157SAPE  H12B17451   2.259   3.566   5.848  1.6154  1.2970 -1.1195
  157SAPE   C1117452   2.115   3.671   5.981  0.0408  0.2638  1.0082
  157SAPE  H11A17453   2.040   3.708   5.908 -0.2630 -1.6027  0.2997
  157SAPE  H11B17454   2.134   3.744   6.062  0.0339  1.0706  0.2980
  157SAPE     P17455   2.049   3.497   6.175 -0.0493 -0.6114  0.3574
  157SAPE   O1317456   2.017   3.353   6.173 -0.3776 -0.5644  0.0549
  157SAPE   O1417457   2.177   3.538   6.242  0.3480 -0.0004  0.3347
  157SAPE   O1217458   2.061   3.542   6.020  0.2436  0.0844  0.1557
  157SAPE   O1117459   1.923   3.573   6.224 -0.0924 -0.3260  0.2759
  157SAPE    C117460   1.927   3.705   6.277  0.4524 -0.3459 -0.6974
  157SAPE    HA17461   1.984   3.784   6.225 -1.0266  1.8088  0.8028
  157SAPE    HB17462   1.821   3.739   6.270  1.0915  1.5195 -2.3160
  157SAPE    C217463   1.976   3.712   6.425  0.5454  0.1082 -0.3951
  157SAPE    HS17464   2.077   3.666   6.416 -0.5472 -2.4765 -0.4316
  157SAPE   O2117465   1.890   3.634   6.512 -0.7125 -0.3455  0.3493
  157SAPE   C2117466   1.943   3.545   6.585  0.9799  0.3984  1.2418
  157SAPE   O2217467   2.062   3.512   6.587 -0.3286 -0.2405 -0.2225
  157SAPE   C2217468   1.826   3.500   6.674 -0.4772  0.1234  0.8387
  157SAPE   H2R17469   1.745   3.574   6.687 -1.4692 -0.6704 -0.4707
  157SAPE   H2S17470   1.789   3.416   6.611  1.1542  0.8493 -1.2280
  157SAPE    C317471   1.984   3.857   6.463 -0.5381  0.0293  0.3316
  157SAPE    HX17472   1.882   3.897   6.445 -1.1521 -1.9335 -0.8419
  157SAPE    HY17473   2.044   3.916   6.389  0.1047 -0.9305  0.0677
  157SAPE   O3117474   2.042   3.867   6.591  0.3540 -0.2468  0.1809
  157SAPE   C3117475   2.172   3.857   6.603 -0.2172  0.1372 -0.2937
  157SAPE   O3217476   2.252   3.830   6.506  0.3558  0.0220  0.1816
  157SAPE   C3217477   2.225   3.880   6.738 -0.0425  0.5489  0.0773
  157SAPE   H2X17478   2.281   3.975   6.750  3.5237 -1.4342  0.4592
  157SAPE   H2Y17479   2.296   3.801   6.772  1.5374  1.9767  0.2217
  157SAPE   C2317480   1.874   3.461   6.809 -0.2332  0.2739 -0.7348
  157SAPE   H3R17481   1.937   3.543   6.848 -0.4828  1.6165 -2.9704
  157SAPE   H3S17482   1.935   3.369   6.796 -0.5730  0.2764 -2.6077
  157SAPE   C2417483   1.772   3.425   6.916  0.2650  0.1674 -0.1628
  157SAPE   H4R17484   1.823   3.395   7.011 -0.0465 -1.7098 -0.5667
  157SAPE   H4S17485   1.725   3.329   6.887 -0.0821  0.2317  0.1720
  157SAPE   C2517486   1.654   3.519   6.924 -0.7859  0.2618  0.2095
  157SAPE   H5R17487   1.594   3.507   6.832 -1.4254  1.6059  0.4276
  157SAPE   C2617488   1.626   3.606   7.024 -0.1448 -0.3142  0.0733
  157SAPE   H6R17489   1.548   3.680   7.005 -0.7093 -0.4153  1.7868
  157SAPE   C2717490   1.706   3.636   7.147 -0.2545  0.3146  0.1470
  157SAPE   H7R17491   1.706   3.746   7.165 -0.3633  0.1914  0.9295
  157SAPE   H7S17492   1.813   3.611   7.135 -0.1592  0.3266  0.9027
  157SAPE   C2817493   1.673   3.554   7.262 -0.4258 -0.0334  0.2462
  157SAPE   H8R17494   1.640   3.453   7.235 -2.1710  0.4140  0.6373
  157SAPE   C2917495   1.708   3.588   7.390  0.1822  0.5869  0.1859
  157SAPE   H9R17496   1.690   3.516   7.471  0.2960 -0.3651 -0.6142
  157SAPE  C21017497   1.774   3.714   7.443 -0.1091 -0.3449  0.2178
  157SAPE  H10R17498   1.839   3.759   7.364 -1.3443 -0.5115 -0.9368
  157SAPE  H10S17499   1.829   3.694   7.537  1.5242  0.6935 -0.4648
  157SAPE  C21117500   1.660   3.808   7.478  0.1216 -0.3841  0.1073
  157SAPE  H11R17501   1.593   3.845   7.398 -1.3537  1.9541  2.2575
  157SAPE  C21217502   1.613   3.826   7.602  0.2820  0.3427 -0.7973
  157SAPE  H12R17503   1.527   3.894   7.612  0.9907  0.8361  3.4199
  157SAPE  C21317504   1.661   3.771   7.731  0.5387 -0.2768  0.5621
  157SAPE  H13R17505   1.697   3.667   7.716  1.6564  0.5746 -3.8139
  157SAPE  H13S17506   1.579   3.750   7.804  0.1615  2.9103  1.2036
  157SAPE  C21417507   1.777   3.852   7.796 -0.7873  1.0012 -0.1112
  157SAPE  H14R17508   1.862   3.873   7.730 -0.8510 -0.5672 -0.7398
  157SAPE  C21517509   1.784   3.886   7.925  0.2937  0.0096 -0.0739
  157SAPE  H15R17510   1.870   3.947   7.955  0.8253 -0.7297 -0.0772
  157SAPE  C21617511   1.680   3.874   8.034  0.2371  1.0133  0.1856
  157SAPE  H16R17512   1.581   3.887   7.985 -0.3152  0.9942  1.2756
  157SAPE  H16S17513   1.695   3.959   8.104  0.6939  0.8028  0.3487
  157SAPE  C21717514   1.670   3.741   8.105 -0.1145  0.0456  0.0807
  157SAPE  H17R17515   1.736   3.748   8.194  1.3589 -0.4879 -0.9424
  157SAPE  H17S17516   1.686   3.651   8.042 -0.4182  0.4033 -0.5120
  157SAPE  C21817517   1.527   3.731   8.152  0.1294  0.1580  0.6960
  157SAPE  H18R17518   1.456   3.718   8.068  0.1532  1.7108  0.4016
  157SAPE  H18S17519   1.496   3.828   8.197 -3.1888 -0.7563  0.6388
  157SAPE  C21917520   1.498   3.638   8.270 -0.0884  0.0607 -0.4599
  157SAPE  H19R17521   1.407   3.675   8.323  0.5367  0.2176  0.5308
  157SAPE  H19S17522   1.580   3.624   8.344 -0.4604 -2.0551 -0.3692
  157SAPE  C22017523   1.479   3.499   8.206  0.5256  0.1004 -0.7045
  157SAPE  H20R17524   1.413   3.505   8.117  1.6506  2.5320 -1.4501
  157SAPE  H20S17525   1.458   3.423   8.284  2.1369  0.4603  0.1223
  157SAPE  H20T17526   1.576   3.465   8.161  0.8531  2.8774 -2.2920
  157SAPE   C3317527   2.114   3.879   6.840 -0.4917 -0.1387 -0.2224
  157SAPE   H3X17528   2.071   3.778   6.830 -1.7468  0.5170 -2.0659
  157SAPE   H3Y17529   2.027   3.946   6.823 -0.1102  0.2689 -0.6143
  157SAPE   C3417530   2.170   3.902   6.982 -0.6851  0.6202 -0.1375
  157SAPE   H4X17531   2.253   3.975   6.971 -0.1495 -0.3234 -3.5423
  157SAPE   H4Y17532   2.226   3.812   7.016 -1.4698 -0.0904 -0.6951
  157SAPE   C3517533   2.076   3.968   7.078  0.3736  0.5461 -0.5508
  157SAPE   H5X17534   1.998   3.895   7.111  1.1775 -1.0940 -2.1352
  157SAPE   H5Y17535   2.031   4.055   7.026 -2.8489 -1.1815 -0.9569
  157SAPE   C3617536   2.154   4.011   7.207 -0.1201  0.1162 -0.0228
  157SAPE   H6X17537   2.224   4.089   7.171 -2.9933  1.2876 -3.6413
  157SAPE   H6Y17538   2.224   3.930   7.237 -0.0778  0.5163  0.9937
  157SAPE   C3717539   2.069   4.058   7.326  0.1160 -0.4259  0.4377
  157SAPE   H7X17540   1.989   3.986   7.351 -0.3928 -1.0125 -2.5387
  157SAPE   H7Y17541   2.020   4.147   7.282  1.7854  1.0775  1.4701
  157SAPE   C3817542   2.151   4.098   7.447  0.0659 -0.4569  0.4263
  157SAPE   H8X17543   2.215   4.180   7.409 -0.4236 -0.2257  0.0820
  157SAPE   H8Y17544   2.217   4.014   7.479  1.2153  0.5358  0.7202
  157SAPE   C3917545   2.066   4.131   7.574 -0.0004  0.1854 -0.1106
  157SAPE   H9X17546   2.012   4.044   7.617  1.7151 -0.1782  1.4827
  157SAPE   H9Y17547   1.996   4.209   7.537 -1.0268 -1.3822 -1.5678
  157SAPE  C31017548   2.149   4.166   7.701  0.3064  0.2112  0.1447
  157SAPE  H10X17549   2.212   4.252   7.670  2.1851 -0.5018  1.7830
  157SAPE  H10Y17550   2.225   4.087   7.719  0.2793  0.5864  2.1324
  157SAPE  C31117551   2.063   4.206   7.814  0.4091 -0.6136  0.9747
  157SAPE  H11X17552   1.997   4.123   7.849 -2.4355  0.4460 -1.4316
  157SAPE  H11Y17553   1.996   4.293   7.796 -3.1088 -3.1566  0.6556
  157SAPE  C31217554   2.132   4.243   7.943 -0.6741  0.2034 -0.1751
  157SAPE  H12X17555   2.171   4.346   7.929  1.2892 -0.5990 -1.0194
  157SAPE  H12Y17556   2.213   4.171   7.966 -0.1533  0.8635  0.0684
  157SAPE  C31317557   2.034   4.239   8.060  0.1888  0.6094 -0.2798
  157SAPE  H13X17558   1.967   4.151   8.063  2.8570 -1.5056  1.5222
  157SAPE  H13Y17559   1.960   4.322   8.054 -0.8292  0.3421  4.4329
  157SAPE  C31417560   2.103   4.248   8.198 -0.1369 -0.0907  0.1927
  157SAPE  H14X17561   2.147   4.349   8.211 -0.2070  0.1456 -1.2321
  157SAPE  H14Y17562   2.177   4.168   8.221  2.3068  2.1049  0.3762
  157SAPE  C31517563   2.005   4.242   8.319  0.2186 -0.5352 -0.0011
  157SAPE  H15X17564   2.085   4.258   8.395  1.9998  0.1818 -1.9282
  157SAPE  H15Y17565   1.958   4.143   8.338 -1.7927  0.4812  0.5644
  157SAPE  C31617566   1.896   4.352   8.319 -0.3816 -0.8219 -0.7155
  157SAPE  H16X17567   1.844   4.345   8.221  0.7820  0.7059 -1.4985
  157SAPE  H16Y17568   1.952   4.448   8.322 -0.6854 -0.6551 -0.4291
  157SAPE  C31717569   1.799   4.339   8.434  0.2428 -0.0126  0.6822
  157SAPE  H17X17570   1.729   4.257   8.404  0.5638  0.0703 -0.3444
  157SAPE  H17Y17571   1.750   4.438   8.425  1.2178  0.3018 -2.7110
  157SAPE  C31817572   1.853   4.306   8.565 -0.5908  0.9201 -0.0516
  157SAPE  H18X17573   1.942   4.370   8.583 -0.0388 -0.1798  1.3117
  157SAPE  H18Y17574   1.868   4.196   8.569  2.3672  1.2869  2.3285
  157SAPE  H18Z17575   1.780   4.328   8.646  1.5386 -1.3346  2.7149
  158SAPE     N17576   3.371   1.756   6.199  0.0054 -0.0187 -0.0284
  158SAPE   HN117577   3.409   1.683   6.262 -1.1425 -0.2461  0.4280
  158SAPE   HN217578   3.294   1.802   6.252  0.3686 -0.0334  0.5132
  158SAPE   HN317579   3.322   1.701   6.125 -2.3208  2.4190 -0.4491
  158SAPE   C1217580   3.461   1.847   6.126  0.1300  0.3926  0.0549
  158SAPE  H12A17581   3.495   1.922   6.200  1.6448 -0.3792  0.1745
  158SAPE  H12B17582   3.396   1.887   6.045  0.8311  0.3557 -0.5366
  158SAPE   C1117583   3.575   1.760   6.069 -0.4564 -0.1355 -0.6333
  158SAPE  H11A17584   3.645   1.826   6.013 -0.0003 -0.7278 -0.7766
  158SAPE  H11B17585   3.523   1.686   6.005 -1.6388 -1.1912  1.4490
  158SAPE     P17586   3.798   1.695   6.194  0.4723 -0.2218  0.1063
  158SAPE   O1317587   3.849   1.660   6.062 -0.7655  0.3921 -0.1582
  158SAPE   O1417588   3.842   1.825   6.247 -0.6812  0.5426 -0.0278
  158SAPE   O1217589   3.639   1.702   6.187  0.1573  0.1824  0.0042
  158SAPE   O1117590   3.834   1.583   6.295  0.2022 -0.4976  0.2560
  158SAPE    C117591   3.759   1.559   6.418  0.2664  1.0779  0.4284
  158SAPE    HA17592   3.648   1.568   6.413  0.1774 -0.4612 -1.9035
  158SAPE    HB17593   3.783   1.453   6.440  0.8506  0.9120 -0.8841
  158SAPE    C217594   3.807   1.630   6.547  0.4652  0.5165 -0.3919
  158SAPE    HS17595   3.796   1.738   6.521  0.9313 -0.0153 -3.1117
  158SAPE   O2117596   3.945   1.613   6.559  0.3872 -0.8198  0.3761
  158SAPE   C2117597   4.009   1.694   6.638  0.4941  0.4464  0.0362
  158SAPE   O2217598   3.971   1.805   6.681 -0.6880 -0.4338  0.4177
  158SAPE   C2217599   4.145   1.634   6.676 -0.1063 -0.1227  0.1548
  158SAPE   H2R17600   4.132   1.524   6.665 -0.6449 -0.2303  1.6676
  158SAPE   H2S17601   4.222   1.658   6.599 -0.6128 -0.6858 -0.5392
  158SAPE    C317602   3.722   1.583   6.667  0.1844  0.1120  0.5174
  158SAPE    HX17603   3.741   1.474   6.657 -0.3482  0.1379 -1.0983
  158SAPE    HY17604   3.616   1.616   6.661 -0.2102 -0.5309  2.9897
  158SAPE   O3117605   3.773   1.614   6.799 -1.0730  0.0703  0.3217
  158SAPE   C3117606   3.753   1.728   6.855  0.6491  0.2614 -0.2382
  158SAPE   O3217607   3.685   1.821   6.811 -0.1010 -0.6019 -0.2284
  158SAPE   C3217608   3.830   1.748   6.987  0.3410  0.4278  0.0234
  158SAPE   H2X17609   3.937   1.773   6.974  0.2397  0.7040 -0.3280
  158SAPE   H2Y17610   3.817   1.656   7.047 -2.0968 -0.5074 -1.7487
  158SAPE   C2317611   4.178   1.673   6.816  0.5502 -0.4566  0.2791
  158SAPE   H3R17612   4.104   1.636   6.889 -1.4549  0.3045 -1.2894
  158SAPE   H3S17613   4.177   1.783   6.827 -0.6229 -0.2856 -1.1626
  158SAPE   C2417614   4.318   1.614   6.860  0.2967  0.0208  0.1001
  158SAPE   H4R17615   4.351   1.659   6.956 -0.5423  0.1235  0.3506
  158SAPE   H4S17616   4.400   1.648   6.793  1.4175 -0.9469  0.9431
  158SAPE   C2517617   4.319   1.464   6.873  0.6396 -0.8103  0.3133
  158SAPE   H5R17618   4.307   1.400   6.784 -2.1288  1.1263 -0.8863
  158SAPE   C2617619   4.343   1.402   6.985 -0.0698 -0.2763  0.5269
  158SAPE   H6R17620   4.321   1.294   6.984  1.9271 -0.7138  0.7638
  158SAPE   C2717621   4.366   1.455   7.130  0.7984  0.0008 -0.4139
  158SAPE   H7R17622   4.275   1.426   7.187 -0.9506  1.8200 -2.1048
  158SAPE   H7S17623   4.361   1.566   7.135  0.4406 -0.0509  0.4774
  158SAPE   C2817624   4.498   1.430   7.199 -0.2243 -0.2146  0.7043
  158SAPE   H8R17625   4.587   1.430   7.134  1.7162  0.4783  3.2031
  158SAPE   C2917626   4.527   1.411   7.327  0.1657 -1.0034  0.0756
  158SAPE   H9R17627   4.630   1.390   7.358  0.5109  1.2766  0.6808
  158SAPE  C21017628   4.422   1.412   7.437 -0.1423  0.0564 -0.0623
  158SAPE  H10R17629   4.402   1.304   7.457 -2.8674  0.8114  1.7603
  158SAPE  H10S17630   4.323   1.452   7.406 -0.2615  2.3382  2.8892
  158SAPE  C21117631   4.477   1.486   7.557  0.1506  0.2203  0.1519
  158SAPE  H11R17632   4.437   1.588   7.564  1.1358  0.6728 -0.6013
  158SAPE  C21217633   4.566   1.439   7.654  0.9380  0.6410  0.7349
  158SAPE  H12R17634   4.580   1.501   7.744  1.1240  1.0889  0.4008
  158SAPE  C21317635   4.635   1.302   7.657  0.2978 -0.3621 -0.5070
  158SAPE  H13R17636   4.740   1.319   7.691  1.3480 -1.7725 -2.7508
  158SAPE  H13S17637   4.642   1.260   7.554 -1.2077  0.2734 -0.8883
  158SAPE  C21417638   4.561   1.206   7.754 -0.2248 -0.1677 -0.7122
  158SAPE  H14R17639   4.500   1.130   7.704  0.3947 -2.0848  1.2915
  158SAPE  C21517640   4.577   1.198   7.884 -0.2672  0.4717 -0.2144
  158SAPE  H15R17641   4.528   1.120   7.943  0.3150  1.4578  1.6479
  158SAPE  C21617642   4.666   1.285   7.970  0.1550  0.3667  0.1528
  158SAPE  H16R17643   4.609   1.317   8.060  2.2982 -0.6385  1.9856
  158SAPE  H16S17644   4.708   1.378   7.928  0.9136  0.5900  1.3476
  158SAPE  C21717645   4.771   1.198   8.030 -0.3516  0.2234 -0.2529
  158SAPE  H17R17646   4.717   1.123   8.092 -2.2480  1.8014  0.1406
  158SAPE  H17S17647   4.823   1.266   8.101  1.0315 -0.8506 -0.2113
  158SAPE  C21817648   4.872   1.137   7.931 -0.1287  0.6188 -0.4775
  158SAPE  H18R17649   4.896   1.197   7.841 -0.5611  2.0787  0.3650
  158SAPE  H18S17650   4.825   1.043   7.894  3.7875 -1.2912 -1.0640
  158SAPE  C21917651   4.991   1.081   8.009 -0.4601 -0.0380 -0.9272
  158SAPE  H19R17652   5.015   0.984   7.961 -0.0474 -0.1228 -0.5531
  158SAPE  H19S17653   4.960   1.061   8.114  1.0992  0.9031 -0.2663
  158SAPE  C22017654   5.108   1.181   8.017  0.3289  0.2526 -0.4883
  158SAPE  H20R17655   5.133   1.222   7.917 -0.5527 -0.1017 -0.8715
  158SAPE  H20S17656   5.199   1.128   8.054 -0.2484 -0.6953 -0.3759
  158SAPE  H20T17657   5.083   1.255   8.095 -5.9757 -0.0205 -1.6826
  158SAPE   C3317658   3.779   1.865   7.081 -0.6438  0.0392  0.3838
  158SAPE   H3X17659   3.668   1.857   7.083 -0.7800 -0.7198 -3.4399
  158SAPE   H3Y17660   3.798   1.959   7.024 -4.1078 -0.4900 -1.9091
  158SAPE   C3417661   3.852   1.868   7.213  0.0803 -0.3307  0.8031
  158SAPE   H4X17662   3.835   1.775   7.272  0.8147 -0.1551  1.3005
  158SAPE   H4Y17663   3.798   1.953   7.259  0.8366  1.2181 -1.0279
  158SAPE   C3517664   4.004   1.900   7.204 -0.0431 -0.1360  0.1934
  158SAPE   H5X17665   4.011   1.998   7.151  0.6613  0.2521  0.9847
  158SAPE   H5Y17666   4.053   1.821   7.141  0.2105 -0.4367  0.7622
  158SAPE   C3617667   4.063   1.912   7.344 -0.4849 -0.4699  0.1297
  158SAPE   H6X17668   3.998   1.965   7.417 -0.1718  0.3927 -0.2076
  158SAPE   H6Y17669   4.148   1.979   7.319 -2.0182  2.0898  1.3295
  158SAPE   C3717670   4.107   1.773   7.401  0.5648  0.5246  0.0412
  158SAPE   H7X17671   4.025   1.701   7.382 -0.8969  1.9300  0.7744
  158SAPE   H7Y17672   4.194   1.726   7.351 -1.7353 -3.3195 -0.7439
  158SAPE   C3817673   4.126   1.778   7.558 -0.8301  0.4592  0.7128
  158SAPE   H8X17674   4.143   1.671   7.579  0.7393 -0.5115 -4.2322
  158SAPE   H8Y17675   4.031   1.805   7.610 -0.8408 -0.0969  0.9868
  158SAPE   C3917676   4.256   1.847   7.600 -0.0120 -0.6106  0.2126
  158SAPE   H9X17677   4.276   1.931   7.529  0.4743 -1.8887 -1.2396
  158SAPE   H9Y17678   4.342   1.781   7.574  0.9121  0.6728 -0.0892
  158SAPE  C31017679   4.255   1.870   7.749  0.1072 -0.5336  0.5520
  158SAPE  H10X17680   4.157   1.909   7.784 -0.6594 -2.1465  0.2656
  158SAPE  H10Y17681   4.336   1.943   7.774 -0.0250 -0.2553  0.1843
  158SAPE  C31117682   4.273   1.743   7.835 -0.1451  0.4934  0.3478
  158SAPE  H11X17683   4.372   1.695   7.819 -0.1533  0.4440  0.4428
  158SAPE  H11Y17684   4.192   1.669   7.819  0.2179 -0.1051  1.2085
  158SAPE  C31217685   4.279   1.781   7.980  0.4106 -0.3489 -1.1533
  158SAPE  H12X17686   4.185   1.834   8.006  0.5822  0.5605 -2.3235
  158SAPE  H12Y17687   4.369   1.843   8.001  0.7191 -0.4517 -2.1179
  158SAPE  C31317688   4.283   1.660   8.067  0.1232  0.6606  1.0011
  158SAPE  H13X17689   4.356   1.590   8.022  1.3020  0.0772  3.6182
  158SAPE  H13Y17690   4.183   1.612   8.057  0.9305 -1.0109  0.6599
  158SAPE  C31417691   4.317   1.690   8.207  0.0892  0.2411 -0.1447
  158SAPE  H14X17692   4.239   1.756   8.251 -1.1792 -1.7395  0.7175
  158SAPE  H14Y17693   4.416   1.740   8.213  0.9612 -1.3365 -0.7403
  158SAPE  C31517694   4.314   1.565   8.300 -0.4492  0.7494 -0.5515
  158SAPE  H15X17695   4.214   1.528   8.329  0.4569 -0.9849  0.5317
  158SAPE  H15Y17696   4.352   1.611   8.394 -0.2201  1.0651 -0.7993
  158SAPE  C31617697   4.399   1.441   8.256 -0.5666  0.2094  0.3727
  158SAPE  H16X17698   4.505   1.472   8.239 -0.1710 -0.2026  1.9490
  158SAPE  H16Y17699   4.365   1.395   8.161 -1.4264 -1.9656  1.6725
  158SAPE  C31717700   4.409   1.331   8.359 -0.1221 -0.3246  0.4735
  158SAPE  H17X17701   4.324   1.339   8.430 -0.6540  1.1720 -0.2834
  158SAPE  H17Y17702   4.503   1.341   8.417 -0.2359 -0.6301  0.7079
  158SAPE  C31817703   4.409   1.194   8.289 -0.0462 -0.6739  0.3928
  158SAPE  H18X17704   4.413   1.110   8.362  2.0864 -2.5851 -1.7553
  158SAPE  H18Y17705   4.471   1.191   8.197 -1.2631  0.1568 -0.4947
  158SAPE  H18Z17706   4.310   1.178   8.241 -0.4283  0.1656  0.8890
  159SAPE     N17707   1.628   4.554   6.071 -0.1648 -0.0263 -0.3359
  159SAPE   HN117708   1.618   4.453   6.048  1.2508 -0.9447  2.5627
  159SAPE   HN217709   1.614   4.561   6.174 -1.4012  0.7331 -0.5307
  159SAPE   HN317710   1.559   4.607   6.014 -0.2132 -0.8922 -1.0904
  159SAPE   C1217711   1.768   4.600   6.036 -1.2855  0.0113  0.2327
  159SAPE  H12A17712   1.788   4.686   6.103 -0.1093  0.6282 -0.8780
  159SAPE  H12B17713   1.767   4.624   5.927  1.5537 -1.6820 -0.2711
  159SAPE   C1117714   1.881   4.495   6.056  0.0019 -0.9432  0.4015
  159SAPE  H11A17715   1.976   4.549   6.037 -0.4078  0.3506  1.8158
  159SAPE  H11B17716   1.874   4.419   5.975  0.7423 -1.1787  0.5503
  159SAPE     P17717   1.977   4.495   6.304 -0.0495 -0.0059  0.0424
  159SAPE   O1317718   1.914   4.485   6.438 -0.3067  0.2117 -0.5455
  159SAPE   O1417719   2.099   4.411   6.289  0.2406  0.0324  0.2013
  159SAPE   O1217720   1.878   4.440   6.191  0.0315  0.3413  0.2829
  159SAPE   O1117721   2.004   4.650   6.265  0.2054 -0.2353 -0.3471
  159SAPE    C117722   2.023   4.744   6.382 -1.2087 -0.3119 -0.7320
  159SAPE    HA17723   2.008   4.848   6.348 -1.1954 -0.4140 -1.0543
  159SAPE    HB17724   1.960   4.725   6.471 -1.9982  0.4297 -1.1167
  159SAPE    C217725   2.168   4.740   6.439  0.2748 -0.6747  0.3140
  159SAPE    HS17726   2.236   4.704   6.360  0.2255 -1.0413  0.4366
  159SAPE   O2117727   2.175   4.645   6.551 -0.5986  0.4024 -0.2938
  159SAPE   C2117728   2.303   4.602   6.568 -0.2442  0.1061 -0.0313
  159SAPE   O2217729   2.404   4.631   6.503  0.3607 -0.1342  0.2712
  159SAPE   C2217730   2.318   4.495   6.684 -0.2950 -0.0158  0.0853
  159SAPE   H2R17731   2.246   4.415   6.655 -0.9287  1.6287 -3.2424
  159SAPE   H2S17732   2.418   4.449   6.668 -1.5457 -2.6404 -0.6501
  159SAPE    C317733   2.208   4.884   6.494  0.2336 -0.0424  0.5537
  159SAPE    HX17734   2.185   4.961   6.418  0.6901 -0.1728  0.2787
  159SAPE    HY17735   2.315   4.879   6.523  0.4241 -1.8151 -0.2886
  159SAPE   O3117736   2.132   4.915   6.612  0.5872  0.0297 -0.6369
  159SAPE   C3117737   2.170   5.036   6.666 -0.5900 -0.0136  0.3250
  159SAPE   O3217738   2.256   5.111   6.624 -0.1559 -0.0013  0.0648
  159SAPE   C3217739   2.101   5.061   6.803 -0.6774 -0.2396  0.5432
  159SAPE   H2X17740   2.011   4.996   6.809 -2.2505  1.5693 -1.6175
  159SAPE   H2Y17741   2.061   5.165   6.800  1.6603  0.6872 -0.4880
  159SAPE   C2317742   2.299   4.545   6.833  0.4161  0.2154  0.0228
  159SAPE   H3R17743   2.198   4.579   6.864  1.9630  2.6682  2.8281
  159SAPE   H3S17744   2.362   4.635   6.849 -1.4756  2.0760 -2.2670
  159SAPE   C2417745   2.351   4.432   6.927  0.0774 -0.9203 -0.1355
  159SAPE   H4R17746   2.402   4.461   7.022 -1.6850 -1.1231  0.9202
  159SAPE   H4S17747   2.428   4.371   6.874  1.0316 -0.5987  0.8342
  159SAPE   C2517748   2.241   4.338   6.972 -0.6326  0.0562  0.3350
  159SAPE   H5R17749   2.241   4.240   6.923  2.0341  0.3681 -0.4321
  159SAPE   C2617750   2.159   4.362   7.079 -0.0526 -0.6027  0.7855
  159SAPE   H6R17751   2.083   4.293   7.118 -1.7229  0.9576  0.4621
  159SAPE   C2717752   2.155   4.489   7.170  0.5334  0.0373  1.5283
  159SAPE   H7R17753   2.057   4.487   7.222  0.1277  1.6592  0.8741
  159SAPE   H7S17754   2.149   4.582   7.109  0.0203  0.1304  1.7214
  159SAPE   C2817755   2.267   4.499   7.272 -0.2295 -0.1218 -0.4566
  159SAPE   H8R17756   2.370   4.503   7.234 -0.7275 -0.0271 -1.8481
  159SAPE   C2917757   2.246   4.521   7.404  0.2469  0.8710 -0.7518
  159SAPE   H9R17758   2.331   4.536   7.472 -0.6403  1.0089  0.3597
  159SAPE  C21017759   2.108   4.532   7.475 -0.0426 -0.1662  0.0551
  159SAPE  H10R17760   2.111   4.465   7.563 -0.4186 -2.5230 -1.6097
  159SAPE  H10S17761   2.023   4.493   7.414  0.4798 -0.3632 -0.5631
  159SAPE  C21117762   2.087   4.673   7.507 -0.5084  0.2082  0.1656
  159SAPE  H11R17763   2.096   4.729   7.413 -2.1716  1.6938  0.8362
  159SAPE  C21217764   2.062   4.728   7.627  0.1066  0.4723  0.7011
  159SAPE  H12R17765   2.055   4.838   7.633 -3.1846  0.4275 -0.1644
  159SAPE  C21317766   2.040   4.652   7.761  0.2332 -0.1433  0.2249
  159SAPE  H13R17767   2.064   4.721   7.845 -0.1075  1.0578 -0.6341
  159SAPE  H13S17768   2.108   4.565   7.773  1.4697  0.6913 -0.3987
  159SAPE  C21417769   1.902   4.592   7.781 -0.5442  0.6994  0.1732
  159SAPE  H14R17770   1.849   4.556   7.692 -2.3234 -0.1382  1.5187
  159SAPE  C21517771   1.832   4.579   7.900 -1.0640 -0.6999 -0.0673
  159SAPE  H15R17772   1.729   4.543   7.888 -1.2062  0.2480 -2.0760
  159SAPE  C21617773   1.882   4.627   8.037  0.3546  0.0188  1.2722
  159SAPE  H16R17774   1.964   4.702   8.023 -0.5832  0.6036 -1.7513
  159SAPE  H16S17775   1.925   4.535   8.083  1.8023 -0.3922 -0.7406
  159SAPE  C21717776   1.778   4.697   8.130 -0.1182  0.1524  0.2404
  159SAPE  H17R17777   1.700   4.622   8.152  0.0105  0.4723  1.9076
  159SAPE  H17S17778   1.732   4.786   8.082 -0.1389  0.4260  0.7591
  159SAPE  C21817779   1.843   4.754   8.262  0.6969 -0.5104 -0.6074
  159SAPE  H18R17780   1.922   4.829   8.239 -1.5178  2.1245 -0.1954
  159SAPE  H18S17781   1.885   4.671   8.322 -0.9085 -1.0325 -0.1696
  159SAPE  C21917782   1.740   4.822   8.348 -0.2969 -0.2803 -0.0061
  159SAPE  H19R17783   1.688   4.889   8.276 -1.0957 -0.3120  0.5335
  159SAPE  H19S17784   1.789   4.885   8.426 -1.0272 -0.9005  0.9654
  159SAPE  C22017785   1.636   4.730   8.408  0.0201 -0.2773 -0.4842
  159SAPE  H20R17786   1.555   4.797   8.444  0.2799  1.0228 -2.1844
  159SAPE  H20S17787   1.690   4.670   8.484 -0.4288 -1.2409 -0.9056
  159SAPE  H20T17788   1.588   4.657   8.339 -2.2033 -0.4670  1.1666
  159SAPE   C3317789   2.185   5.051   6.929 -0.2464  0.4277  0.3509
  159SAPE   H3X17790   2.281   5.108   6.926 -1.1848  2.0581  0.4200
  159SAPE   H3Y17791   2.223   4.947   6.942 -2.2829 -0.7813 -2.4352
  159SAPE   C3417792   2.099   5.091   7.037 -0.3760 -0.0283 -0.4278
  159SAPE   H4X17793   2.010   5.024   7.043 -1.2281  0.5466 -3.9932
  159SAPE   H4Y17794   2.053   5.192   7.039  0.9911  0.6588  2.7459
  159SAPE   C3517795   2.180   5.084   7.170 -0.3615  0.1910  0.3964
  159SAPE   H5X17796   2.257   5.164   7.175 -2.4405  2.2550  1.2309
  159SAPE   H5Y17797   2.224   4.983   7.179  0.8298  0.6620  0.1047
  159SAPE   C3617798   2.103   5.103   7.299 -0.3685 -0.1951 -0.0707
  159SAPE   H6X17799   2.026   5.024   7.314 -0.9054 -0.0388 -1.8424
  159SAPE   H6Y17800   2.048   5.199   7.297  1.5673  0.9439 -1.1697
  159SAPE   C3717801   2.198   5.081   7.418  0.4590  0.6794 -0.0765
  159SAPE   H7X17802   2.298   5.128   7.408 -0.3421  2.0171 -3.4835
  159SAPE   H7Y17803   2.203   4.970   7.413 -1.1168  0.5472  0.6111
  159SAPE   C3817804   2.144   5.120   7.556 -0.2605  0.5360  0.1785
  159SAPE   H8X17805   2.039   5.089   7.574 -0.0309 -0.8973 -0.7563
  159SAPE   H8Y17806   2.143   5.229   7.578 -0.4153  0.1871  2.1277
  159SAPE   C3917807   2.226   5.052   7.666  0.5104  0.3268 -0.3494
  159SAPE   H9X17808   2.333   5.066   7.638  1.1379 -1.1464  1.1034
  159SAPE   H9Y17809   2.213   4.942   7.659 -0.8557 -0.0347  4.3482
  159SAPE  C31017810   2.183   5.092   7.809 -0.9655 -0.1769  0.0174
  159SAPE  H10X17811   2.203   5.200   7.823 -0.9481 -0.2437  0.5369
  159SAPE  H10Y17812   2.253   5.041   7.879 -1.1465  1.6346  1.5833
  159SAPE  C31117813   2.042   5.061   7.845  0.3585  0.3736  0.2377
  159SAPE  H11X17814   2.017   4.966   7.793 -1.0351  0.7794  0.1360
  159SAPE  H11Y17815   1.976   5.132   7.792  0.6799 -0.3011 -1.1229
  159SAPE  C31217816   2.001   5.040   7.992  0.1044  0.2650  0.2380
  159SAPE  H12X17817   2.065   4.963   8.040 -0.6661 -1.1393 -0.8811
  159SAPE  H12Y17818   1.898   4.998   7.995  0.5487 -0.8469  0.3047
  159SAPE  C31317819   1.986   5.171   8.072 -0.1458  0.0989  0.5652
  159SAPE  H13X17820   1.893   5.231   8.060  0.3131  0.5375 -1.1674
  159SAPE  H13Y17821   2.071   5.236   8.043  0.4154 -1.2147 -0.8934
  159SAPE  C31417822   1.998   5.146   8.222 -0.4545  0.0145 -0.3055
  159SAPE  H14X17823   2.097   5.100   8.241  0.1157  1.1808 -0.3101
  159SAPE  H14Y17824   1.916   5.077   8.249 -0.7985  0.0218 -1.2768
  159SAPE  C31517825   1.988   5.270   8.309 -0.2695  0.1788  0.2249
  159SAPE  H15X17826   2.009   5.235   8.412  1.3480  1.0858  0.2274
  159SAPE  H15Y17827   1.894   5.330   8.302 -0.7537 -0.1807  2.6481
  159SAPE  C31617828   2.122   5.353   8.295 -0.2348  0.1508 -1.1153
  159SAPE  H16X17829   2.110   5.431   8.217  0.3749  1.2693 -0.1293
  159SAPE  H16Y17830   2.209   5.287   8.272 -0.4359 -0.8641  0.8165
  159SAPE  C31717831   2.150   5.419   8.435 -0.6892 -0.1463  0.5284
  159SAPE  H17X17832   2.133   5.349   8.519  1.5577  0.1389  1.2870
  159SAPE  H17Y17833   2.084   5.506   8.454 -0.8586 -0.5093  1.6932
  159SAPE  C31817834   2.299   5.480   8.461  0.3933 -0.0632 -0.9659
  159SAPE  H18X17835   2.386   5.417   8.430  2.0554  1.3341  0.6076
  159SAPE  H18Y17836   2.314   5.500   8.569  0.4981  0.1107 -1.0129
  159SAPE  H18Z17837   2.323   5.581   8.422  2.3213 -0.1583 -0.1321
  160SAPE     N17838   2.991   1.711   6.225  0.4218 -0.5466 -0.3873
  160SAPE   HN117839   2.906   1.725   6.167  0.2072  3.4772  0.6279
  160SAPE   HN217840   3.022   1.806   6.251 -1.7402 -0.1656  1.1153
  160SAPE   HN317841   3.055   1.659   6.163  0.5900  2.2522 -2.7497
  160SAPE   C1217842   2.949   1.623   6.341  0.6455 -0.0837  0.1872
  160SAPE  H12A17843   2.888   1.542   6.294 -0.4780  0.6781  0.3070
  160SAPE  H12B17844   2.882   1.683   6.405  0.0528 -0.2800 -0.2406
  160SAPE   C1117845   3.068   1.563   6.415  0.3397 -0.7899  0.3345
  160SAPE  H11A17846   3.035   1.501   6.501  1.1285 -2.2373 -0.3661
  160SAPE  H11B17847   3.132   1.639   6.466  0.0759 -1.7299  2.1317
  160SAPE     P17848   3.276   1.423   6.341  0.5243 -0.2970  0.4390
  160SAPE   O1317849   3.285   1.320   6.236  0.5485 -0.0847  0.3714
  160SAPE   O1417850   3.382   1.525   6.349  0.0915  0.0779 -0.5255
  160SAPE   O1217851   3.132   1.488   6.323  0.6070  0.4795  0.2256
  160SAPE   O1117852   3.257   1.346   6.477  0.0254 -0.0050  0.0574
  160SAPE    C117853   3.294   1.204   6.496 -0.7564  0.3866 -0.5052
  160SAPE    HA17854   3.203   1.145   6.516 -0.7714  0.7114  0.4342
  160SAPE    HB17855   3.351   1.158   6.413  0.2623  0.6786  0.0081
  160SAPE    C217856   3.382   1.201   6.627 -0.9860  0.2124 -0.3329
  160SAPE    HS17857   3.419   1.096   6.636 -2.2447 -0.2437 -0.3085
  160SAPE   O2117858   3.303   1.230   6.743  0.8222 -0.5952 -0.4875
  160SAPE   C2117859   3.239   1.129   6.802  0.1738 -0.7196 -0.4137
  160SAPE   O2217860   3.252   1.013   6.772  0.7893 -0.0181  0.3472
  160SAPE   C2217861   3.143   1.196   6.905  0.5565 -0.2559  0.2987
  160SAPE   H2R17862   3.144   1.306   6.896 -1.4214 -0.1906  0.4947
  160SAPE   H2S17863   3.045   1.153   6.875 -0.4516  0.0603  2.8573
  160SAPE    C317864   3.510   1.285   6.614  0.6461 -0.5767  0.5462
  160SAPE    HX17865   3.491   1.383   6.563 -3.8441 -1.0492  0.9397
  160SAPE    HY17866   3.588   1.241   6.549  0.7034  0.5183 -0.1635
  160SAPE   O3117867   3.571   1.287   6.744  0.1143  0.4895 -0.2112
  160SAPE   C3117868   3.525   1.383   6.826 -0.2696 -0.3638 -0.1223
  160SAPE   O3217869   3.459   1.481   6.790  0.0385  0.2109  0.2870
  160SAPE   C3217870   3.569   1.361   6.972  0.3044  0.4620  0.7809
  160SAPE   H2X17871   3.680   1.354   6.976  0.3242 -0.6551 -0.7732
  160SAPE   H2Y17872   3.523   1.264   6.998 -1.3724  1.0793  0.2414
  160SAPE   C2317873   3.171   1.153   7.055  0.2429  0.2476  0.4179
  160SAPE   H3R17874   3.280   1.167   7.071  0.7395 -1.5426 -1.0758
  160SAPE   H3S17875   3.151   1.045   7.068 -0.2367  0.2390 -0.3369
  160SAPE   C2417876   3.068   1.228   7.136  0.0228  0.2357  0.5445
  160SAPE   H4R17877   3.094   1.197   7.239 -1.3514  0.7720  1.0880
  160SAPE   H4S17878   2.966   1.202   7.100  0.1921  1.1322 -0.6417
  160SAPE   C2517879   3.087   1.377   7.141  0.2246 -0.6888 -0.0718
  160SAPE   H5R17880   3.048   1.429   7.052  1.7012  0.5666 -0.0221
  160SAPE   C2617881   3.136   1.452   7.239  1.4135 -0.4923  0.1008
  160SAPE   H6R17882   3.153   1.560   7.227 -1.1352 -0.1558 -1.2540
  160SAPE   C2717883   3.178   1.395   7.373 -0.4792 -0.2600 -1.4326
  160SAPE   H7R17884   3.276   1.344   7.364 -0.2058  0.2784 -1.5265
  160SAPE   H7S17885   3.118   1.311   7.415  0.9624  0.5531  2.7813
  160SAPE   C2817886   3.190   1.498   7.479  1.0855  0.2245 -0.5026
  160SAPE   H8R17887   3.265   1.572   7.448  1.9699 -1.2242 -1.9955
  160SAPE   C2917888   3.128   1.503   7.600  0.1664  0.6247  0.0642
  160SAPE   H9R17889   3.138   1.595   7.660  1.9706  0.4149  0.1184
  160SAPE  C21017890   3.031   1.406   7.659  0.1493  0.2596 -0.0632
  160SAPE  H10R17891   3.038   1.406   7.770 -0.9943 -1.1216  0.0445
  160SAPE  H10S17892   3.047   1.306   7.613  1.1894  1.3355 -2.1476
  160SAPE  C21117893   2.893   1.447   7.619  0.3986  0.0309  0.1546
  160SAPE  H11R17894   2.874   1.425   7.513  2.3366 -1.4202  0.0665
  160SAPE  C21217895   2.793   1.507   7.692  0.2514  0.1653  0.0213
  160SAPE  H12R17896   2.700   1.534   7.640  1.3034  0.4525 -1.8372
  160SAPE  C21317897   2.799   1.545   7.835  0.0784 -0.0273 -0.1694
  160SAPE  H13R17898   2.807   1.655   7.829  1.2890  0.0437  1.9371
  160SAPE  H13S17899   2.894   1.505   7.877 -0.4720 -1.9837 -0.6457
  160SAPE  C21417900   2.686   1.517   7.931 -0.0232 -0.2986 -0.4187
  160SAPE  H14R17901   2.633   1.608   7.964  0.8068 -0.1323  0.5333
  160SAPE  C21517902   2.653   1.393   7.977  0.0241 -0.2547  0.0091
  160SAPE  H15R17903   2.561   1.382   8.035 -0.7900 -0.8933 -1.3493
  160SAPE  C21617904   2.717   1.267   7.944  0.3930  0.3237  0.1020
  160SAPE  H16R17905   2.766   1.266   7.844 -1.4867 -0.2963 -0.8531
  160SAPE  H16S17906   2.639   1.191   7.922  1.1157 -1.2489  2.4526
  160SAPE  C21717907   2.813   1.217   8.058 -0.4805  0.4649  0.4570
  160SAPE  H17R17908   2.847   1.117   8.022  2.2825  0.7050  2.1016
  160SAPE  H17S17909   2.770   1.209   8.160  1.1434  0.5072  1.1765
  160SAPE  C21817910   2.937   1.310   8.063  0.8228 -0.2150  0.0934
  160SAPE  H18R17911   2.898   1.407   8.100 -0.5633 -0.7481  0.0977
  160SAPE  H18S17912   2.969   1.322   7.957 -1.6130  1.9807 -0.5055
  160SAPE  C21917913   3.044   1.260   8.162  0.8525 -0.7393 -0.3047
  160SAPE  H19R17914   3.057   1.150   8.149 -0.4530 -1.3796  2.9379
  160SAPE  H19S17915   3.004   1.264   8.265  0.4142 -2.3760 -0.3764
  160SAPE  C22017916   3.173   1.345   8.150 -0.1137  0.1347  0.1444
  160SAPE  H20R17917   3.199   1.368   8.044 -3.4387  1.3017 -0.5476
  160SAPE  H20S17918   3.255   1.296   8.206 -1.0315 -0.5648  0.8929
  160SAPE  H20T17919   3.154   1.445   8.195 -1.6188  0.4326 -1.0615
  160SAPE   C3317920   3.516   1.476   7.057  0.1229  0.9135 -0.2150
  160SAPE   H3X17921   3.410   1.458   7.084  0.0619  0.7657 -0.5624
  160SAPE   H3Y17922   3.526   1.575   7.006 -1.0740  1.7278  1.0484
  160SAPE   C3417923   3.599   1.495   7.192 -0.0974  0.0034 -0.0587
  160SAPE   H4X17924   3.700   1.518   7.153  0.0441 -0.0698  0.2565
  160SAPE   H4Y17925   3.601   1.400   7.250 -2.2323  1.5098  2.6953
  160SAPE   C3517926   3.549   1.617   7.265  0.5239 -0.4459 -0.1308
  160SAPE   H5X17927   3.438   1.613   7.264  0.3722  2.3352  0.0425
  160SAPE   H5Y17928   3.589   1.706   7.213 -0.7837 -1.0140 -2.2389
  160SAPE   C3617929   3.596   1.622   7.417 -0.6049  0.1253 -0.4370
  160SAPE   H6X17930   3.705   1.643   7.407  0.0358 -2.0685  1.1411
  160SAPE   H6Y17931   3.571   1.524   7.462  0.0008  0.8453  1.6124
  160SAPE   C3717932   3.552   1.736   7.507  0.4826  0.1930  0.3336
  160SAPE   H7X17933   3.459   1.699   7.556 -1.5269 -1.6136 -4.2407
  160SAPE   H7Y17934   3.523   1.827   7.450 -1.6919 -0.3661  0.4724
  160SAPE   C3817935   3.650   1.781   7.616  0.2458  0.2389  0.1353
  160SAPE   H8X17936   3.616   1.883   7.645  0.9843  1.5029 -3.0691
  160SAPE   H8Y17937   3.752   1.795   7.574  0.3855 -0.8927  0.0780
  160SAPE   C3917938   3.672   1.684   7.733 -0.9587 -1.6622  0.0524
  160SAPE   H9X17939   3.727   1.596   7.694  0.2674 -0.2509 -1.5490
  160SAPE   H9Y17940   3.580   1.641   7.779 -1.7602 -0.4409 -0.3463
  160SAPE  C31017941   3.744   1.755   7.844  0.4829 -0.0724  0.2263
  160SAPE  H10X17942   3.695   1.852   7.866  1.1267 -0.1799  2.3853
  160SAPE  H10Y17943   3.849   1.771   7.815  0.0932  1.5250 -0.4096
  160SAPE  C31117944   3.753   1.667   7.969 -0.7385  0.0346  0.2581
  160SAPE  H11X17945   3.791   1.564   7.956 -2.3467 -0.6399  0.6841
  160SAPE  H11Y17946   3.651   1.637   8.002 -0.8418  0.1258  0.0267
  160SAPE  C31217947   3.824   1.744   8.088  0.4084  0.4312 -0.1442
  160SAPE  H12X17948   3.770   1.838   8.110 -0.4657 -0.0353 -0.2580
  160SAPE  H12Y17949   3.928   1.768   8.056  0.6393  0.3631  0.5346
  160SAPE  C31317950   3.826   1.654   8.212  1.1501 -0.0386 -0.1319
  160SAPE  H13X17951   3.891   1.565   8.197  1.3960 -0.5182  3.0607
  160SAPE  H13Y17952   3.730   1.603   8.235  2.5373 -2.4475  0.7290
  160SAPE  C31417953   3.865   1.758   8.324  0.2675  0.4650  0.3453
  160SAPE  H14X17954   3.779   1.827   8.340  2.1665  2.8574  0.8126
  160SAPE  H14Y17955   3.936   1.834   8.284 -0.7719  0.7778 -0.9756
  160SAPE  C31517956   3.936   1.703   8.450 -0.1013 -0.1991  0.5453
  160SAPE  H15X17957   3.969   1.786   8.517 -2.7572 -0.1410  1.9408
  160SAPE  H15Y17958   4.032   1.658   8.419  0.2812 -2.5494  4.4403
  160SAPE  C31617959   3.856   1.601   8.534 -0.3453 -0.0440  0.1745
  160SAPE  H16X17960   3.932   1.569   8.609  0.6973  0.6067 -0.5670
  160SAPE  H16Y17961   3.841   1.512   8.470  0.7334 -0.9276  1.1110
  160SAPE  C31717962   3.722   1.651   8.601  0.3283  1.0974 -0.3487
  160SAPE  H17X17963   3.679   1.554   8.635  2.8968  0.5329  1.5721
  160SAPE  H17Y17964   3.654   1.701   8.529  0.5404  0.3519 -1.0818
  160SAPE  C31817965   3.736   1.737   8.729 -0.3289 -0.4115 -0.2648
  160SAPE  H18X17966   3.637   1.767   8.770  0.5060  0.3274  1.2847
  160SAPE  H18Y17967   3.802   1.822   8.702  0.7620 -1.3835 -0.7390
  160SAPE  H18Z17968   3.792   1.684   8.809  2.3308 -0.5902 -2.1342
  161SOPE     N17969   1.479   6.552  10.424  0.0215 -0.2715 -0.8313
  161SOPE   HN117970   1.535   6.639  10.433  0.1319 -0.4210  0.0589
  161SOPE   HN217971   1.422   6.548  10.337 -0.3624 -0.7016 -0.5700
  161SOPE   HN317972   1.410   6.550  10.502  0.1912  1.0443 -0.6264
  161SOPE   C1217973   1.571   6.431  10.410  0.6020 -0.3637 -0.0484
  161SOPE  H12A17974   1.635   6.432  10.500 -1.7818  0.6053  1.7290
  161SOPE  H12B17975   1.629   6.443  10.316 -3.2764  0.2196 -2.6061
  161SOPE   C1117976   1.500   6.304  10.388  0.1049  1.0107 -0.3217
  161SOPE  H11A17977   1.571   6.219  10.382  0.0055  0.8057  1.0520
  161SOPE  H11B17978   1.451   6.313  10.289 -0.5816  1.8346  0.0804
  161SOPE     P17979   1.442   6.198  10.626  0.5394 -0.0518  0.0237
  161SOPE   O1317980   1.370   6.244  10.746  0.1189 -0.1139  0.0382
  161SOPE   O1417981   1.585   6.196  10.636 -0.2663  0.0684 -0.5622
  161SOPE   O1217982   1.399   6.272  10.493 -0.2633  0.7258  0.1451
  161SOPE   O1117983   1.391   6.051  10.599  0.1861 -0.1805 -0.3882
  161SOPE    C117984   1.258   6.024  10.546  0.7663  0.4479 -0.2864
  161SOPE    HA17985   1.254   6.049  10.437 -2.5433 -0.5637 -0.4965
  161SOPE    HB17986   1.174   6.075  10.598  0.8096  1.0532 -0.7963
  161SOPE    C217987   1.217   5.875  10.563  0.8050 -0.4193  0.2036
  161SOPE    HS17988   1.248   5.847  10.666  2.1930  0.4526  0.0521
  161SOPE   O2117989   1.291   5.804  10.458 -0.3542 -0.3508  0.6634
  161SOPE   C2117990   1.278   5.671  10.462 -0.0731 -0.1402  0.4120
  161SOPE   O2217991   1.225   5.609  10.551  0.6107 -0.1015 -0.2963
  161SOPE   C2217992   1.345   5.613  10.337 -0.9192  0.3154 -0.3105
  161SOPE   H2R17993   1.454   5.633  10.351 -0.9237  0.1086  0.0273
  161SOPE   H2S17994   1.311   5.687  10.261  1.6482  2.2176  0.2314
  161SOPE    C317995   1.055   5.855  10.553  0.1221 -0.3376 -0.0797
  161SOPE    HX17996   1.022   5.927  10.630  1.9271  0.2756  0.1706
  161SOPE    HY17997   1.029   5.753  10.588 -1.6517  0.7518  1.9686
  161SOPE   O3117998   1.000   5.898  10.428 -0.0763 -0.2304  0.2781
  161SOPE   C3117999   0.997   5.801  10.339  0.5624 -0.4221 -0.3437
  161SOPE   O3218000   1.023   5.684  10.352 -0.5335  0.3628 -0.2664
  161SOPE   C3218001   0.973   5.852  10.198 -0.4278  0.4158  0.3069
  161SOPE   H2X18002   0.864   5.845  10.183 -0.3536  1.5693 -0.9300
  161SOPE   H2Y18003   1.025   5.770  10.143 -1.5529 -0.9236  1.1538
  161SOPE   C2318004   1.333   5.464  10.309 -0.0031 -0.2478  0.7517
  161SOPE   H3R18005   1.229   5.440  10.340 -0.6416  4.0050  2.5958
  161SOPE   H3S18006   1.404   5.407  10.373  0.3405  0.6053  1.1380
  161SOPE   C2418007   1.349   5.436  10.163  0.1838  0.1224 -0.0074
  161SOPE   H4R18008   1.449   5.478  10.138 -0.5379  0.9650 -1.6402
  161SOPE   H4S18009   1.353   5.325  10.154 -0.9646  0.0641  0.1557
  161SOPE   C2518010   1.236   5.484  10.066 -0.8149  0.2662 -0.1893
  161SOPE   H5R18011   1.144   5.421  10.072  0.4503 -1.6006  0.8688
  161SOPE   H5S18012   1.207   5.589  10.088  1.5249  0.3658  3.2430
  161SOPE   C2618013   1.280   5.473   9.921 -0.3129  0.0956  0.1825
  161SOPE   H6R18014   1.367   5.541   9.903 -0.8351  1.2605  1.8083
  161SOPE   H6S18015   1.323   5.374   9.894 -0.9258 -0.1373  0.0532
  161SOPE   C2718016   1.165   5.505   9.825 -0.1917 -0.0243 -0.2600
  161SOPE   H7R18017   1.096   5.579   9.871 -0.0040 -0.5794  0.9243
  161SOPE   H7S18018   1.220   5.566   9.749  1.4737 -1.0300  0.0878
  161SOPE   C2818019   1.097   5.390   9.756  0.0858  0.2708 -0.7256
  161SOPE   H8R18020   1.176   5.342   9.694 -0.1996  0.6299 -1.3777
  161SOPE   H8S18021   1.064   5.324   9.839  0.1492  0.9325 -0.1676
  161SOPE   C2918022   0.987   5.441   9.670  0.4094 -1.0007  0.8187
  161SOPE   H9118023   0.897   5.472   9.724 -0.2458 -3.0612  1.0149
  161SOPE  C21018024   0.991   5.449   9.533 -0.2504  0.0337  0.0558
  161SOPE  H10118025   0.898   5.471   9.480 -0.8321 -1.4487  0.4250
  161SOPE  C21118026   1.111   5.424   9.438 -0.2223  0.0414 -0.4289
  161SOPE  H11R18027   1.203   5.426   9.500 -0.7395  2.5425  0.3919
  161SOPE  H11S18028   1.127   5.504   9.362  2.1601 -0.0104 -0.0659
  161SOPE  C21218029   1.104   5.293   9.360 -0.3170 -0.0235 -0.1487
  161SOPE  H12R18030   1.003   5.301   9.315 -0.3939  0.7950  0.1603
  161SOPE  H12S18031   1.093   5.212   9.435 -0.1902  0.5490  0.4925
  161SOPE  C21318032   1.215   5.260   9.267  0.1452  0.4562  0.0172
  161SOPE  H13R18033   1.193   5.155   9.239  0.1518  0.2343  0.8393
  161SOPE  H13S18034   1.316   5.264   9.313 -0.3583 -0.7307  1.2659
  161SOPE  C21418035   1.208   5.346   9.139  0.1895  0.4729 -0.2948
  161SOPE  H14R18036   1.126   5.422   9.145 -0.3212  0.0876 -2.0343
  161SOPE  H14S18037   1.186   5.288   9.048 -0.7667  1.6993 -0.8758
  161SOPE  C21518038   1.337   5.430   9.112  0.3854  0.1584 -0.7485
  161SOPE  H15R18039   1.431   5.371   9.117  1.2322  1.5345  0.4408
  161SOPE  H15S18040   1.336   5.485   9.209 -1.1876 -0.4372 -0.3898
  161SOPE  C21618041   1.346   5.536   8.999  0.5576  0.8108 -0.0587
  161SOPE  H16R18042   1.238   5.558   8.985 -0.1633 -3.0968 -1.8800
  161SOPE  H16S18043   1.374   5.477   8.909 -1.3234  1.3465 -1.0564
  161SOPE  C21718044   1.437   5.658   9.031  0.9239  0.0812 -0.2017
  161SOPE  H17R18045   1.453   5.702   8.930  0.2932  0.3412 -0.1965
  161SOPE  H17S18046   1.533   5.619   9.070 -0.6870 -1.7531  2.2338
  161SOPE  C21818047   1.366   5.756   9.125 -0.3626  0.1934  0.1066
  161SOPE  H18R18048   1.367   5.717   9.229  0.6105  0.2396  0.1262
  161SOPE  H18S18049   1.260   5.769   9.096 -0.3660 -0.6925 -0.3433
  161SOPE  H18T18050   1.414   5.856   9.118  1.1623 -0.5038  0.0673
  161SOPE   C3318051   1.041   5.981  10.154 -0.2911  0.0069  0.2427
  161SOPE   H3X18052   1.016   6.058  10.231 -4.6058 -2.8708  2.1518
  161SOPE   H3Y18053   1.014   6.016  10.052  1.1988  1.5707  0.3422
  161SOPE   C3418054   1.197   5.974  10.142  0.1284 -0.4537  0.9559
  161SOPE   H4X18055   1.233   5.875  10.109 -0.7125 -0.5261  0.2178
  161SOPE   H4Y18056   1.242   5.997  10.241  1.2072  0.6165  0.2420
  161SOPE   C3518057   1.242   6.089  10.051  0.8787 -0.0889 -0.1385
  161SOPE   H5X18058   1.209   6.184  10.097  0.4520 -0.6869  0.8302
  161SOPE   H5Y18059   1.190   6.075   9.954  0.5266 -1.8308  0.2706
  161SOPE   C3618060   1.388   6.082  10.013  0.4216 -0.2047 -0.0654
  161SOPE   H6X18061   1.415   5.998   9.945 -0.4890  0.1689 -0.9134
  161SOPE   H6Y18062   1.443   6.066  10.109 -2.4557  2.1219  2.1244
  161SOPE   C3718063   1.427   6.222   9.959  0.9222  0.1805 -0.0322
  161SOPE   H7X18064   1.510   6.272  10.015  1.6576  0.4388 -1.3113
  161SOPE   H7Y18065   1.334   6.283   9.959  1.2033  0.6164  0.1822
  161SOPE   C3818066   1.477   6.220   9.812  0.6475 -0.5651 -0.0385
  161SOPE   H8X18067   1.400   6.167   9.751  0.0459 -1.4477  1.4345
  161SOPE   H8Y18068   1.564   6.151   9.805 -1.5940 -3.8800  1.7818
  161SOPE   C3918069   1.515   6.356   9.744 -0.1333  0.7431  0.3737
  161SOPE   H9X18070   1.607   6.382   9.801 -0.0289 -1.1929  1.1679
  161SOPE   H9Y18071   1.435   6.430   9.766  0.4051  1.6769 -0.7326
  161SOPE  C31018072   1.541   6.335   9.600  0.0783 -0.2745  0.7426
  161SOPE  H10X18073   1.607   6.248   9.579  0.0950 -0.3275  1.0062
  161SOPE  H10Y18074   1.593   6.427   9.566 -0.0249 -1.2097 -2.2105
  161SOPE  C31118075   1.419   6.309   9.508 -0.1032 -0.7318  0.0171
  161SOPE  H11X18076   1.343   6.391   9.510 -0.5384 -1.1335  0.2436
  161SOPE  H11Y18077   1.369   6.219   9.550  0.1142 -0.1014  1.7104
  161SOPE  C31218078   1.459   6.286   9.361 -0.4667  0.1963  0.2866
  161SOPE  H12X18079   1.513   6.376   9.324  1.9413 -0.6835  1.4458
  161SOPE  H12Y18080   1.361   6.274   9.310 -1.1745 -0.2549  1.7000
  161SOPE  C31318081   1.556   6.159   9.338 -0.7736 -0.1912 -0.3745
  161SOPE  H13X18082   1.504   6.062   9.328  1.6839 -1.4933 -1.4694
  161SOPE  H13Y18083   1.644   6.159   9.406 -2.4909 -3.1103  2.0655
  161SOPE  C31418084   1.623   6.165   9.195  0.3806  0.1458  0.0890
  161SOPE  H14X18085   1.661   6.270   9.198 -2.6045  1.3776 -1.1385
  161SOPE  H14Y18086   1.545   6.171   9.116 -0.1197  1.7556  0.6518
  161SOPE  C31518087   1.724   6.051   9.165 -0.2173 -0.3964 -0.4031
  161SOPE  H15X18088   1.680   5.949   9.161  1.9367 -1.3680 -2.6745
  161SOPE  H15Y18089   1.806   6.050   9.240 -0.2256  0.8093 -0.3697
  161SOPE  C31618090   1.796   6.062   9.036  0.3278 -0.1486 -0.6839
  161SOPE  H16X18091   1.892   6.006   9.042 -0.2034 -1.0055  0.0948
  161SOPE  H16Y18092   1.827   6.168   9.021 -1.0990 -0.0124 -3.0544
  161SOPE  C31718093   1.714   6.020   8.912 -0.8861 -0.2354  0.1949
  161SOPE  H17X18094   1.618   6.075   8.904  0.4888  2.2628 -0.3446
  161SOPE  H17Y18095   1.699   5.911   8.925  1.0965 -0.3147  2.6218
  161SOPE  C31818096   1.791   6.048   8.780  0.3161 -0.3891  0.6588
  161SOPE  H18X18097   1.801   6.157   8.758  0.5697 -0.6121 -0.3448
  161SOPE  H18Y18098   1.739   6.006   8.692 -1.3241  0.0192  1.3783
  161SOPE  H18Z18099   1.894   6.008   8.787  1.4677  1.7694 -2.1390
  162SOPE     N18100   0.767   6.794  10.466 -1.0778 -0.8137 -0.1318
  162SOPE   HN118101   0.778   6.692  10.486 -0.4927 -0.5471  0.9988
  162SOPE   HN218102   0.670   6.824  10.491 -1.1279 -1.9536  1.1548
  162SOPE   HN318103   0.792   6.813  10.367 -0.2285 -1.8234 -0.1172
  162SOPE   C1218104   0.871   6.862  10.554 -0.2381 -0.0882 -1.0736
  162SOPE  H12A18105   0.813   6.904  10.639 -1.0444 -1.6580 -0.8081
  162SOPE  H12B18106   0.935   6.934  10.498  1.7816 -1.2852 -0.4016
  162SOPE   C1118107   0.964   6.751  10.612 -0.3750  0.0106  0.6623
  162SOPE  H11A18108   1.025   6.799  10.691  2.1217 -0.1992 -1.0234
  162SOPE  H11B18109   1.024   6.718  10.524 -0.6600  1.1163  0.0392
  162SOPE     P18110   0.929   6.554  10.778  0.4167 -0.3605  0.1772
  162SOPE   O1318111   0.830   6.552  10.887 -0.0980 -0.8753 -0.0051
  162SOPE   O1418112   1.066   6.598  10.803 -0.0165  0.0832 -0.2497
  162SOPE   O1218113   0.883   6.641  10.659  0.1923  0.5901 -0.0697
  162SOPE   O1118114   0.928   6.408  10.709  0.2719 -0.4527 -0.1328
  162SOPE    C118115   1.032   6.369  10.619  0.3364  0.4993 -1.1077
  162SOPE    HA18116   1.047   6.261  10.635  1.7010  0.7298 -0.7360
  162SOPE    HB18117   1.128   6.421  10.638  0.0584  0.0255  2.1611
  162SOPE    C218118   0.992   6.397  10.467 -0.2094  0.5280 -0.5343
  162SOPE    HS18119   0.985   6.508  10.471 -2.3924  0.4022  0.8432
  162SOPE   O2118120   0.868   6.335  10.444 -0.0702 -0.1780 -0.5221
  162SOPE   C2118121   0.766   6.409  10.401 -0.5753 -0.0702  0.3499
  162SOPE   O2218122   0.769   6.527  10.383 -0.3270  0.9875  0.1313
  162SOPE   C2218123   0.646   6.326  10.389  0.4441  0.0867  0.0085
  162SOPE   H2R18124   0.556   6.386  10.363  1.7801  2.0782 -0.2127
  162SOPE   H2S18125   0.638   6.266  10.482  2.5416 -1.1936 -0.5660
  162SOPE    C318126   1.089   6.353  10.359  0.7010 -0.4043  0.4956
  162SOPE    HX18127   1.087   6.242  10.360  0.7859 -0.4605 -1.8681
  162SOPE    HY18128   1.186   6.389  10.401  0.2261 -0.2802  1.5252
  162SOPE   O3118129   1.054   6.402  10.225  0.2208 -0.6584  0.0654
  162SOPE   C3118130   1.110   6.517  10.187 -0.0992 -0.0937  0.3331
  162SOPE   O3218131   1.187   6.581  10.257  0.1420 -0.4758  0.0260
  162SOPE   C3218132   1.054   6.553  10.044  0.2185  0.5894 -0.2340
  162SOPE   H2X18133   1.057   6.664  10.044  2.0372  0.5827  0.6817
  162SOPE   H2Y18134   0.949   6.519  10.055  0.2967  0.7355  1.0850
  162SOPE   C2318135   0.646   6.204  10.284 -0.0704 -0.2831 -0.1108
  162SOPE   H3R18136   0.556   6.147  10.316  0.4844 -0.9328  0.3014
  162SOPE   H3S18137   0.736   6.147  10.315 -0.1414 -0.1068  0.4266
  162SOPE   C2418138   0.654   6.246  10.139  0.2764 -0.3226  0.6258
  162SOPE   H4R18139   0.581   6.330  10.139  0.4666 -0.1320 -0.8286
  162SOPE   H4S18140   0.752   6.293  10.117  0.0270 -0.4004 -0.7164
  162SOPE   C2518141   0.607   6.142  10.039 -0.3591  0.3755 -0.1569
  162SOPE   H5R18142   0.681   6.060  10.028 -2.3456 -1.4680 -0.5447
  162SOPE   H5S18143   0.513   6.093  10.074  1.4843 -3.8267 -0.4549
  162SOPE   C2618144   0.603   6.212   9.903  0.0362  0.1942 -0.0279
  162SOPE   H6R18145   0.530   6.293   9.922  0.0038 -0.5536  3.6653
  162SOPE   H6S18146   0.700   6.264   9.884 -0.7860  2.4404  1.5650
  162SOPE   C2718147   0.555   6.139   9.786  0.3894 -0.0514 -0.2660
  162SOPE   H7R18148   0.645   6.087   9.747  0.3431 -1.1926  1.0655
  162SOPE   H7S18149   0.471   6.075   9.821  0.8429  0.0445  1.0444
  162SOPE   C2818150   0.505   6.215   9.664 -0.0931  0.5477  0.1683
  162SOPE   H8R18151   0.479   6.137   9.590 -1.4560 -0.6786  1.8494
  162SOPE   H8S18152   0.411   6.267   9.695  0.5215  1.0531  1.2741
  162SOPE   C2918153   0.606   6.308   9.607 -0.0908  0.6254  0.0648
  162SOPE   H9118154   0.707   6.265   9.609 -0.1887  0.3257 -0.9431
  162SOPE  C21018155   0.588   6.421   9.538 -0.2688  0.0558  0.1071
  162SOPE  H10118156   0.677   6.473   9.500 -0.5538  1.9461  1.8269
  162SOPE  C21118157   0.465   6.496   9.511 -0.8282  0.3087 -0.6921
  162SOPE  H11R18158   0.450   6.568   9.595 -1.3829 -0.9081  0.2780
  162SOPE  H11S18159   0.377   6.428   9.512  0.5701 -1.6736 -2.8453
  162SOPE  C21218160   0.468   6.582   9.382  0.5575  0.6155 -0.0783
  162SOPE  H12R18161   0.558   6.645   9.367  0.2425  1.0052 -0.3669
  162SOPE  H12S18162   0.376   6.645   9.382  0.6492  0.7503 -0.0746
  162SOPE  C21318163   0.466   6.481   9.258 -0.1060  0.2674 -0.0641
  162SOPE  H13R18164   0.393   6.399   9.277 -0.4270  0.3217 -0.9926
  162SOPE  H13S18165   0.560   6.422   9.253 -0.7531 -0.7253 -1.1873
  162SOPE  C21418166   0.420   6.532   9.123 -0.0737  0.1065 -0.0359
  162SOPE  H14R18167   0.493   6.610   9.095  1.2746 -1.4649 -1.1257
  162SOPE  H14S18168   0.313   6.562   9.126 -0.0467  0.2095 -0.0952
  162SOPE  C21518169   0.423   6.428   9.015  0.0967 -0.0839 -0.3441
  162SOPE  H15R18170   0.338   6.431   8.943  0.6785 -2.1845 -1.2142
  162SOPE  H15S18171   0.395   6.331   9.060  0.9674 -2.8314 -4.9634
  162SOPE  C21618172   0.555   6.413   8.939  0.3661 -0.3431 -0.5651
  162SOPE  H16R18173   0.627   6.473   8.999 -1.8155  3.6619 -1.6148
  162SOPE  H16S18174   0.529   6.467   8.846 -0.6888  1.8637  0.9163
  162SOPE  C21718175   0.617   6.277   8.917  0.4136  0.3771 -0.1357
  162SOPE  H17R18176   0.689   6.300   8.835 -0.6713  3.9482 -0.2868
  162SOPE  H17S18177   0.545   6.202   8.879 -0.2343  0.5089  0.8241
  162SOPE  C21818178   0.673   6.218   9.044 -0.3731 -0.1451 -0.3217
  162SOPE  H18R18179   0.691   6.109   9.032  1.8492 -0.0330  1.4008
  162SOPE  H18S18180   0.609   6.240   9.132 -0.2348  0.0767 -0.2792
  162SOPE  H18T18181   0.771   6.265   9.065 -0.2393  0.0743 -1.3756
  162SOPE   C3318182   1.119   6.478   9.922 -0.4041 -0.2095 -0.1179
  162SOPE   H3X18183   1.112   6.368   9.934 -2.0222 -0.1052  0.1434
  162SOPE   H3Y18184   1.227   6.505   9.914 -0.1048 -0.7706  1.6390
  162SOPE   C3418185   1.066   6.520   9.789  0.5311 -0.4036  0.5003
  162SOPE   H4X18186   1.095   6.626   9.774  0.9010 -0.6205 -0.4082
  162SOPE   H4Y18187   0.956   6.524   9.796  0.5447 -0.8747  1.0566
  162SOPE   C3518188   1.105   6.441   9.667 -0.0111 -0.8964 -0.1546
  162SOPE   H5X18189   1.216   6.435   9.658  0.4666  0.2860  3.5519
  162SOPE   H5Y18190   1.064   6.491   9.576 -1.8917 -2.4867 -0.2507
  162SOPE   C3618191   1.051   6.299   9.671 -0.2799  0.4872 -0.0656
  162SOPE   H6X18192   0.944   6.290   9.697 -0.7151  0.2617 -1.8337
  162SOPE   H6Y18193   1.102   6.230   9.741 -0.0724  0.1342 -0.5647
  162SOPE   C3718194   1.046   6.231   9.531  0.0103  0.2771 -0.5278
  162SOPE   H7X18195   1.014   6.125   9.541  0.7496  0.1907  1.3719
  162SOPE   H7Y18196   1.150   6.225   9.491 -0.3049 -1.7697 -1.1470
  162SOPE   C3818197   0.973   6.296   9.414 -0.2979  0.0848  0.6963
  162SOPE   H8X18198   0.912   6.382   9.449 -1.4836 -0.0243 -0.9939
  162SOPE   H8Y18199   0.897   6.220   9.387  1.3390 -1.4955  0.3722
  162SOPE   C3918200   1.054   6.332   9.287 -0.7097 -0.5949  0.1528
  162SOPE   H9X18201   1.139   6.389   9.330 -0.3806 -2.8531  2.8135
  162SOPE   H9Y18202   0.988   6.392   9.220 -2.4479 -2.8373 -0.2612
  162SOPE  C31018203   1.095   6.207   9.209  0.5784  0.1359 -0.2040
  162SOPE  H10X18204   1.006   6.142   9.194  1.4766 -1.0890 -0.3577
  162SOPE  H10Y18205   1.180   6.156   9.260  0.4018  0.1743  0.1347
  162SOPE  C31118206   1.139   6.246   9.067 -0.6188  0.7162 -0.6350
  162SOPE  H11X18207   1.209   6.331   9.084 -1.4053  1.2131  0.2588
  162SOPE  H11Y18208   1.056   6.286   9.006 -2.1664 -0.6130  0.5217
  162SOPE  C31218209   1.212   6.127   8.995  0.4927  1.0166  0.4767
  162SOPE  H12X18210   1.152   6.037   9.019  0.3980  0.9538  0.0004
  162SOPE  H12Y18211   1.301   6.119   9.062 -1.0687  2.0130  2.8280
  162SOPE  C31318212   1.236   6.142   8.851 -0.0703 -0.1367 -0.3560
  162SOPE  H13X18213   1.288   6.240   8.836  0.1976  0.3652  3.0645
  162SOPE  H13Y18214   1.137   6.145   8.801 -0.3535  0.8619  0.2372
  162SOPE  C31418215   1.330   6.032   8.792  0.0340  0.4686 -0.4257
  162SOPE  H14X18216   1.291   5.933   8.824  0.1523  1.6187  4.0038
  162SOPE  H14Y18217   1.432   6.048   8.833 -0.4515 -1.1367  1.5692
  162SOPE  C31518218   1.349   6.052   8.645 -0.2964  0.4298  0.3337
  162SOPE  H15X18219   1.441   5.996   8.617  0.2118  1.3467  0.1393
  162SOPE  H15Y18220   1.369   6.157   8.616 -2.9360  0.8916 -0.0629
  162SOPE  C31618221   1.227   5.994   8.566 -0.6233 -0.1108 -0.0716
  162SOPE  H16X18222   1.136   6.054   8.586  0.3718  1.1353  0.9872
  162SOPE  H16Y18223   1.217   5.888   8.595  2.4988 -0.5185 -0.1643
  162SOPE  C31718224   1.247   6.000   8.407  0.2391  0.3473  0.3111
  162SOPE  H17X18225   1.348   5.960   8.383  0.6242  1.2641  0.3632
  162SOPE  H17Y18226   1.252   6.107   8.379 -3.1236  0.1452 -1.6835
  162SOPE  C31818227   1.126   5.927   8.344 -0.4975  0.2396  0.0623
  162SOPE  H18X18228   1.143   5.937   8.235  3.4535 -1.3448  0.3857
  162SOPE  H18Y18229   1.026   5.964   8.376 -0.2620  0.3439  0.6831
  162SOPE  H18Z18230   1.129   5.818   8.363  1.9210 -0.2212 -2.4333
  163SOPE     N18231   2.477   3.968  10.687 -0.1445 -0.3861  0.2844
  163SOPE   HN118232   2.438   3.958  10.591  0.1516 -1.7500  0.2845
  163SOPE   HN218233   2.534   4.055  10.693  2.2265 -1.6643 -1.6520
  163SOPE   HN318234   2.551   3.895  10.698  0.8955  0.8006  1.6266
  163SOPE   C1218235   2.387   3.945  10.802 -0.0018  0.1205 -0.3201
  163SOPE  H12A18236   2.434   3.965  10.900 -0.0828  1.4078 -0.5273
  163SOPE  H12B18237   2.351   3.840  10.803  2.4907 -0.8012  1.3220
  163SOPE   C1118238   2.274   4.045  10.791 -0.1080  0.6536 -0.2065
  163SOPE  H11A18239   2.314   4.149  10.790 -1.2296  1.1094  0.8651
  163SOPE  H11B18240   2.223   4.024  10.887 -0.1299  2.3794  0.1873
  163SOPE     P18241   2.044   4.083  10.687 -0.3567 -0.4317  0.3375
  163SOPE   O1318242   1.988   4.116  10.555 -0.1085  0.7203 -0.2100
  163SOPE   O1418243   2.024   4.190  10.796  0.6002  0.1062  0.1262
  163SOPE   O1218244   2.194   4.031  10.678 -0.0909  0.2743  0.1083
  163SOPE   O1118245   1.962   3.958  10.752  0.1125 -0.6047  0.4155
  163SOPE    C118246   1.895   3.843  10.701  0.8618  0.3940 -0.4497
  163SOPE    HA18247   1.817   3.880  10.632  0.4152 -1.9692 -1.2882
  163SOPE    HB18248   1.846   3.787  10.783 -0.6456  0.8118 -1.0443
  163SOPE    C218249   1.984   3.742  10.624 -0.3037 -0.4515 -0.4394
  163SOPE    HS18250   2.055   3.704  10.700 -2.0902 -2.0192  0.5118
  163SOPE   O2118251   2.058   3.813  10.518  0.3010  0.2533 -0.1254
  163SOPE   C2118252   2.151   3.753  10.446  0.5981 -0.7911 -0.8720
  163SOPE   O2218253   2.184   3.638  10.442  0.3483  0.3729  0.4670
  163SOPE   C2218254   2.216   3.874  10.372  0.9727  0.8081  0.0868
  163SOPE   H2R18255   2.299   3.821  10.320  0.1583 -2.0849  1.5099
  163SOPE   H2S18256   2.261   3.947  10.442 -0.8863  1.7317  0.3599
  163SOPE    C318257   1.913   3.615  10.576  0.5443  0.1068 -0.5926
  163SOPE    HX18258   1.882   3.557  10.665  2.7239  1.1948  0.9653
  163SOPE    HY18259   1.993   3.560  10.523  1.1699  1.0860 -0.7008
  163SOPE   O3118260   1.795   3.652  10.492  0.0516  0.0108  0.7418
  163SOPE   C3118261   1.779   3.585  10.377 -0.0243 -0.1154  0.9793
  163SOPE   O3218262   1.841   3.483  10.347 -0.1963  0.2218 -0.5077
  163SOPE   C3218263   1.678   3.653  10.284  0.3530  0.4356 -0.0512
  163SOPE   H2X18264   1.725   3.720  10.208  1.2805  0.2749  0.3604
  163SOPE   H2Y18265   1.615   3.714  10.353  1.0646  1.0779  0.0456
  163SOPE   C2318266   2.118   3.939  10.265 -0.1548 -0.8316 -0.4955
  163SOPE   H3R18267   2.159   4.042  10.260  1.4825 -1.3663  1.0009
  163SOPE   H3S18268   2.017   3.947  10.310 -0.0688 -1.5611 -0.1580
  163SOPE   C2418269   2.119   3.879  10.123  0.1643  0.7064 -0.9436
  163SOPE   H4R18270   2.113   3.954  10.041  0.2120  2.3860  0.5326
  163SOPE   H4S18271   2.221   3.838  10.105  0.0003  0.1590 -0.6548
  163SOPE   C2518272   2.010   3.769  10.100 -0.3339 -1.0846 -0.2729
  163SOPE   H5R18273   2.002   3.710  10.193 -1.0572 -0.4140  0.0992
  163SOPE   H5S18274   1.906   3.804  10.079  0.1843  1.5072  1.0073
  163SOPE   C2618275   2.057   3.658  10.002 -0.2461 -0.2361  1.0612
  163SOPE   H6R18276   2.151   3.620  10.047 -0.8219 -1.5179  1.2512
  163SOPE   H6S18277   1.984   3.575  10.019  1.1465 -1.2544  2.3219
  163SOPE   C2718278   2.065   3.700   9.845  0.0209  0.2851 -0.5988
  163SOPE   H7R18279   1.966   3.694   9.796 -0.2584  0.9796 -0.1315
  163SOPE   H7S18280   2.115   3.799   9.837 -0.0267  0.2151 -2.2214
  163SOPE   C2818281   2.162   3.599   9.772  0.2913  0.1604 -1.0145
  163SOPE   H8R18282   2.191   3.648   9.676  1.5852  1.4946  0.0216
  163SOPE   H8S18283   2.258   3.602   9.827 -1.0667  2.0044  1.4440
  163SOPE   C2918284   2.115   3.454   9.762 -0.2482  0.2520  0.0803
  163SOPE   H9118285   2.096   3.403   9.858  6.5653 -2.1382  0.6797
  163SOPE  C21018286   2.109   3.381   9.652 -0.4236 -0.1375  0.3176
  163SOPE  H10118287   2.060   3.283   9.654 -2.2163  0.7045 -0.0596
  163SOPE  C21118288   2.146   3.423   9.509  0.4769 -0.4058 -0.4365
  163SOPE  H11R18289   2.220   3.346   9.478  3.5038  2.1901 -0.2255
  163SOPE  H11S18290   2.195   3.522   9.496 -1.8186  1.1921  2.0430
  163SOPE  C21218291   2.042   3.421   9.399 -0.5886  0.0029 -0.3702
  163SOPE  H12R18292   1.961   3.497   9.404 -2.6838 -2.1056 -0.6127
  163SOPE  H12S18293   1.976   3.332   9.402  1.6370 -1.7567 -1.0304
  163SOPE  C21318294   2.115   3.404   9.261  0.8774 -0.2575 -0.1200
  163SOPE  H13R18295   2.180   3.314   9.260  1.2872 -0.1230  3.2458
  163SOPE  H13S18296   2.187   3.486   9.241 -0.9140  0.7048 -3.1863
  163SOPE  C21418297   2.014   3.402   9.148  0.1553  0.3219  0.0533
  163SOPE  H14R18298   1.952   3.494   9.156 -0.8389 -0.3670  0.3647
  163SOPE  H14S18299   1.937   3.323   9.155 -1.5405  1.7613 -1.4758
  163SOPE  C21518300   2.077   3.416   9.010  0.1885 -0.2700 -0.4159
  163SOPE  H15R18301   2.141   3.328   8.990 -1.6252 -1.4218 -1.3582
  163SOPE  H15S18302   2.142   3.506   9.015 -0.0007 -0.1459 -0.2031
  163SOPE  C21618303   1.978   3.420   8.893  0.2693  0.4589  0.3837
  163SOPE  H16R18304   1.916   3.328   8.893 -0.0332  0.6604 -0.0725
  163SOPE  H16S18305   2.042   3.415   8.802 -0.1283 -0.2059  0.1348
  163SOPE  C21718306   1.891   3.543   8.883  0.3712 -0.7052  0.8352
  163SOPE  H17R18307   1.945   3.639   8.866  0.1073 -0.3675  1.8117
  163SOPE  H17S18308   1.834   3.551   8.978 -0.4764  0.9678  0.2202
  163SOPE  C21818309   1.792   3.529   8.764  0.1419  0.4209  0.1911
  163SOPE  H18R18310   1.841   3.502   8.668  0.5256  0.9544  0.2324
  163SOPE  H18S18311   1.734   3.624   8.762  0.0086  0.3438  0.4573
  163SOPE  H18T18312   1.714   3.453   8.785 -1.1585  1.0363 -2.0316
  163SOPE   C3318313   1.588   3.549  10.219  0.3744  0.7487  0.2363
  163SOPE   H3X18314   1.482   3.578  10.235  0.5957  1.3278  0.6988
  163SOPE   H3Y18315   1.577   3.458  10.283 -2.0607  0.0678 -1.0097
  163SOPE   C3418316   1.629   3.511  10.078 -0.9139  0.3508 -0.3064
  163SOPE   H4X18317   1.568   3.428  10.038 -0.5904  0.0686 -0.2121
  163SOPE   H4Y18318   1.732   3.471  10.079 -1.8064 -2.1142  0.2902
  163SOPE   C3518319   1.617   3.621   9.978 -0.2340  0.4951 -0.1497
  163SOPE   H5X18320   1.659   3.720  10.004  1.1495  0.2782 -1.3783
  163SOPE   H5Y18321   1.509   3.644   9.966 -0.0872  1.1289 -0.2987
  163SOPE   C3618322   1.664   3.583   9.836 -0.5900  0.0654  0.3151
  163SOPE   H6X18323   1.602   3.510   9.779  1.5351 -0.9267 -0.8587
  163SOPE   H6Y18324   1.759   3.526   9.841 -0.9676 -0.5369  0.8065
  163SOPE   C3718325   1.680   3.710   9.759  0.3792 -0.4715  0.2427
  163SOPE   H7X18326   1.741   3.788   9.809 -2.8237  2.2577  0.2768
  163SOPE   H7Y18327   1.579   3.756   9.755  0.0248 -1.3140 -1.4239
  163SOPE   C3818328   1.741   3.683   9.624  0.1401  0.6882 -0.3929
  163SOPE   H8X18329   1.806   3.594   9.643 -2.4876 -1.5742 -1.2619
  163SOPE   H8Y18330   1.813   3.760   9.590  0.4992 -1.2717 -4.6191
  163SOPE   C3918331   1.630   3.657   9.524 -0.4619  0.5548  0.3214
  163SOPE   H9X18332   1.556   3.739   9.533 -0.3159  0.7962 -0.6006
  163SOPE   H9Y18333   1.572   3.566   9.547 -1.0990  0.4936 -1.3903
  163SOPE  C31018334   1.686   3.637   9.388 -0.1302  0.1790 -0.1221
  163SOPE  H10X18335   1.761   3.555   9.381 -0.1701  0.2451 -1.9093
  163SOPE  H10Y18336   1.729   3.734   9.353 -3.0063  1.8601  0.6217
  163SOPE  C31118337   1.575   3.592   9.296 -0.0865  0.4778  0.0762
  163SOPE  H11X18338   1.501   3.674   9.285 -0.4124  0.1126 -0.4271
  163SOPE  H11Y18339   1.520   3.502   9.330  2.1026 -0.4166  1.4804
  163SOPE  C31218340   1.627   3.558   9.156  0.0252  0.3434 -0.1755
  163SOPE  H12X18341   1.695   3.471   9.166 -0.0737  0.4059  1.1846
  163SOPE  H12Y18342   1.684   3.644   9.116  0.8389  0.5191  1.2835
  163SOPE  C31318343   1.511   3.527   9.057 -0.0745 -0.8694  0.7862
  163SOPE  H13X18344   1.459   3.438   9.098 -0.3268 -1.8910 -1.5900
  163SOPE  H13Y18345   1.548   3.497   8.957 -0.2774  1.4765 -0.0500
  163SOPE  C31418346   1.410   3.640   9.038 -0.1871  0.5353  0.1718
  163SOPE  H14X18347   1.465   3.731   9.005  0.1296 -0.0985 -1.0887
  163SOPE  H14Y18348   1.359   3.660   9.134 -0.6485 -0.7118  0.2055
  163SOPE  C31518349   1.302   3.609   8.934 -0.2807 -0.6390 -0.3353
  163SOPE  H15X18350   1.357   3.605   8.838  1.8959 -0.7439  0.8596
  163SOPE  H15Y18351   1.234   3.698   8.938 -0.4768 -0.7862 -0.3643
  163SOPE  C31618352   1.222   3.480   8.942 -0.0877  0.2008 -0.1525
  163SOPE  H16X18353   1.172   3.485   9.041  1.2957 -0.3520  0.6110
  163SOPE  H16Y18354   1.280   3.385   8.942 -1.2042 -0.5058  0.5661
  163SOPE  C31718355   1.120   3.470   8.831  0.7909 -0.1178  0.2219
  163SOPE  H17X18356   1.172   3.460   8.733 -1.3577 -0.4032 -0.9789
  163SOPE  H17Y18357   1.057   3.561   8.827 -0.2478 -0.7565  1.3320
  163SOPE  C31818358   1.016   3.359   8.840 -0.4855  0.0578 -0.6629
  163SOPE  H18X18359   0.916   3.407   8.834 -0.0871  1.0609  0.2384
  163SOPE  H18Y18360   1.037   3.318   8.942 -3.4150  1.2344  0.5382
  163SOPE  H18Z18361   1.017   3.272   8.771  4.8346 -1.1117  0.4057
  164SOPE     N18362   4.314   6.805  10.790  0.1114 -0.4398  0.0434
  164SOPE   HN118363   4.364   6.784  10.701  0.1428 -0.2261  0.0102
  164SOPE   HN218364   4.382   6.806  10.868 -1.4193 -1.2675  1.4624
  164SOPE   HN318365   4.243   6.732  10.810  1.1385 -1.3634  0.4177
  164SOPE   C1218366   4.247   6.949  10.782 -0.8760 -0.9330  0.1805
  164SOPE  H12A18367   4.323   7.017  10.740 -0.8452 -1.4047 -0.5382
  164SOPE  H12B18368   4.225   6.976  10.888 -0.5094 -0.2325  0.0785
  164SOPE   C1118369   4.132   6.929  10.681 -0.9521  0.1345  0.5186
  164SOPE  H11A18370   4.089   6.829  10.701  0.6628 -0.0822  3.4045
  164SOPE  H11B18371   4.173   6.915  10.578 -1.6977 -1.4103  0.3961
  164SOPE     P18372   4.055   7.183  10.634  0.1347  0.3670  0.3227
  164SOPE   O1318373   4.195   7.228  10.665 -0.2491  0.2414  0.3502
  164SOPE   O1418374   3.947   7.271  10.687 -0.0018  0.3172  0.2648
  164SOPE   O1218375   4.030   7.029  10.673  0.2636 -0.5257  0.3743
  164SOPE   O1118376   4.035   7.167  10.481  0.1005  0.8493 -0.3176
  164SOPE    C118377   4.133   7.135  10.380 -0.0606  0.4271  0.3305
  164SOPE    HA18378   4.169   7.031  10.396  0.4206 -0.0314 -3.0489
  164SOPE    HB18379   4.219   7.204  10.391 -0.5742  0.9083  1.4591
  164SOPE    C218380   4.075   7.130  10.238 -0.8040  0.1112 -0.2212
  164SOPE    HS18381   4.156   7.094  10.171 -0.1917 -2.3302  1.6680
  164SOPE   O2118382   4.045   7.268  10.212  0.6022 -0.1654  0.5603
  164SOPE   C2118383   4.145   7.347  10.189  0.6044 -0.1373  0.0533
  164SOPE   O2218384   4.261   7.311  10.189  0.4989  0.4751 -0.2519
  164SOPE   C2218385   4.090   7.493  10.183 -0.8675  0.1289  0.0225
  164SOPE   H2R18386   4.111   7.546  10.278 -2.0657  2.4239 -0.9035
  164SOPE   H2S18387   3.982   7.490  10.159 -1.0628 -0.1948  0.9382
  164SOPE    C318388   3.942   7.052  10.222  0.0834  0.1895  0.3081
  164SOPE    HX18389   3.869   7.090  10.297 -1.6285  0.3011 -1.3577
  164SOPE    HY18390   3.952   6.944  10.248 -1.3175  0.1037  0.5693
  164SOPE   O3118391   3.894   7.059  10.088 -0.4052 -0.3138 -0.5998
  164SOPE   C3118392   3.799   7.151  10.069  0.2671 -0.7896  0.3546
  164SOPE   O3218393   3.754   7.227  10.151  0.1492  0.0924  0.2850
  164SOPE   C3218394   3.769   7.162   9.917  0.1824 -0.0835  0.5285
  164SOPE   H2X18395   3.673   7.216   9.905  0.6523  0.5229 -0.7792
  164SOPE   H2Y18396   3.765   7.058   9.877 -1.0097  0.0666  0.2129
  164SOPE   C2318397   4.159   7.587  10.074 -0.5046 -0.4430  0.2623
  164SOPE   H3R18398   4.270   7.591  10.085 -0.3526  0.9666 -1.3865
  164SOPE   H3S18399   4.122   7.690  10.091  0.1824  0.0132 -0.8573
  164SOPE   C2418400   4.133   7.556   9.925  0.3303  0.3086  0.2237
  164SOPE   H4R18401   4.185   7.465   9.887 -0.1269 -1.0379  2.6100
  164SOPE   H4S18402   4.026   7.550   9.897  0.2877  0.6716  0.3005
  164SOPE   C2518403   4.170   7.671   9.830  0.7849  0.1831 -0.4849
  164SOPE   H5R18404   4.116   7.759   9.871 -0.5399 -0.3668 -0.9852
  164SOPE   H5S18405   4.281   7.671   9.833  0.8732 -2.2583 -1.1038
  164SOPE   C2618406   4.136   7.654   9.684  0.5012  0.1915 -0.3308
  164SOPE   H6R18407   4.198   7.575   9.637 -0.0742 -0.8688  0.6462
  164SOPE   H6S18408   4.028   7.637   9.662  0.7327  1.1206 -2.4202
  164SOPE   C2718409   4.170   7.791   9.623  0.0620  0.4464 -0.4747
  164SOPE   H7R18410   4.094   7.868   9.647  0.7816  1.1088 -0.2979
  164SOPE   H7S18411   4.262   7.839   9.663 -0.2683 -0.2921  1.2529
  164SOPE   C2818412   4.195   7.774   9.469 -0.6253 -0.5444 -0.4083
  164SOPE   H8R18413   4.277   7.704   9.443  0.7215  1.3981 -1.6344
  164SOPE   H8S18414   4.106   7.715   9.439 -1.4630  0.7133 -0.4920
  164SOPE   C2918415   4.210   7.909   9.407 -0.6363 -0.1991  0.2109
  164SOPE   H9118416   4.205   7.996   9.474  0.4420  0.1361 -0.1209
  164SOPE  C21018417   4.234   7.926   9.280  0.8761  0.1168  0.3086
  164SOPE  H10118418   4.226   8.029   9.243 -0.7000 -0.4644 -1.1077
  164SOPE  C21118419   4.254   7.824   9.175 -0.9006  0.2599  0.1265
  164SOPE  H11R18420   4.198   7.732   9.201  2.1989 -2.3057 -1.4829
  164SOPE  H11S18421   4.363   7.801   9.176 -0.9203  0.1683  0.0830
  164SOPE  C21218422   4.223   7.864   9.032  0.2307 -0.4183  0.0878
  164SOPE  H12R18423   4.114   7.886   9.022  0.7233  1.2086 -2.5255
  164SOPE  H12S18424   4.229   7.775   8.965  0.1123 -0.1718 -0.2539
  164SOPE  C21318425   4.317   7.977   8.979  0.2818 -0.3991 -1.0213
  164SOPE  H13R18426   4.418   7.954   9.018  0.8006  1.4338 -1.1823
  164SOPE  H13S18427   4.278   8.070   9.026 -2.4788 -1.7193 -0.4900
  164SOPE  C21418428   4.318   7.979   8.825  0.1037 -0.2099 -0.2666
  164SOPE  H14R18429   4.219   8.018   8.792 -0.7451 -1.6856  0.4165
  164SOPE  H14S18430   4.341   7.880   8.780 -1.2210 -1.1113  0.9624
  164SOPE  C21518431   4.422   8.077   8.763 -0.2874  0.7699  0.4076
  164SOPE  H15R18432   4.410   8.063   8.654  0.6789 -0.8304  0.4847
  164SOPE  H15S18433   4.523   8.046   8.795 -0.0195 -0.6678 -1.6780
  164SOPE  C21618434   4.393   8.231   8.789 -0.4037 -0.2143 -0.3310
  164SOPE  H16R18435   4.406   8.244   8.898  1.4545 -0.9404 -0.4166
  164SOPE  H16S18436   4.293   8.257   8.749 -1.0322 -0.2535  1.1648
  164SOPE  C21718437   4.505   8.307   8.722 -0.7586 -0.8335 -0.6531
  164SOPE  H17R18438   4.502   8.279   8.614  1.5309 -4.1732 -0.0210
  164SOPE  H17S18439   4.604   8.283   8.766 -0.7146  0.9700  0.3107
  164SOPE  C21818440   4.471   8.456   8.740 -0.0161  0.1323 -0.7355
  164SOPE  H18R18441   4.465   8.472   8.850 -2.2835 -0.1600 -0.7719
  164SOPE  H18S18442   4.378   8.495   8.693  0.6520  2.8203  0.0045
  164SOPE  H18T18443   4.545   8.523   8.692 -1.4310  0.0976 -3.1279
  164SOPE   C3318444   3.886   7.237   9.859  0.2682  0.0987  0.4162
  164SOPE   H3X18445   3.980   7.180   9.871  1.8275  2.4434 -0.0392
  164SOPE   H3Y18446   3.900   7.341   9.897  0.6529  1.5879 -3.3746
  164SOPE   C3418447   3.871   7.251   9.711 -0.2904  0.2315  1.0685
  164SOPE   H4X18448   3.791   7.318   9.672  1.1909  2.5073  1.7756
  164SOPE   H4Y18449   3.835   7.158   9.661  0.7013  0.5462 -0.2931
  164SOPE   C3518450   3.999   7.307   9.652 -0.0365  0.3325 -0.0886
  164SOPE   H5X18451   4.081   7.233   9.648 -0.7451 -0.4686 -0.2231
  164SOPE   H5Y18452   4.037   7.382   9.724 -0.3138 -1.7407  2.3680
  164SOPE   C3618453   3.967   7.369   9.519 -0.2465 -0.6955 -0.2554
  164SOPE   H6X18454   3.931   7.474   9.524 -0.9232 -0.9209 -0.3206
  164SOPE   H6Y18455   3.896   7.308   9.459  0.5935 -0.7109 -1.2607
  164SOPE   C3718456   4.085   7.365   9.420 -0.1558  0.0892  0.1210
  164SOPE   H7X18457   4.109   7.269   9.368  0.0973  0.6519 -0.8256
  164SOPE   H7Y18458   4.178   7.402   9.467  0.4731 -1.7501  0.4233
  164SOPE   C3818459   4.052   7.449   9.297 -0.0197 -0.6356  0.2142
  164SOPE   H8X18460   4.031   7.556   9.318  0.1519 -0.8506  1.5809
  164SOPE   H8Y18461   3.957   7.412   9.253  1.4876 -0.9834 -2.9827
  164SOPE   C3918462   4.161   7.433   9.192 -0.6732  0.6184 -0.2800
  164SOPE   H9X18463   4.174   7.323   9.178 -0.2741  0.5524  0.5900
  164SOPE   H9Y18464   4.256   7.477   9.227  0.1868 -1.3448  0.0070
  164SOPE  C31018465   4.134   7.486   9.045  0.3219 -0.2709  0.9088
  164SOPE  H10X18466   4.111   7.593   9.026 -2.5310 -1.0721 -0.7864
  164SOPE  H10Y18467   4.041   7.431   9.018 -0.2572 -0.3918  2.9803
  164SOPE  C31118468   4.241   7.435   8.948  0.0609  0.2405 -0.4226
  164SOPE  H11X18469   4.286   7.347   8.999  0.0580  1.2799  1.4588
  164SOPE  H11Y18470   4.324   7.507   8.964  0.0331  0.2332 -0.2433
  164SOPE  C31218471   4.206   7.408   8.801  1.0834  0.4943 -0.1952
  164SOPE  H12X18472   4.131   7.327   8.785 -0.5177  2.4424 -3.5743
  164SOPE  H12Y18473   4.292   7.375   8.738  0.9666  1.9169 -1.1405
  164SOPE  C31318474   4.145   7.534   8.741  0.0833  0.2379  0.2335
  164SOPE  H13X18475   4.200   7.625   8.773 -1.0832  1.2349 -0.5017
  164SOPE  H13Y18476   4.044   7.553   8.783 -0.7483 -2.1082 -0.5780
  164SOPE  C31418477   4.143   7.510   8.585  0.3029 -0.2135  0.1512
  164SOPE  H14X18478   4.245   7.498   8.544  1.2406 -2.2864  2.8178
  164SOPE  H14Y18479   4.107   7.609   8.548  0.8092 -0.5758 -1.3686
  164SOPE  C31518480   4.046   7.399   8.538 -0.5912 -0.9366  0.4780
  164SOPE  H15X18481   3.959   7.418   8.604 -0.8750  0.0254 -0.1542
  164SOPE  H15Y18482   4.083   7.295   8.551 -1.2815 -1.2124  0.2607
  164SOPE  C31618483   3.992   7.424   8.393  0.0009 -1.1028 -0.1065
  164SOPE  H16X18484   4.082   7.431   8.328 -1.5802  1.9500 -2.2442
  164SOPE  H16Y18485   3.947   7.526   8.382  1.3206 -0.7310 -3.2183
  164SOPE  C31718486   3.901   7.316   8.331 -0.0478 -0.4005  0.0841
  164SOPE  H17X18487   3.809   7.289   8.388 -2.4175 -0.5580 -3.5055
  164SOPE  H17Y18488   3.968   7.229   8.339  0.3243  0.0310  2.2411
  164SOPE  C31818489   3.873   7.341   8.177 -0.3465  0.6130 -0.8450
  164SOPE  H18X18490   3.972   7.368   8.135 -0.7151  0.7406 -1.6519
  164SOPE  H18Y18491   3.804   7.428   8.169 -0.5065  0.4850 -0.8675
  164SOPE  H18Z18492   3.832   7.252   8.126 -2.1115  0.2787  1.0351
  165SOPE     N18493   4.001   3.216  10.831 -0.3879 -0.7972 -0.3965
  165SOPE   HN118494   4.060   3.282  10.776  0.2664  0.0113  1.1928
  165SOPE   HN218495   4.012   3.119  10.796  0.4043 -0.6873 -0.4728
  165SOPE   HN318496   3.903   3.244  10.811  0.1479  0.3883 -1.5009
  165SOPE   C1218497   4.038   3.231  10.976 -0.1421  0.1022  0.2529
  165SOPE  H12A18498   4.149   3.223  10.973  0.1480  2.9376  0.6704
  165SOPE  H12B18499   3.982   3.153  11.031  0.5886  1.6569  3.4496
  165SOPE   C1118500   3.992   3.364  11.033 -0.0024 -0.2807 -0.2218
  165SOPE  H11A18501   4.026   3.360  11.139  0.7766  1.5014 -0.3795
  165SOPE  H11B18502   3.881   3.355  11.030 -0.0071  0.0109 -1.3296
  165SOPE     P18503   3.943   3.594  10.935 -0.0829 -0.3699 -0.3893
  165SOPE   O1318504   4.013   3.719  10.894  0.1961 -0.4436  0.1087
  165SOPE   O1418505   3.852   3.601  11.053 -0.2427 -0.6372 -0.0091
  165SOPE   O1218506   4.049   3.490  10.978  0.1644  0.2605 -0.8238
  165SOPE   O1118507   3.878   3.539  10.811  0.4166  0.7623 -0.2875
  165SOPE    C118508   3.755   3.584  10.754 -0.7147 -0.7576  0.0505
  165SOPE    HA18509   3.724   3.675  10.809 -0.6856 -0.1036 -0.9732
  165SOPE    HB18510   3.675   3.510  10.771 -2.0460  0.2441 -1.5011
  165SOPE    C218511   3.768   3.624  10.611 -0.8579  0.0497  0.2053
  165SOPE    HS18512   3.666   3.649  10.573 -1.5235  1.7953  2.9151
  165SOPE   O2118513   3.825   3.514  10.536 -0.9540 -0.3632  0.1977
  165SOPE   C2118514   3.791   3.514  10.404  0.1125 -0.0100 -0.6364
  165SOPE   O2218515   3.679   3.546  10.371 -0.3666  0.6199  0.2759
  165SOPE   C2218516   3.895   3.461  10.315  0.0395 -0.3190  0.0727
  165SOPE   H2R18517   3.922   3.356  10.337  0.1482  0.0754  1.9866
  165SOPE   H2S18518   3.992   3.509  10.343 -1.3113  1.0125  2.8015
  165SOPE    C318519   3.859   3.756  10.589  0.5079  1.1849 -0.5749
  165SOPE    HX18520   3.958   3.713  10.615  0.1242 -0.4232 -1.6272
  165SOPE    HY18521   3.813   3.830  10.659 -1.5554 -0.1453 -0.4532
  165SOPE   O3118522   3.852   3.804  10.453  0.0456 -0.1320 -0.2043
  165SOPE   C3118523   3.968   3.860  10.415  0.4877  0.4425 -0.0459
  165SOPE   O3218524   4.065   3.880  10.483 -0.8801  0.5048 -0.5207
  165SOPE   C3218525   3.930   3.909  10.281  0.0352  0.4801  0.2691
  165SOPE   H2X18526   3.895   4.015  10.285 -1.9228  0.0910 -2.7678
  165SOPE   H2Y18527   3.841   3.851  10.249 -1.2568  1.8331  1.2562
  165SOPE   C2318528   3.859   3.467  10.172 -0.5339 -0.1648 -0.0923
  165SOPE   H3R18529   3.936   3.528  10.121 -1.2987  0.1809 -0.8639
  165SOPE   H3S18530   3.762   3.517  10.151  0.0374  2.2949  2.4780
  165SOPE   C2418531   3.860   3.325  10.114 -0.6507  0.2071  0.0936
  165SOPE   H4R18532   3.957   3.276  10.135 -0.4777  1.3775  2.3972
  165SOPE   H4S18533   3.782   3.264  10.165  0.4265  0.0560  1.6481
  165SOPE   C2518534   3.829   3.335   9.964  0.1175 -0.0622 -0.4274
  165SOPE   H5R18535   3.729   3.379   9.949  0.5962  1.5765  0.9595
  165SOPE   H5S18536   3.904   3.401   9.917 -0.6121  1.6770  0.7663
  165SOPE   C2618537   3.844   3.190   9.907 -0.3912 -0.1306 -0.4287
  165SOPE   H6R18538   3.953   3.167   9.913  0.0991  2.2881  2.5353
  165SOPE   H6S18539   3.810   3.111   9.977  2.5145 -1.1614 -0.0657
  165SOPE   C2718540   3.804   3.155   9.763  0.2362  0.8547  0.2674
  165SOPE   H7R18541   3.695   3.176   9.761 -0.0495 -0.3037  1.6094
  165SOPE   H7S18542   3.860   3.224   9.696  0.4677 -0.9706 -1.5219
  165SOPE   C2818543   3.825   3.006   9.729  0.2831 -0.2153 -0.6050
  165SOPE   H8R18544   3.755   2.952   9.797  0.5298 -1.0619 -1.0003
  165SOPE   H8S18545   3.793   2.991   9.624  2.7204  2.2778 -1.8374
  165SOPE   C2918546   3.966   2.958   9.751  0.3791 -0.1691 -0.6498
  165SOPE   H9118547   4.012   2.982   9.848  0.3171  1.2523 -0.9555
  165SOPE  C21018548   4.032   2.884   9.664 -0.1030 -0.0719  0.2477
  165SOPE  H10118549   4.139   2.859   9.671  0.0706 -0.3567 -2.3384
  165SOPE  C21118550   3.971   2.819   9.538  0.1648  1.4690 -0.7664
  165SOPE  H11R18551   3.860   2.824   9.534 -0.1524 -2.2066  0.2197
  165SOPE  H11S18552   3.998   2.711   9.540  0.5425  1.5591 -0.9653
  165SOPE  C21218553   4.045   2.874   9.422  0.2716  0.2667  0.2033
  165SOPE  H12R18554   4.155   2.884   9.435  0.9014 -3.2243 -1.0919
  165SOPE  H12S18555   4.006   2.976   9.402 -0.0960  0.1849  0.4992
  165SOPE  C21318556   4.011   2.799   9.293  0.4513 -0.2666  0.2573
  165SOPE  H13R18557   3.901   2.794   9.312  0.8502  0.6795  3.4381
  165SOPE  H13S18558   4.057   2.699   9.298  1.6586  0.1555 -1.6588
  165SOPE  C21418559   4.045   2.872   9.162 -0.2876  0.4734  0.2810
  165SOPE  H14R18560   4.152   2.896   9.177  0.6224 -2.5225 -0.5837
  165SOPE  H14S18561   3.984   2.964   9.153 -0.2112  0.6193  1.1647
  165SOPE  C21518562   4.045   2.769   9.044 -0.1262 -0.8110  0.4401
  165SOPE  H15R18563   3.941   2.731   9.037 -0.7438  0.9667 -0.5703
  165SOPE  H15S18564   4.110   2.680   9.059  1.6780  0.2059 -1.0077
  165SOPE  C21618565   4.082   2.836   8.910 -0.2301  0.7274 -0.4670
  165SOPE  H16R18566   4.181   2.883   8.927 -0.6039  1.9086 -1.3738
  165SOPE  H16S18567   4.014   2.920   8.882 -0.5260  0.0797 -1.7349
  165SOPE  C21718568   4.075   2.730   8.797 -0.3659  0.8762  0.3903
  165SOPE  H17R18569   4.127   2.638   8.830 -0.1211  0.0102 -2.1996
  165SOPE  H17S18570   4.130   2.769   8.708  0.6144 -1.8271 -0.2733
  165SOPE  C21818571   3.931   2.689   8.759 -0.6495 -0.6136 -0.3708
  165SOPE  H18R18572   3.892   2.771   8.695 -0.2131 -0.2234 -0.1463
  165SOPE  H18S18573   3.864   2.689   8.848 -0.3318  1.0298 -0.1045
  165SOPE  H18T18574   3.927   2.590   8.709  2.6545 -1.3953  0.6814
  165SOPE   C3318575   4.050   3.898  10.185  0.5077 -0.0224  0.4814
  165SOPE   H3X18576   4.010   3.841  10.098  0.7205 -1.9635  1.6129
  165SOPE   H3Y18577   4.128   3.839  10.238 -0.6035 -0.4669  1.6715
  165SOPE   C3418578   4.103   4.032  10.125  0.0754 -0.4510 -0.4040
  165SOPE   H4X18579   4.149   4.097  10.203  0.9017 -0.2846 -1.0163
  165SOPE   H4Y18580   4.013   4.088  10.091 -0.0078  0.3781  1.1077
  165SOPE   C3518581   4.208   4.013  10.020 -0.0912  0.3607 -0.3241
  165SOPE   H5X18582   4.167   3.929   9.959 -2.1907 -1.4466  3.2009
  165SOPE   H5Y18583   4.301   3.972  10.065  0.2217  1.5619  0.1488
  165SOPE   C3618584   4.233   4.142   9.944  0.1817  0.0976  0.0049
  165SOPE   H6X18585   4.271   4.202  10.030 -0.4111 -1.4797  1.4285
  165SOPE   H6Y18586   4.137   4.187   9.911 -1.8743 -2.9472  1.3712
  165SOPE   C3718587   4.330   4.126   9.827 -0.6224 -0.5979  0.1786
  165SOPE   H7X18588   4.420   4.066   9.852 -1.3285 -1.1337  1.5408
  165SOPE   H7Y18589   4.365   4.222   9.784 -0.6166 -0.8799 -0.4436
  165SOPE   C3818590   4.252   4.063   9.710  0.3451  0.4279 -0.5166
  165SOPE   H8X18591   4.145   4.066   9.739  0.4822 -0.2453  0.0899
  165SOPE   H8Y18592   4.289   3.959   9.707  1.3963  0.8251 -2.6098
  165SOPE   C3918593   4.266   4.138   9.576 -0.2209 -0.8171 -0.2100
  165SOPE   H9X18594   4.372   4.135   9.541 -0.6497  0.4407 -1.7666
  165SOPE   H9Y18595   4.243   4.246   9.583 -1.7125 -1.0823 -0.6696
  165SOPE  C31018596   4.182   4.067   9.469 -0.1518  0.1203  1.1990
  165SOPE  H10X18597   4.074   4.079   9.488 -0.3164 -1.7600  1.5568
  165SOPE  H10Y18598   4.215   3.963   9.488 -1.7399 -0.6539 -0.0196
  165SOPE  C31118599   4.224   4.109   9.326  0.0422 -0.1064  0.5793
  165SOPE  H11X18600   4.323   4.068   9.296 -1.9943 -2.6385 -3.6303
  165SOPE  H11Y18601   4.232   4.217   9.304  0.6283 -0.4777 -1.2314
  165SOPE  C31218602   4.112   4.063   9.224 -0.1402  0.6071  0.2210
  165SOPE  H12X18603   4.020   4.116   9.254 -0.8287  0.4965 -1.5874
  165SOPE  H12Y18604   4.093   3.953   9.230 -0.6792  0.7009  0.2074
  165SOPE  C31318605   4.136   4.099   9.079  0.3274  0.2230  0.2485
  165SOPE  H13X18606   4.231   4.064   9.032 -1.1553  0.2465 -3.0006
  165SOPE  H13Y18607   4.147   4.209   9.068  1.0067  0.1840  0.4816
  165SOPE  C31418608   4.025   4.050   8.988  0.2154 -0.7585 -0.2304
  165SOPE  H14X18609   3.946   4.124   9.011  4.0530  2.9357  2.6201
  165SOPE  H14Y18610   3.983   3.950   9.015 -0.0954 -0.7895 -0.7949
  165SOPE  C31518611   4.053   4.060   8.835  0.1153  0.5256 -0.2833
  165SOPE  H15X18612   4.135   3.986   8.817 -1.5685 -1.6913  0.7191
  165SOPE  H15Y18613   4.075   4.168   8.820 -1.7070  0.7004 -2.0630
  165SOPE  C31618614   3.938   4.000   8.751 -0.1938 -0.7555  0.4107
  165SOPE  H16X18615   3.910   3.893   8.763 -0.3992 -0.6758  0.6414
  165SOPE  H16Y18616   3.976   4.009   8.647 -0.7753 -0.5666  0.2072
  165SOPE  C31718617   3.811   4.083   8.760 -0.6149 -0.3940  0.7806
  165SOPE  H17X18618   3.774   4.090   8.865 -0.2729 -0.0507  0.8795
  165SOPE  H17Y18619   3.740   4.027   8.696  0.2995  0.7274 -1.3103
  165SOPE  C31818620   3.831   4.227   8.717  0.3244 -0.2282 -0.4139
  165SOPE  H18X18621   3.901   4.293   8.771 -2.2465  0.7154  2.0475
  165SOPE  H18Y18622   3.733   4.270   8.748  0.3110  0.3167 -1.1799
  165SOPE  H18Z18623   3.838   4.238   8.606 -0.1688 -2.7210 -0.7667
  166SOPE     N18624   5.104   1.382  10.951  0.2500  0.0831 -0.0284
  166SOPE   HN118625   5.181   1.390  11.021  0.0335  0.9675  0.1217
  166SOPE   HN218626   5.126   1.432  10.862 -0.7053 -3.3805 -2.3914
  166SOPE   HN318627   5.015   1.415  10.994 -1.1861 -1.9268 -1.3198
  166SOPE   C1218628   5.081   1.238  10.934  0.1564  0.2568 -0.2091
  166SOPE  H12A18629   4.984   1.243  10.881 -0.4798  0.6903  0.9522
  166SOPE  H12B18630   5.074   1.184  11.031 -1.7092 -2.2075 -1.6149
  166SOPE   C1118631   5.190   1.162  10.853 -0.3811 -0.6703  0.0450
  166SOPE  H11A18632   5.281   1.177  10.915  0.6202 -0.0658 -1.5073
  166SOPE  H11B18633   5.203   1.199  10.749 -0.1902 -3.1143 -0.8480
  166SOPE     P18634   5.037   0.963  10.782 -0.0908 -0.3216  0.0485
  166SOPE   O1318635   4.922   0.994  10.865 -0.2155  0.5927 -0.0715
  166SOPE   O1418636   5.062   0.817  10.762  0.4526 -0.4324 -0.3380
  166SOPE   O1218637   5.165   1.021  10.845 -0.6035 -0.2902  0.4391
  166SOPE   O1118638   5.029   1.024  10.637 -0.4242  0.2358 -0.0326
  166SOPE    C118639   5.136   0.988  10.544  0.0840  1.0005 -0.1208
  166SOPE    HA18640   5.146   0.878  10.540 -1.5857  0.8552 -1.2262
  166SOPE    HB18641   5.232   1.032  10.578 -0.0891  1.6675 -0.4742
  166SOPE    C218642   5.098   1.033  10.409 -0.3556  0.4710 -0.8061
  166SOPE    HS18643   5.170   0.996  10.333 -0.8007  1.2334 -1.6116
  166SOPE   O2118644   5.098   1.174  10.403  0.2737 -0.9047  0.0904
  166SOPE   C2118645   5.219   1.240  10.402  1.1128  0.2656 -0.4028
  166SOPE   O2218646   5.325   1.185  10.398  0.1382 -0.1865  0.2445
  166SOPE   C2218647   5.205   1.390  10.397  0.9299  0.8960  0.2696
  166SOPE   H2R18648   5.225   1.432  10.498 -1.8094  0.3450  1.1083
  166SOPE   H2S18649   5.103   1.427  10.374 -0.1344 -1.7985  0.3427
  166SOPE    C318650   4.956   0.982  10.369 -0.1057  0.3213 -0.8360
  166SOPE    HX18651   4.885   1.036  10.435 -2.1485 -1.2643 -1.6174
  166SOPE    HY18652   4.957   0.874  10.396  2.4025  1.0219  2.3866
  166SOPE   O3118653   4.930   1.003  10.227 -0.8369  0.5772 -0.1019
  166SOPE   C3118654   4.865   1.107  10.191 -0.3365 -0.5757  0.5901
  166SOPE   O3218655   4.814   1.190  10.267  0.3731 -0.4232  0.5076
  166SOPE   C3218656   4.871   1.120  10.038 -0.0473 -0.0270  0.1337
  166SOPE   H2X18657   4.786   1.060   9.998 -0.0598 -0.7215  1.1758
  166SOPE   H2Y18658   4.970   1.080  10.007 -0.1205 -0.2163  0.1467
  166SOPE   C2318659   5.312   1.451  10.296  0.4390 -0.7470  0.1132
  166SOPE   H3R18660   5.406   1.397  10.318 -0.4555 -1.7924  1.5497
  166SOPE   H3S18661   5.341   1.555  10.321  0.6012 -0.6900 -0.3028
  166SOPE   C2418662   5.267   1.426  10.152  0.3334 -0.3797  0.1889
  166SOPE   H4R18663   5.353   1.453  10.087 -0.2417  2.3676  0.4692
  166SOPE   H4S18664   5.240   1.322  10.124 -0.6904  0.1415 -0.8755
  166SOPE   C2518665   5.158   1.522  10.111 -0.5989 -0.7833 -0.5079
  166SOPE   H5R18666   5.069   1.508  10.176 -0.2966 -1.1595 -0.1727
  166SOPE   H5S18667   5.191   1.626  10.131  0.1829 -1.1420  0.1302
  166SOPE   C2618668   5.122   1.521   9.961 -0.6646 -0.4503 -0.2773
  166SOPE   H6R18669   5.094   1.421   9.921  0.9419 -0.4237 -1.5740
  166SOPE   H6S18670   5.028   1.579   9.945 -0.0623  0.3827 -0.8997
  166SOPE   C2718671   5.236   1.570   9.863  0.3525 -0.1375  0.5601
  166SOPE   H7R18672   5.252   1.674   9.900 -0.0753  0.0422  0.2426
  166SOPE   H7S18673   5.326   1.507   9.877 -0.6821 -1.6542  0.6644
  166SOPE   C2818674   5.202   1.571   9.712  0.5164  0.0021 -0.2255
  166SOPE   H8R18675   5.195   1.465   9.677 -0.3911  0.3604 -1.1716
  166SOPE   H8S18676   5.104   1.621   9.695  0.7571  0.7934  0.6248
  166SOPE   C2918677   5.316   1.642   9.634  0.3605 -0.2999  0.0510
  166SOPE   H9118678   5.357   1.730   9.687 -0.2496  0.6115 -0.9389
  166SOPE  C21018679   5.353   1.629   9.510  0.6907 -0.0731  0.1977
  166SOPE  H10118680   5.416   1.711   9.475 -1.3593  1.0788 -0.9553
  166SOPE  C21118681   5.296   1.533   9.403  0.1094  0.1243 -0.2782
  166SOPE  H11R18682   5.217   1.468   9.445  0.1792 -0.2091 -0.6559
  166SOPE  H11S18683   5.370   1.461   9.361 -0.7001 -2.6505  2.6957
  166SOPE  C21218684   5.246   1.622   9.289 -0.4543  0.1569 -0.0248
  166SOPE  H12R18685   5.172   1.698   9.322  1.5737  1.6252  1.4333
  166SOPE  H12S18686   5.186   1.555   9.224 -2.0158  2.8579 -1.5377
  166SOPE  C21318687   5.355   1.688   9.205  0.0706 -0.5178 -0.4090
  166SOPE  H13R18688   5.440   1.621   9.178 -0.6172 -0.3648 -3.2681
  166SOPE  H13S18689   5.401   1.757   9.280 -0.1291 -1.3860  0.5400
  166SOPE  C21418690   5.310   1.757   9.077 -0.4946 -0.4322 -0.0266
  166SOPE  H14R18691   5.242   1.840   9.105  2.3794  1.9521  0.3712
  166SOPE  H14S18692   5.250   1.687   9.016  0.0666 -1.4629  0.5784
  166SOPE  C21518693   5.425   1.812   8.992  0.1835  0.0030  0.6167
  166SOPE  H15R18694   5.500   1.732   8.974  0.8914  0.9647 -0.8422
  166SOPE  H15S18695   5.478   1.893   9.046  1.3248 -1.3519  1.6058
  166SOPE  C21618696   5.389   1.856   8.855  0.2648 -0.5989 -0.2956
  166SOPE  H16R18697   5.303   1.926   8.866  0.0206 -1.0389  0.6337
  166SOPE  H16S18698   5.362   1.769   8.790  1.2075 -0.3927 -0.9889
  166SOPE  C21718699   5.503   1.928   8.781  0.2378 -0.0110 -0.4456
  166SOPE  H17R18700   5.568   1.850   8.736 -0.3884  0.6018 -2.5231
  166SOPE  H17S18701   5.560   1.997   8.847 -0.6588 -0.5554  0.9734
  166SOPE  C21818702   5.449   2.018   8.672  0.3302 -0.0480 -0.1676
  166SOPE  H18R18703   5.352   2.067   8.693  0.6494 -0.4565  2.6835
  166SOPE  H18S18704   5.432   1.950   8.586  0.2254 -0.7373  0.3823
  166SOPE  H18T18705   5.503   2.113   8.656 -0.5482  1.6263  4.7828
  166SOPE   C3318706   4.850   1.263   9.991 -0.2453 -0.8248  0.4865
  166SOPE   H3X18707   4.925   1.331  10.038 -1.4731 -0.2318  1.6604
  166SOPE   H3Y18708   4.757   1.310  10.028 -1.1288 -2.0835 -0.0999
  166SOPE   C3418709   4.845   1.268   9.840 -0.3235 -0.0232  0.0590
  166SOPE   H4X18710   4.767   1.195   9.808 -0.8484  1.0674 -1.2229
  166SOPE   H4Y18711   4.943   1.232   9.802  0.2728  0.9248  0.6751
  166SOPE   C3518712   4.813   1.403   9.769 -0.6497 -0.2055 -0.8692
  166SOPE   H5X18713   4.896   1.471   9.794  0.9772 -2.2646 -0.3403
  166SOPE   H5Y18714   4.723   1.448   9.815  0.6547  2.0953 -0.4231
  166SOPE   C3618715   4.787   1.404   9.621 -0.2695 -0.2021 -0.1982
  166SOPE   H6X18716   4.729   1.492   9.587 -1.2132 -0.5458  0.4761
  166SOPE   H6Y18717   4.729   1.314   9.590 -2.6283  0.4408  2.0219
  166SOPE   C3718718   4.920   1.406   9.542  0.0919  0.2269 -0.9970
  166SOPE   H7X18719   4.982   1.329   9.594 -0.0786  1.7436  1.6484
  166SOPE   H7Y18720   4.983   1.494   9.566  0.2765  0.2225 -1.4721
  166SOPE   C3818721   4.912   1.380   9.399  0.3751  0.0594  0.0502
  166SOPE   H8X18722   4.867   1.280   9.379  1.6677 -0.8618  1.5057
  166SOPE   H8Y18723   5.019   1.365   9.374  0.3088 -2.1200  0.7984
  166SOPE   C3918724   4.849   1.494   9.324  0.0796  0.1570  0.3488
  166SOPE   H9X18725   4.917   1.582   9.337 -0.2827  0.7282 -1.3492
  166SOPE   H9Y18726   4.744   1.504   9.359  0.0761 -0.9599  0.6879
  166SOPE  C31018727   4.817   1.460   9.181 -0.6052 -0.7471  0.7022
  166SOPE  H10X18728   4.739   1.532   9.146 -0.5872 -0.6072  0.9501
  166SOPE  H10Y18729   4.775   1.359   9.163  0.3437 -0.8441 -1.1786
  166SOPE  C31118730   4.935   1.477   9.087  0.4961  0.1643 -0.4425
  166SOPE  H11X18731   5.028   1.435   9.132  0.1999  0.8892  0.9123
  166SOPE  H11Y18732   4.957   1.585   9.073 -2.0201  0.7360 -0.4615
  166SOPE  C31218733   4.913   1.412   8.949 -0.3622  0.9216  0.0479
  166SOPE  H12X18734   4.962   1.470   8.868 -1.8706 -0.6161 -2.0800
  166SOPE  H12Y18735   4.808   1.428   8.916 -1.1044 -3.5930 -0.3593
  166SOPE  C31318736   4.929   1.254   8.945  0.6769 -1.1849 -0.4140
  166SOPE  H13X18737   4.892   1.211   9.041  1.4294 -1.4778 -0.2452
  166SOPE  H13Y18738   5.034   1.219   8.934 -0.2486 -3.8405 -1.5442
  166SOPE  C31418739   4.841   1.189   8.836 -0.1987 -0.3189 -0.1031
  166SOPE  H14X18740   4.738   1.209   8.872  0.1894 -2.1104  2.2539
  166SOPE  H14Y18741   4.857   1.080   8.843  0.6562 -0.1571  0.7152
  166SOPE  C31518742   4.855   1.249   8.697  0.4715  0.3817  0.1057
  166SOPE  H15X18743   4.964   1.254   8.673  0.8601  2.3117  1.9492
  166SOPE  H15Y18744   4.813   1.351   8.684 -0.2635  0.0036 -0.6352
  166SOPE  C31618745   4.789   1.170   8.581  0.4207  0.3443 -0.6078
  166SOPE  H16X18746   4.682   1.151   8.606  1.0410 -2.6436  0.1754
  166SOPE  H16Y18747   4.833   1.069   8.571  0.1004  0.2777 -1.4642
  166SOPE  C31718748   4.801   1.229   8.438 -0.9988  0.6017 -0.6974
  166SOPE  H17X18749   4.751   1.328   8.445 -0.7937  0.6467  0.3946
  166SOPE  H17Y18750   4.736   1.182   8.362 -0.8908  0.1327 -0.5066
  166SOPE  C31818751   4.942   1.250   8.389 -0.0358  0.2856  0.2635
  166SOPE  H18X18752   4.980   1.152   8.351 -2.2079 -1.6299  2.6799
  166SOPE  H18Y18753   5.011   1.277   8.471 -0.9848  0.6424  0.9609
  166SOPE  H18Z18754   4.947   1.328   8.310 -1.4003  2.4537  2.1859
  167SOPE     N18755   0.883   6.203   6.121  0.0891 -0.1621  0.1114
  167SOPE   HN118756   0.978   6.184   6.160  0.1449 -1.5007 -0.6242
  167SOPE   HN218757   0.898   6.278   6.050  1.0794 -0.2926  0.1647
  167SOPE   HN318758   0.823   6.232   6.201 -0.5613 -2.6827  0.6234
  167SOPE   C1218759   0.842   6.076   6.059 -0.1513 -1.0862 -0.0733
  167SOPE  H12A18760   0.924   6.051   5.988  1.2515  2.3972  0.1450
  167SOPE  H12B18761   0.738   6.084   6.021 -1.4078  0.0815  3.2569
  167SOPE   C1118762   0.849   5.973   6.167 -0.1958  0.5641  0.0534
  167SOPE  H11A18763   0.829   5.880   6.108  2.8874 -0.1615  0.0026
  167SOPE  H11B18764   0.765   6.001   6.234 -1.3682  1.8507 -1.8436
  167SOPE     P18765   1.022   5.829   6.293  0.1366  0.1705  0.0169
  167SOPE   O1318766   1.162   5.853   6.337  0.0155  0.0766 -0.2227
  167SOPE   O1418767   1.001   5.729   6.186 -0.5382 -0.2037  0.4225
  167SOPE   O1218768   0.969   5.974   6.244 -0.9431  0.2084 -0.2142
  167SOPE   O1118769   0.936   5.785   6.414 -0.0579 -0.5201 -0.3716
  167SOPE    C118770   0.799   5.811   6.436  0.2017 -0.1920  0.7468
  167SOPE    HA18771   0.738   5.794   6.345  0.2229 -1.1348  0.9059
  167SOPE    HB18772   0.793   5.913   6.482  1.3364  0.1965  0.0656
  167SOPE    C218773   0.750   5.702   6.536 -0.3656  0.4751 -0.6522
  167SOPE    HS18774   0.641   5.706   6.557  0.0176  0.2932  1.7151
  167SOPE   O2118775   0.814   5.710   6.656 -0.1279 -0.5429 -0.2531
  167SOPE   C2118776   0.758   5.790   6.753 -0.2335 -0.5036  0.3142
  167SOPE   O2218777   0.671   5.871   6.728 -0.1088 -0.2045 -0.2898
  167SOPE   C2218778   0.824   5.774   6.890 -0.0917 -0.0511  0.3132
  167SOPE   H2R18779   0.932   5.754   6.877 -0.5219 -1.7067 -1.0684
  167SOPE   H2S18780   0.783   5.685   6.943 -4.2105 -0.7387 -3.4057
  167SOPE    C318781   0.780   5.550   6.497 -0.1241 -0.5108  0.3775
  167SOPE    HX18782   0.890   5.552   6.487 -0.2130 -0.8270 -0.8938
  167SOPE    HY18783   0.729   5.524   6.401 -0.2451  0.4790  0.1616
  167SOPE   O3118784   0.746   5.450   6.604 -0.3997 -0.4455  0.7989
  167SOPE   C3118785   0.839   5.383   6.665  0.4547 -0.2309  0.5400
  167SOPE   O3218786   0.960   5.405   6.667  0.4953  0.1786 -0.2662
  167SOPE   C3218787   0.766   5.265   6.742  0.8957  0.1440 -0.1969
  167SOPE   H2X18788   0.806   5.169   6.703 -0.7585 -1.7859  2.4882
  167SOPE   H2Y18789   0.658   5.280   6.722  0.5785 -0.2738  1.0780
  167SOPE   C2318790   0.815   5.903   6.965 -0.2912 -0.1188 -0.6681
  167SOPE   H3R18791   0.718   5.904   7.019 -0.2934 -0.0015 -0.6738
  167SOPE   H3S18792   0.819   5.987   6.893  2.8832  0.1131 -0.3941
  167SOPE   C2418793   0.930   5.923   7.066  0.1177  0.5304 -0.7413
  167SOPE   H4R18794   1.025   5.929   7.008 -0.0626 -2.1700 -1.4533
  167SOPE   H4S18795   0.915   6.014   7.128  0.6083 -1.7676  3.1129
  167SOPE   C2518796   0.927   5.810   7.168 -0.0943  0.3946 -0.7685
  167SOPE   H5R18797   0.824   5.798   7.205  1.0367 -0.2350  2.4474
  167SOPE   H5S18798   0.964   5.713   7.128  1.5675  0.3808  0.6979
  167SOPE   C2618799   1.017   5.846   7.284 -0.0139 -0.4124  0.5967
  167SOPE   H6R18800   0.998   5.945   7.330  0.1151  0.1861 -0.5900
  167SOPE   H6S18801   1.002   5.776   7.369  0.2067  0.3943  1.3178
  167SOPE   C2718802   1.165   5.861   7.240 -0.0782  0.6746  0.1840
  167SOPE   H7R18803   1.191   5.776   7.174 -0.2289  1.3335 -0.7513
  167SOPE   H7S18804   1.176   5.949   7.172 -0.1810 -0.6746 -1.6420
  167SOPE   C2818805   1.262   5.873   7.356  0.5897 -0.3555 -0.4562
  167SOPE   H8R18806   1.248   5.793   7.432  3.1116  1.0396  1.6334
  167SOPE   H8S18807   1.357   5.858   7.301  0.6893  0.4307 -0.5072
  167SOPE   C2918808   1.264   6.017   7.408 -0.0752 -0.1734 -0.0257
  167SOPE   H9118809   1.306   6.090   7.337  1.3610 -1.0078 -0.0534
  167SOPE  C21018810   1.217   6.070   7.521  0.1658 -1.0447  0.0186
  167SOPE  H10118811   1.228   6.177   7.541 -1.0140 -0.7232 -0.9325
  167SOPE  C21118812   1.143   5.993   7.621 -0.0894 -0.2145  0.0181
  167SOPE  H11R18813   1.172   5.886   7.614  0.7531  0.0441 -0.6340
  167SOPE  H11S18814   1.034   6.002   7.605 -0.1703  0.7926  1.0331
  167SOPE  C21218815   1.158   6.022   7.772  0.0195  0.0078 -0.4158
  167SOPE  H12R18816   1.267   6.002   7.787  0.2058  0.0637 -1.5523
  167SOPE  H12S18817   1.082   5.959   7.823 -1.5707  2.2420  0.0689
  167SOPE  C21318818   1.140   6.175   7.811  0.7209  0.3235 -0.1333
  167SOPE  H13R18819   1.034   6.196   7.783 -0.7990 -2.1918  3.0889
  167SOPE  H13S18820   1.206   6.226   7.737  0.6706 -0.2069 -0.5518
  167SOPE  C21418821   1.188   6.205   7.951  0.2516 -0.2329 -0.9841
  167SOPE  H14R18822   1.286   6.154   7.962 -0.0471 -0.4671  1.2589
  167SOPE  H14S18823   1.118   6.164   8.027 -1.1192  0.5963 -1.7674
  167SOPE  C21518824   1.217   6.355   7.972 -0.3240  0.0312 -0.0554
  167SOPE  H15R18825   1.120   6.408   7.965 -1.5242 -1.8221  1.5098
  167SOPE  H15S18826   1.287   6.407   7.903  0.7344  0.2796  1.1627
  167SOPE  C21618827   1.288   6.371   8.117  0.3006 -0.8228  0.0859
  167SOPE  H16R18828   1.246   6.296   8.187  0.7071 -2.3776 -1.2768
  167SOPE  H16S18829   1.256   6.472   8.152  2.3832 -0.1792  0.2769
  167SOPE  C21718830   1.436   6.369   8.104 -0.0946 -0.4333  0.1976
  167SOPE  H17R18831   1.484   6.424   8.021  2.4982  0.5547  2.2293
  167SOPE  H17S18832   1.455   6.262   8.083 -1.8169 -0.9342  0.9322
  167SOPE  C21818833   1.496   6.404   8.236 -0.4591 -0.4861 -0.0464
  167SOPE  H18R18834   1.604   6.380   8.242  0.2581  2.7942  3.3770
  167SOPE  H18S18835   1.450   6.353   8.323 -0.4026 -0.0751  0.2244
  167SOPE  H18T18836   1.485   6.514   8.240 -0.6059 -0.2639 -3.3666
  167SOPE   C3318837   0.791   5.259   6.896 -0.2812  0.8591  0.3872
  167SOPE   H3X18838   0.901   5.255   6.907  0.4195 -1.2498 -4.5091
  167SOPE   H3Y18839   0.749   5.164   6.938  0.3659 -0.0519 -0.9513
  167SOPE   C3418840   0.730   5.366   6.982  0.4157 -0.7018 -0.7669
  167SOPE   H4X18841   0.621   5.377   6.960  0.4797  1.1085 -0.3218
  167SOPE   H4Y18842   0.764   5.463   6.939 -0.5099 -1.3130 -3.0382
  167SOPE   C3518843   0.751   5.338   7.131  1.3077  0.2050  0.0194
  167SOPE   H5X18844   0.757   5.228   7.147 -1.3423  0.0132  0.0380
  167SOPE   H5Y18845   0.657   5.366   7.183 -0.6481 -1.5147 -2.3693
  167SOPE   C3618846   0.871   5.400   7.192 -0.7608 -0.1354 -0.0372
  167SOPE   H6X18847   0.863   5.509   7.170 -0.1581  0.0435  0.6209
  167SOPE   H6Y18848   0.966   5.364   7.148  0.4349  2.4772  0.2015
  167SOPE   C3718849   0.877   5.382   7.343 -0.6208 -0.0635  0.1528
  167SOPE   H7X18850   0.889   5.275   7.370  1.2855  0.1705  0.3696
  167SOPE   H7Y18851   0.776   5.416   7.375 -0.9683 -1.8554  1.0949
  167SOPE   C3818852   0.974   5.476   7.415  0.7202 -0.4761 -0.1345
  167SOPE   H8X18853   0.945   5.582   7.394 -0.3214 -0.7447 -0.1243
  167SOPE   H8Y18854   1.075   5.468   7.371 -0.0548  0.1144 -2.1120
  167SOPE   C3918855   0.974   5.460   7.565 -0.5133 -0.0462 -0.0504
  167SOPE   H9X18856   1.006   5.356   7.585  1.6212  1.0460  2.9516
  167SOPE   H9Y18857   0.873   5.482   7.605  0.8437  1.3327  2.9740
  167SOPE  C31018858   1.080   5.558   7.622 -0.3150  0.0594  0.6355
  167SOPE  H10X18859   1.071   5.653   7.566  2.4535 -0.1229 -0.2963
  167SOPE  H10Y18860   1.178   5.517   7.587 -1.0032 -0.0264 -1.3136
  167SOPE  C31118861   1.086   5.585   7.773  1.2098  0.7828  0.0292
  167SOPE  H11X18862   0.980   5.607   7.797  0.5114 -2.0947 -0.0442
  167SOPE  H11Y18863   1.154   5.670   7.794  0.3957  1.8419 -1.4565
  167SOPE  C31218864   1.139   5.458   7.846  0.0497 -0.2684  0.0986
  167SOPE  H12X18865   1.249   5.468   7.836 -0.1865  1.9869 -0.7698
  167SOPE  H12Y18866   1.104   5.365   7.796 -0.3734 -2.3229  3.8458
  167SOPE  C31318867   1.108   5.448   7.992 -0.3951  0.1882 -0.3838
  167SOPE  H13X18868   1.142   5.541   8.042  1.7898  0.5927 -2.4217
  167SOPE  H13Y18869   1.160   5.359   8.033  0.1358  0.1206 -1.1794
  167SOPE  C31418870   0.958   5.435   8.020 -0.4555 -0.0776 -0.5086
  167SOPE  H14X18871   0.915   5.345   7.972  1.9915 -0.7716 -1.5460
  167SOPE  H14Y18872   0.903   5.518   7.971 -1.8962 -0.3134  0.6395
  167SOPE  C31518873   0.925   5.451   8.168 -0.2460 -0.0353 -0.4587
  167SOPE  H15X18874   0.849   5.532   8.175 -0.2551  0.1279 -2.0474
  167SOPE  H15Y18875   1.009   5.494   8.227 -2.3870  2.0980  1.1905
  167SOPE  C31618876   0.880   5.320   8.240 -0.0760  0.0453  1.8666
  167SOPE  H16X18877   0.952   5.238   8.220 -1.2680 -0.4429 -0.9818
  167SOPE  H16Y18878   0.786   5.278   8.198  0.2068  2.0373 -1.0983
  167SOPE  C31718879   0.873   5.345   8.393 -0.5374  0.0051  0.1687
  167SOPE  H17X18880   0.802   5.428   8.413 -0.9793 -0.1623 -0.6542
  167SOPE  H17Y18881   0.975   5.381   8.416 -0.7194  0.1309  0.8000
  167SOPE  C31818882   0.827   5.221   8.472  0.0739  0.2253 -0.5423
  167SOPE  H18X18883   0.834   5.226   8.583  1.3512 -4.1578 -0.2071
  167SOPE  H18Y18884   0.889   5.134   8.443 -0.5778 -0.1160 -0.9359
  167SOPE  H18Z18885   0.720   5.206   8.445 -0.4580  2.1308  0.3794
  168SOPE     N18886   0.878   3.910   5.930  0.2699 -0.0026  0.0174
  168SOPE   HN118887   0.789   3.947   5.892  1.1568  1.1577 -1.0378
  168SOPE   HN218888   0.951   3.937   5.860 -0.1198 -0.7891 -0.7109
  168SOPE   HN318889   0.850   3.811   5.944  1.0036 -0.2697 -0.3465
  168SOPE   C1218890   0.900   3.992   6.057  0.6700 -0.0559 -0.8368
  168SOPE  H12A18891   0.879   4.100   6.045 -0.4000 -0.3039 -1.3558
  168SOPE  H12B18892   1.006   3.982   6.089  0.4692 -0.1492 -0.1844
  168SOPE   C1118893   0.811   3.929   6.167 -0.2089  0.2438  0.6917
  168SOPE  H11A18894   0.706   3.956   6.145 -0.3045 -0.3662  0.3654
  168SOPE  H11B18895   0.831   3.973   6.267  1.0706  0.5119  0.3463
  168SOPE     P18896   0.752   3.686   6.269 -0.0714  0.3980  0.0041
  168SOPE   O1318897   0.856   3.637   6.358 -0.0430 -0.2098 -0.7789
  168SOPE   O1418898   0.688   3.569   6.207 -0.2997 -0.4370  0.0196
  168SOPE   O1218899   0.813   3.785   6.162  0.3614 -0.4413 -0.3618
  168SOPE   O1118900   0.651   3.776   6.347  0.5318 -0.3242 -0.2659
  168SOPE    C118901   0.691   3.834   6.467 -0.4208 -0.2619 -1.0060
  168SOPE    HA18902   0.642   3.934   6.477 -0.2927 -0.0718 -2.1799
  168SOPE    HB18903   0.800   3.851   6.462 -0.4164 -0.6988 -3.3852
  168SOPE    C218904   0.663   3.753   6.593  0.1679 -0.4260  0.1844
  168SOPE    HS18905   0.685   3.646   6.571  0.0489 -0.3812 -0.1631
  168SOPE   O2118906   0.522   3.775   6.621 -0.3439  0.5250 -0.1510
  168SOPE   C2118907   0.444   3.664   6.616  0.0047  0.5002  0.6484
  168SOPE   O2218908   0.486   3.552   6.586  0.6784 -0.8083 -0.0475
  168SOPE   C2218909   0.306   3.701   6.661  0.0422  0.2354 -0.2023
  168SOPE   H2R18910   0.260   3.755   6.576  0.5346  0.6381 -0.2209
  168SOPE   H2S18911   0.315   3.785   6.733  2.4019 -0.2255  0.1349
  168SOPE    C318912   0.754   3.788   6.711 -0.9031  0.0770 -0.4851
  168SOPE    HX18913   0.708   3.887   6.729 -2.7227 -1.0694  1.7384
  168SOPE    HY18914   0.864   3.797   6.697 -0.6362 -0.6286  0.9660
  168SOPE   O3118915   0.720   3.703   6.824  0.3866 -0.0685  0.2319
  168SOPE   C3118916   0.778   3.581   6.821 -0.7288 -0.9260 -0.3706
  168SOPE   O3218917   0.878   3.552   6.756  0.1068 -0.4297  0.7977
  168SOPE   C3218918   0.716   3.496   6.926 -0.5033  0.4674  0.4254
  168SOPE   H2X18919   0.772   3.401   6.923 -0.6063  0.3333  1.8763
  168SOPE   H2Y18920   0.610   3.464   6.910 -0.3833 -0.3339  1.1654
  168SOPE   C2318921   0.223   3.583   6.710  0.2125  0.7670  0.7753
  168SOPE   H3R18922   0.211   3.516   6.623  1.2099  0.6283  0.7236
  168SOPE   H3S18923   0.120   3.623   6.720 -0.2250 -0.3222  0.7601
  168SOPE   C2418924   0.264   3.503   6.832 -0.1001  0.1348  0.1237
  168SOPE   H4R18925   0.189   3.422   6.844  0.8869 -0.7599  0.4515
  168SOPE   H4S18926   0.358   3.444   6.829 -0.0569  0.1481  0.9305
  168SOPE   C2518927   0.259   3.588   6.960  0.3272 -0.4114  0.5911
  168SOPE   H5R18928   0.338   3.667   6.961  0.7792 -0.6958 -2.3822
  168SOPE   H5S18929   0.161   3.640   6.960  0.0477 -0.9250 -0.0859
  168SOPE   C2618930   0.272   3.501   7.082  0.4013  0.3043 -0.1670
  168SOPE   H6R18931   0.230   3.399   7.071  0.9145 -0.0806  1.2614
  168SOPE   H6S18932   0.378   3.481   7.107  0.2924 -0.8858 -0.6009
  168SOPE   C2718933   0.213   3.572   7.206  0.1251  0.5239 -0.5378
  168SOPE   H7R18934   0.228   3.680   7.184 -0.9722  0.8031 -0.0356
  168SOPE   H7S18935   0.110   3.538   7.233  1.0265 -0.7862  1.5544
  168SOPE   C2818936   0.287   3.535   7.331 -0.9148 -0.2619 -0.2126
  168SOPE   H8R18937   0.396   3.539   7.308 -0.8795 -2.5112 -0.5796
  168SOPE   H8S18938   0.258   3.615   7.402 -0.2059  0.9004 -1.1875
  168SOPE   C2918939   0.267   3.395   7.383  0.1918  0.2607  0.1722
  168SOPE   H9118940   0.289   3.325   7.302  1.8396 -1.5707  2.0721
  168SOPE  C21018941   0.213   3.353   7.504  0.2079  0.0636  0.1938
  168SOPE  H10118942   0.205   3.247   7.532 -2.4389 -0.1332 -1.0003
  168SOPE  C21118943   0.168   3.446   7.615  0.4961 -0.0214  0.3264
  168SOPE  H11R18944   0.057   3.441   7.617  0.4419  0.8461  2.2320
  168SOPE  H11S18945   0.194   3.552   7.593 -0.4520  0.1374 -0.0989
  168SOPE  C21218946   0.229   3.415   7.750  0.2939  0.0946 -0.3937
  168SOPE  H12R18947   0.338   3.435   7.745  0.0057  1.9199 -0.1486
  168SOPE  H12S18948   0.198   3.309   7.758 -1.6906  0.5790 -1.1654
  168SOPE  C21318949   0.165   3.501   7.861 -0.0205 -0.6892 -0.4436
  168SOPE  H13R18950   0.056   3.487   7.871 -0.0113 -0.5312 -0.0788
  168SOPE  H13S18951   0.191   3.609   7.855  0.4337 -0.4677  2.9755
  168SOPE  C21418952   0.228   3.466   8.002 -0.2002  0.9028 -0.5302
  168SOPE  H14R18953   0.339   3.466   7.999 -0.0856  0.5726  2.0304
  168SOPE  H14S18954   0.193   3.366   8.037  0.4630  1.4322  1.7924
  168SOPE  C21518955   0.183   3.562   8.109  0.1187  0.8361  0.3424
  168SOPE  H15R18956   0.074   3.582   8.102  0.5706  2.8109 -3.6513
  168SOPE  H15S18957   0.226   3.660   8.078 -3.4932  2.2132 -0.8105
  168SOPE  C21618958   0.234   3.524   8.249 -0.5845 -0.2527 -0.0510
  168SOPE  H16R18959   0.344   3.529   8.255 -0.5761 -0.7162  0.2834
  168SOPE  H16S18960   0.229   3.414   8.266  2.7039 -0.3575  0.7853
  168SOPE  C21718961   0.158   3.594   8.366 -0.3699  0.0672  0.6656
  168SOPE  H17R18962   0.048   3.578   8.371 -0.0664 -2.1039  3.1035
  168SOPE  H17S18963   0.174   3.702   8.349 -0.3825  0.0294  0.4199
  168SOPE  C21818964   0.203   3.552   8.508  0.1091 -0.1414  0.0437
  168SOPE  H18R18965   0.309   3.578   8.528  0.1102 -1.2607  1.7180
  168SOPE  H18S18966   0.190   3.443   8.525  1.9246 -0.4308 -0.2353
  168SOPE  H18T18967   0.146   3.603   8.588 -0.7607 -0.5402 -0.2977
  168SOPE   C3318968   0.729   3.565   7.065 -0.1187 -0.0953  0.0621
  168SOPE   H3X18969   0.657   3.649   7.078  0.0187 -0.2822  2.4838
  168SOPE   H3Y18970   0.835   3.597   7.077 -0.9642  2.4475  1.4364
  168SOPE   C3418971   0.685   3.475   7.179  0.2762  0.9429  0.3297
  168SOPE   H4X18972   0.715   3.369   7.165 -2.0357  0.5165 -2.3156
  168SOPE   H4Y18973   0.575   3.462   7.167  0.5831  0.0790 -1.9131
  168SOPE   C3518974   0.733   3.534   7.311 -0.1474  0.1790 -0.8073
  168SOPE   H5X18975   0.682   3.632   7.317  1.1460  0.7715  2.0741
  168SOPE   H5Y18976   0.840   3.560   7.297  0.0291  0.6170  1.0949
  168SOPE   C3618977   0.698   3.461   7.434  0.0725 -0.0710 -0.9275
  168SOPE   H6X18978   0.771   3.377   7.430 -2.3241 -2.2906 -0.4292
  168SOPE   H6Y18979   0.603   3.405   7.445  0.5591 -0.4796  2.3923
  168SOPE   C3718980   0.729   3.548   7.560 -0.1200  0.2555  0.4079
  168SOPE   H7X18981   0.663   3.636   7.544  0.5547  0.9001  1.0529
  168SOPE   H7Y18982   0.838   3.572   7.559  0.0033  0.2650  3.4356
  168SOPE   C3818983   0.700   3.479   7.695 -0.1109  0.2279  0.2183
  168SOPE   H8X18984   0.743   3.377   7.685 -1.4486 -0.8444  3.9354
  168SOPE   H8Y18985   0.589   3.472   7.690 -0.2645  2.4740 -1.7748
  168SOPE   C3918986   0.727   3.553   7.824  0.1067 -0.7228 -0.2562
  168SOPE   H9X18987   0.668   3.647   7.819  0.0273 -0.8300 -1.7670
  168SOPE   H9Y18988   0.830   3.595   7.815 -0.2622  0.4125  0.5687
  168SOPE  C31018989   0.702   3.485   7.956 -0.2954  0.1609  0.0515
  168SOPE  H10X18990   0.730   3.378   7.956  4.0296  1.1232  0.8878
  168SOPE  H10Y18991   0.593   3.492   7.980 -0.0576  1.1668  0.8960
  168SOPE  C31118992   0.782   3.549   8.068 -0.3507  0.0950  0.3029
  168SOPE  H11X18993   0.748   3.655   8.074 -2.1995 -0.3410 -1.2837
  168SOPE  H11Y18994   0.892   3.541   8.058 -0.2745  0.4829  0.8147
  168SOPE  C31218995   0.751   3.486   8.203 -0.5317 -0.1322 -0.3771
  168SOPE  H12X18996   0.791   3.382   8.204  1.4476  0.5717 -0.9567
  168SOPE  H12Y18997   0.640   3.484   8.200 -0.7080  3.5910 -2.8191
  168SOPE  C31318998   0.830   3.546   8.315  0.6755  0.0909 -0.4100
  168SOPE  H13X18999   0.812   3.655   8.322  0.9788  0.0252  2.4671
  168SOPE  H13Y19000   0.934   3.508   8.307  0.9642 -0.6674  4.1717
  168SOPE  C31419001   0.767   3.491   8.444  0.1148 -0.5053  0.3034
  168SOPE  H14X19002   0.797   3.384   8.447 -0.6676 -0.7501 -0.4195
  168SOPE  H14Y19003   0.656   3.498   8.440  0.0943  2.1265  2.3324
  168SOPE  C31519004   0.820   3.557   8.570 -0.1997 -0.5300  0.6321
  168SOPE  H15X19005   0.853   3.660   8.547  3.2603 -1.5789  0.3469
  168SOPE  H15Y19006   0.906   3.498   8.609 -1.2303 -1.0496  2.2203
  168SOPE  C31619007   0.708   3.565   8.678 -1.4778 -0.1966 -0.1233
  168SOPE  H16X19008   0.760   3.580   8.775  1.0456  0.2868 -1.4606
  168SOPE  H16Y19009   0.665   3.462   8.683 -1.6554 -0.0963  0.6155
  168SOPE  C31719010   0.598   3.667   8.655 -0.2423 -0.5962  0.1986
  168SOPE  H17X19011   0.527   3.639   8.574  1.1750 -1.5139 -0.7770
  168SOPE  H17Y19012   0.633   3.769   8.628 -1.8907 -0.1280 -0.3167
  168SOPE  C31819013   0.513   3.671   8.780  0.6496 -0.1747 -0.6000
  168SOPE  H18X19014   0.486   3.570   8.817  1.9495 -0.0881  0.6678
  168SOPE  H18Y19015   0.419   3.728   8.762  0.3090 -0.2368  0.8885
  168SOPE  H18Z19016   0.572   3.713   8.864 -1.0718 -1.2547  1.2440
  169SOPE     N19017   0.865   4.589   6.323 -0.4109 -0.2242  0.1374
  169SOPE   HN119018   0.893   4.611   6.225  2.0492 -2.1270  0.3205
  169SOPE   HN219019   0.922   4.508   6.354  1.5519  0.8435 -0.5378
  169SOPE   HN319020   0.766   4.556   6.323  0.5535 -3.5601 -1.3661
  169SOPE   C1219021   0.897   4.708   6.406 -0.2554 -0.4387 -0.1647
  169SOPE  H12A19022   1.000   4.743   6.385  0.9627 -3.1720  0.8668
  169SOPE  H12B19023   0.887   4.682   6.514 -3.3049 -3.4063 -0.9973
  169SOPE   C1119024   0.801   4.817   6.377  0.5877 -0.0276 -1.0951
  169SOPE  H11A19025   0.820   4.871   6.282  1.6769 -0.9627 -1.4298
  169SOPE  H11B19026   0.814   4.895   6.455 -1.5556  0.5801 -1.2866
  169SOPE     P19027   0.553   4.885   6.395 -0.2117  0.2517 -0.1928
  169SOPE   O1319028   0.417   4.827   6.418 -0.4130 -0.0039 -0.2470
  169SOPE   O1419029   0.565   4.964   6.273 -0.1185  0.2658  0.5521
  169SOPE   O1219030   0.664   4.776   6.394  0.0935  0.0413 -0.6852
  169SOPE   O1119031   0.590   4.974   6.523 -0.2711  0.1041  0.4018
  169SOPE    C119032   0.529   4.959   6.652 -0.7585  0.4912 -0.3948
  169SOPE    HA19033   0.595   4.999   6.731 -3.1140  2.8451  0.5495
  169SOPE    HB19034   0.509   4.851   6.671 -0.5127  0.8073  1.8793
  169SOPE    C219035   0.399   5.030   6.661  0.1215  0.0460  0.5278
  169SOPE    HS19036   0.331   5.008   6.575 -0.4113  0.4162  0.8486
  169SOPE   O2119037   0.432   5.173   6.662  0.4051 -0.2563 -0.5365
  169SOPE   C2119038   0.351   5.254   6.601  0.3863  0.0065  0.0604
  169SOPE   O2219039   0.255   5.223   6.532  0.7257 -0.4879 -0.3491
  169SOPE   C2219040   0.389   5.392   6.646 -0.3856 -0.1885 -0.1368
  169SOPE   H2R19041   0.435   5.437   6.555  2.1560 -0.5778  0.8812
  169SOPE   H2S19042   0.471   5.384   6.720  0.7322 -1.6578 -1.4573
  169SOPE    C319043   0.323   4.992   6.786 -0.0492  0.4751 -0.0688
  169SOPE    HX19044   0.275   4.891   6.781  0.0068  0.3337  1.5899
  169SOPE    HY19045   0.233   5.055   6.803 -1.1657 -0.8776 -0.7265
  169SOPE   O3119046   0.416   4.970   6.898 -0.6143  0.4218 -0.1338
  169SOPE   C3119047   0.410   5.058   6.999  0.4205  0.0940  0.3529
  169SOPE   O3219048   0.341   5.156   7.006 -0.1276 -0.0430  0.5571
  169SOPE   C3219049   0.496   5.005   7.115  0.1488 -0.1024 -0.5159
  169SOPE   H2X19050   0.598   5.019   7.073 -0.5316  0.4282 -2.0429
  169SOPE   H2Y19051   0.475   4.904   7.158  0.3016  0.7099  1.6128
  169SOPE   C2319052   0.261   5.465   6.683 -0.5315 -0.6839  0.5682
  169SOPE   H3R19053   0.197   5.407   6.752 -0.1666  0.4927  1.9482
  169SOPE   H3S19054   0.206   5.481   6.588  0.4169 -0.2024  0.0762
  169SOPE   C2419055   0.296   5.601   6.750 -0.6272 -0.1370  0.1153
  169SOPE   H4R19056   0.370   5.659   6.690 -1.0585  2.0767  1.6101
  169SOPE   H4S19057   0.198   5.651   6.742 -0.0467  0.8436 -1.3216
  169SOPE   C2519058   0.345   5.588   6.893  0.2239  0.6360  0.5095
  169SOPE   H5R19059   0.272   5.536   6.959  1.7915 -0.9951  1.0439
  169SOPE   H5S19060   0.431   5.518   6.900 -1.0067 -0.9506  0.1226
  169SOPE   C2619061   0.389   5.712   6.971 -0.3970 -0.1725 -0.1891
  169SOPE   H6R19062   0.498   5.731   6.958 -0.2454 -1.7724 -1.6292
  169SOPE   H6S19063   0.335   5.798   6.925  1.6673  0.5089 -1.4737
  169SOPE   C2719064   0.353   5.703   7.122  0.4984 -0.6374 -0.4963
  169SOPE   H7R19065   0.349   5.809   7.157 -0.2721 -0.2572 -1.6813
  169SOPE   H7S19066   0.249   5.666   7.130 -0.0913  0.7092 -1.5759
  169SOPE   C2819067   0.462   5.625   7.188 -0.8016 -0.3707  0.0198
  169SOPE   H8R19068   0.463   5.521   7.148  2.4196 -0.5311  0.2645
  169SOPE   H8S19069   0.564   5.659   7.161  0.5685 -2.5116  2.0586
  169SOPE   C2919070   0.447   5.605   7.333 -0.6715  0.8010  0.3878
  169SOPE   H9119071   0.368   5.535   7.364  0.1204  0.4480  1.6495
  169SOPE  C21019072   0.517   5.668   7.428  0.9378 -0.0695 -0.4555
  169SOPE  H10119073   0.505   5.626   7.529 -3.5878 -0.5470 -0.9896
  169SOPE  C21119074   0.612   5.782   7.414  0.0936 -0.0768  0.3932
  169SOPE  H11R19075   0.595   5.849   7.327  1.2173 -0.9396 -0.5140
  169SOPE  H11S19076   0.712   5.736   7.399 -0.3749 -1.9990  2.5754
  169SOPE  C21219077   0.602   5.865   7.545  0.1794 -0.4731  0.7361
  169SOPE  H12R19078   0.612   5.793   7.630 -2.3061 -0.0456  1.4788
  169SOPE  H12S19079   0.505   5.919   7.554  1.2882  1.8756 -0.6216
  169SOPE  C21319080   0.717   5.962   7.552 -0.8535 -0.6661  0.3727
  169SOPE  H13R19081   0.709   6.025   7.462 -1.1948  0.3723  1.1116
  169SOPE  H13S19082   0.807   5.898   7.543 -0.8568 -0.9077  1.7788
  169SOPE  C21419083   0.723   6.046   7.676  0.2763 -0.5670 -0.4355
  169SOPE  H14R19084   0.636   6.114   7.688  2.6278  2.9502 -1.5853
  169SOPE  H14S19085   0.796   6.129   7.660 -2.3528  1.9227 -0.4451
  169SOPE  C21519086   0.767   5.974   7.804  0.4458 -0.2562 -0.4952
  169SOPE  H15R19087   0.871   5.938   7.792  0.6353 -0.2419  0.9387
  169SOPE  H15S19088   0.702   5.887   7.826 -0.7392  0.6472 -0.2955
  169SOPE  C21619089   0.776   6.061   7.930 -0.7446 -0.2122  0.0874
  169SOPE  H16R19090   0.692   6.132   7.923 -2.9543 -2.7541 -0.8605
  169SOPE  H16S19091   0.877   6.108   7.936 -0.4759 -0.7035 -0.4372
  169SOPE  C21719092   0.747   5.979   8.056 -0.1099  0.5060  0.6001
  169SOPE  H17R19093   0.642   5.945   8.049 -0.3934  1.6489 -2.7420
  169SOPE  H17S19094   0.749   6.049   8.142  0.3031  1.0281  0.1767
  169SOPE  C21819095   0.846   5.866   8.069 -0.1913  0.2078  0.0634
  169SOPE  H18R19096   0.818   5.794   8.149  1.4534 -1.0850 -0.4700
  169SOPE  H18S19097   0.950   5.896   8.096 -0.8799  2.0673  0.7899
  169SOPE  H18T19098   0.855   5.804   7.978 -2.3311  0.9911 -0.7421
  169SOPE   C3319099   0.498   5.092   7.246 -0.1256 -0.3678  0.2729
  169SOPE   H3X19100   0.489   5.201   7.227 -1.3155 -0.6807 -1.1597
  169SOPE   H3Y19101   0.597   5.068   7.291 -1.1297 -1.1731  2.1769
  169SOPE   C3419102   0.387   5.050   7.344  0.0709  0.4948 -0.6925
  169SOPE   H4X19103   0.397   4.942   7.367 -0.3497  0.9911  2.1907
  169SOPE   H4Y19104   0.279   5.056   7.317 -0.6454 -0.4314  1.7575
  169SOPE   C3519105   0.400   5.122   7.477 -0.3232  0.0891 -0.2891
  169SOPE   H5X19106   0.453   5.220   7.465  1.7659 -0.9767 -0.2886
  169SOPE   H5Y19107   0.473   5.062   7.534  0.6224 -0.7598 -2.2872
  169SOPE   C3619108   0.272   5.144   7.549  0.7460  0.2788 -0.0832
  169SOPE   H6X19109   0.292   5.161   7.656  1.3683 -0.1970 -0.1207
  169SOPE   H6Y19110   0.227   5.042   7.546 -0.4355  0.7959 -1.5095
  169SOPE   C3719111   0.182   5.259   7.497 -0.5003  0.6396  0.0545
  169SOPE   H7X19112   0.169   5.253   7.387 -2.2519  2.6650  0.0834
  169SOPE   H7Y19113   0.249   5.343   7.527  0.4132  0.7086 -2.0028
  169SOPE   C3819114   0.040   5.287   7.557 -0.4677  0.1008  0.1105
  169SOPE   H8X19115   0.015   5.375   7.494 -0.8082 -0.4399 -0.5320
  169SOPE   H8Y19116  -0.032   5.205   7.534 -2.4165  1.8898 -0.4563
  169SOPE   C3919117   0.029   5.323   7.704 -0.1757  0.8589 -0.7053
  169SOPE   H9X19118   0.106   5.398   7.732 -1.4305  0.9288  3.1011
  169SOPE   H9Y19119   0.057   5.239   7.771  2.3775  0.5515 -1.9907
  169SOPE  C31019120  -0.117   5.373   7.749 -0.9302  0.0203  0.2719
  169SOPE  H10X19121  -0.156   5.269   7.758  3.3631 -1.8212  0.0844
  169SOPE  H10Y19122  -0.154   5.428   7.660  1.5611  0.8434 -0.3431
  169SOPE  C31119123  -0.103   5.463   7.867  0.2810  0.0712 -0.7244
  169SOPE  H11X19124  -0.205   5.502   7.891  0.7010 -0.5448  2.6813
  169SOPE  H11Y19125  -0.042   5.551   7.836  0.3284 -0.0620 -1.0048
  169SOPE  C31219126  -0.062   5.402   7.998 -0.7058  0.7567  0.0695
  169SOPE  H12X19127   0.032   5.345   7.984 -3.0648 -2.9771 -2.3813
  169SOPE  H12Y19128  -0.130   5.318   8.026  1.5097 -0.6228  1.6233
  169SOPE  C31319129  -0.056   5.497   8.113  0.3244 -0.1950 -0.5479
  169SOPE  H13X19130  -0.150   5.554   8.113 -0.0097 -0.6229  1.9831
  169SOPE  H13Y19131   0.033   5.564   8.106  0.4265 -0.5075 -3.0499
  169SOPE  C31419132  -0.019   5.428   8.249  0.0366  0.0831 -0.3855
  169SOPE  H14X19133   0.073   5.366   8.246  0.6018  0.5402  3.0428
  169SOPE  H14Y19134  -0.100   5.361   8.286 -0.8466  1.5152  0.3723
  169SOPE  C31519135   0.013   5.545   8.348  0.2066 -0.2058  0.4301
  169SOPE  H15X19136  -0.078   5.607   8.361  0.1932 -0.2100  0.3564
  169SOPE  H15Y19137   0.088   5.610   8.298 -0.1826 -1.4019 -1.8872
  169SOPE  C31619138   0.067   5.492   8.485  0.1020 -0.7229  0.2007
  169SOPE  H16X19139   0.169   5.450   8.480  1.0186  1.2564  1.0127
  169SOPE  H16Y19140  -0.007   5.417   8.520  0.2751 -0.6230  0.7980
  169SOPE  C31719141   0.082   5.609   8.588  0.0177 -0.7276 -0.4749
  169SOPE  H17X19142  -0.023   5.643   8.605  0.4471  0.1822  0.4882
  169SOPE  H17Y19143   0.138   5.688   8.534 -1.0262  0.1492 -0.3260
  169SOPE  C31819144   0.150   5.561   8.718  0.4375 -0.0959 -0.3782
  169SOPE  H18X19145   0.140   5.635   8.800  2.2279 -0.1462 -0.0741
  169SOPE  H18Y19146   0.256   5.529   8.708  0.2706 -0.7948 -0.0172
  169SOPE  H18Z19147   0.103   5.473   8.767 -0.2872  0.6909  0.3913
  170SOPE     N19148   2.607   3.182   6.377  0.8839  0.0981  0.0196
  170SOPE   HN119149   2.657   3.239   6.448  1.0503 -0.5446  0.4233
  170SOPE   HN219150   2.562   3.244   6.306  0.8260  0.5223  0.4215
  170SOPE   HN319151   2.531   3.131   6.425  1.1320 -0.6649 -0.3764
  170SOPE   C1219152   2.697   3.091   6.299 -0.5645  0.1705 -0.1514
  170SOPE  H12A19153   2.756   3.154   6.229 -0.7598  3.1756  2.1878
  170SOPE  H12B19154   2.632   3.022   6.242 -0.0388  0.0572 -0.6257
  170SOPE   C1119155   2.777   3.005   6.401 -0.8513  0.0138  0.8087
  170SOPE  H11A19156   2.702   2.967   6.473 -1.5647  1.2786  0.7564
  170SOPE  H11B19157   2.849   3.074   6.449  1.5247 -1.3161 -0.6321
  170SOPE     P19158   2.988   2.924   6.252  0.2778  0.1898 -0.7790
  170SOPE   O1319159   2.945   2.990   6.119  0.7156  0.3779  0.7590
  170SOPE   O1419160   3.058   2.794   6.232  0.6125  0.5423 -0.4307
  170SOPE   O1219161   2.855   2.902   6.341  0.1632  0.5624  1.0263
  170SOPE   O1119162   3.069   3.022   6.342  0.3095 -0.4414 -0.2671
  170SOPE    C119163   3.192   2.991   6.402  0.8199  0.0337  0.5277
  170SOPE    HA19164   3.239   3.090   6.421 -1.4735  1.2067  0.4677
  170SOPE    HB19165   3.264   2.933   6.340 -0.1185 -1.6042  0.9134
  170SOPE    C219166   3.173   2.901   6.525 -0.3076 -0.2451  0.4609
  170SOPE    HS19167   3.150   2.802   6.481 -0.1912  0.5055 -1.3864
  170SOPE   O2119168   3.065   2.958   6.600 -0.5589 -0.2545 -0.1329
  170SOPE   C2119169   3.004   2.870   6.673  0.2516 -0.6524  0.0446
  170SOPE   O2219170   3.029   2.754   6.682 -0.0007 -0.0976 -0.0943
  170SOPE   C2219171   2.893   2.945   6.745 -0.1218 -0.2895 -0.0338
  170SOPE   H2R19172   2.835   3.009   6.676 -1.6216 -0.1669  1.2845
  170SOPE   H2S19173   2.929   3.015   6.823  0.2123  0.8702 -1.1943
  170SOPE    C319174   3.309   2.896   6.608  0.1446  0.3640  0.3070
  170SOPE    HX19175   3.385   2.848   6.542  0.2185  0.9202 -0.0138
  170SOPE    HY19176   3.294   2.819   6.687  1.9983 -1.1412 -0.7025
  170SOPE   O3119177   3.354   3.027   6.643 -0.0237  0.5573 -0.2647
  170SOPE   C3119178   3.318   3.065   6.767  0.1429 -0.7706  0.1295
  170SOPE   O3219179   3.238   3.007   6.839  0.4977  0.1500  0.0318
  170SOPE   C3219180   3.393   3.196   6.786 -0.0480  0.0648  0.3992
  170SOPE   H2X19181   3.361   3.272   6.712 -0.0021  0.6738  0.9941
  170SOPE   H2Y19182   3.501   3.181   6.765  0.0840  0.5757  0.6877
  170SOPE   C2319183   2.796   2.845   6.821  0.3388 -0.6004 -0.3673
  170SOPE   H3R19184   2.841   2.780   6.899 -1.1534 -1.6210 -0.3175
  170SOPE   H3S19185   2.749   2.768   6.756 -0.1370 -1.0325  0.4674
  170SOPE   C2419186   2.680   2.910   6.890 -0.3190 -0.6801  0.0678
  170SOPE   H4R19187   2.703   2.988   6.965 -0.3512 -1.3051  0.7313
  170SOPE   H4S19188   2.632   2.971   6.810  0.6423 -0.0233 -0.0338
  170SOPE   C2519189   2.576   2.817   6.954 -0.3554  0.0455  0.1478
  170SOPE   H5R19190   2.566   2.728   6.887 -0.9325  0.0740  0.1866
  170SOPE   H5S19191   2.615   2.797   7.056  0.0769  0.0520 -0.0145
  170SOPE   C2619192   2.439   2.894   6.968  0.9218 -0.6476 -0.0784
  170SOPE   H6R19193   2.367   2.834   7.028 -1.3407  1.5415 -0.4507
  170SOPE   H6S19194   2.453   2.989   7.023  0.4483 -1.1834  1.0133
  170SOPE   C2719195   2.367   2.932   6.841  0.1003 -0.0647 -0.7283
  170SOPE   H7R19196   2.437   2.996   6.783  0.7064 -0.3937 -0.3745
  170SOPE   H7S19197   2.358   2.836   6.784 -0.6877 -1.0575  0.9894
  170SOPE   C2819198   2.226   2.991   6.861  0.0131 -0.5644  0.6967
  170SOPE   H8R19199   2.184   3.007   6.760 -1.1790 -1.5296  1.0229
  170SOPE   H8S19200   2.164   2.915   6.913  0.8693 -1.6317  0.2052
  170SOPE   C2919201   2.213   3.124   6.917 -0.4206  0.5751 -0.7257
  170SOPE   H9119202   2.247   3.206   6.852  0.2184 -1.4941 -3.1590
  170SOPE  C21019203   2.175   3.145   7.046 -0.0479  0.6020 -0.6437
  170SOPE  H10119204   2.169   3.250   7.079  1.5544  0.9761 -1.4766
  170SOPE  C21119205   2.135   3.044   7.152 -0.1569 -0.2835  0.0122
  170SOPE  H11R19206   2.169   2.945   7.117 -0.8259 -0.5731  0.1612
  170SOPE  H11S19207   2.024   3.041   7.158 -0.2357 -1.8898 -1.4569
  170SOPE  C21219208   2.201   3.085   7.288 -0.6046 -0.5856 -0.1107
  170SOPE  H12R19209   2.170   3.007   7.362 -1.5024  1.4325  1.7494
  170SOPE  H12S19210   2.160   3.177   7.335 -4.0011 -2.2272  0.4806
  170SOPE  C21319211   2.353   3.080   7.278  0.0561 -0.0544 -0.7411
  170SOPE  H13R19212   2.398   3.169   7.228  3.3830 -0.2423  1.6495
  170SOPE  H13S19213   2.379   2.985   7.226 -0.3937 -0.4362 -0.2745
  170SOPE  C21419214   2.421   3.072   7.415  0.1329 -0.1815  0.1422
  170SOPE  H14R19215   2.375   2.995   7.481 -0.3344 -0.5839 -0.6423
  170SOPE  H14S19216   2.407   3.165   7.474  2.5053 -0.3361  1.0554
  170SOPE  C21519217   2.567   3.023   7.410  0.1866 -0.8219  0.7319
  170SOPE  H15R19218   2.623   3.100   7.352 -0.7471 -0.9849 -0.4319
  170SOPE  H15S19219   2.588   2.929   7.354 -1.4253 -1.0810  0.5053
  170SOPE  C21619220   2.627   3.017   7.553 -0.0564 -0.1942  0.1427
  170SOPE  H16R19221   2.695   2.930   7.548 -0.8056 -0.7532 -0.8743
  170SOPE  H16S19222   2.544   2.974   7.613 -0.8811 -1.1178 -1.5922
  170SOPE  C21719223   2.692   3.136   7.618 -0.2096 -0.2056 -0.7665
  170SOPE  H17R19224   2.626   3.225   7.612 -0.1224  0.3330  3.3443
  170SOPE  H17S19225   2.777   3.154   7.548 -0.0484 -1.6482 -0.9739
  170SOPE  C21819226   2.738   3.105   7.763  1.3477  0.1089 -0.5322
  170SOPE  H18R19227   2.660   3.118   7.840  0.7635  0.1627 -1.1241
  170SOPE  H18S19228   2.828   3.166   7.786  0.4692  0.9031  0.9022
  170SOPE  H18T19229   2.769   2.999   7.769  1.9618  0.3613  1.1686
  170SOPE   C3319230   3.372   3.255   6.925 -0.0237 -0.2922 -0.9719
  170SOPE   H3X19231   3.418   3.188   7.001 -0.6446 -0.1684 -0.4784
  170SOPE   H3Y19232   3.263   3.264   6.947 -0.1682 -1.0113 -1.3426
  170SOPE   C3419233   3.441   3.397   6.949  0.0663  0.6857  0.6393
  170SOPE   H4X19234   3.389   3.467   6.880  2.2141  2.0748  0.3495
  170SOPE   H4Y19235   3.548   3.385   6.924  0.2052  1.4857  0.8398
  170SOPE   C3519236   3.418   3.454   7.090  0.8542  0.3796  0.2688
  170SOPE   H5X19237   3.310   3.456   7.115  0.8867  2.4918  0.4427
  170SOPE   H5Y19238   3.449   3.561   7.089  1.4719  0.2009 -0.2509
  170SOPE   C3619239   3.470   3.374   7.207 -0.1149 -0.5057  1.1781
  170SOPE   H6X19240   3.436   3.270   7.186 -1.5105 -0.0262  0.9184
  170SOPE   H6Y19241   3.409   3.400   7.296  0.8543 -1.1221  2.0409
  170SOPE   C3719242   3.618   3.392   7.235  0.7955 -0.5409  0.0389
  170SOPE   H7X19243   3.649   3.499   7.237 -1.3072  0.1051  0.4725
  170SOPE   H7Y19244   3.670   3.348   7.147  0.4389 -0.7933 -0.0493
  170SOPE   C3819245   3.672   3.321   7.364  0.5285 -0.3734  1.1629
  170SOPE   H8X19246   3.779   3.298   7.344  0.2730 -0.5977 -0.0619
  170SOPE   H8Y19247   3.603   3.237   7.390 -0.7193  0.1069 -0.4262
  170SOPE   C3919248   3.666   3.419   7.485 -0.0222  0.1857  0.2941
  170SOPE   H9X19249   3.561   3.454   7.492  0.0503  0.6989 -0.8882
  170SOPE   H9Y19250   3.730   3.503   7.451 -2.8573  3.4993  2.4902
  170SOPE  C31019251   3.705   3.363   7.613  0.2197 -0.5349 -0.2300
  170SOPE  H10X19252   3.706   3.442   7.691 -1.9986  0.8028 -1.4385
  170SOPE  H10Y19253   3.809   3.334   7.590  0.2550  0.0101 -0.7675
  170SOPE  C31119254   3.613   3.257   7.673  0.4377  0.3731  0.0191
  170SOPE  H11X19255   3.598   3.179   7.595 -1.8234  1.0606 -0.2870
  170SOPE  H11Y19256   3.512   3.299   7.689 -0.2732 -0.9585 -0.7739
  170SOPE  C31219257   3.674   3.195   7.795 -0.0075  0.2822 -0.2467
  170SOPE  H12X19258   3.703   3.279   7.862 -3.2307  1.6808 -0.3803
  170SOPE  H12Y19259   3.762   3.132   7.773  0.2287  0.1223  1.0591
  170SOPE  C31319260   3.572   3.111   7.878  0.1585  0.5063 -0.2750
  170SOPE  H13X19261   3.518   3.047   7.805 -0.1250  0.2331  0.1748
  170SOPE  H13Y19262   3.489   3.175   7.915 -1.1863 -0.2603 -1.8126
  170SOPE  C31419263   3.632   3.021   7.990 -0.3928  0.3699 -0.8942
  170SOPE  H14X19264   3.702   3.087   8.045 -0.9662 -0.1644  0.5152
  170SOPE  H14Y19265   3.691   2.938   7.945  1.5885  1.4933 -0.4470
  170SOPE  C31519266   3.530   2.959   8.089 -0.4600 -1.0160  1.1005
  170SOPE  H15X19267   3.479   3.045   8.137  0.4611  0.2923 -0.1844
  170SOPE  H15Y19268   3.584   2.890   8.157  0.4288 -1.2014  0.2201
  170SOPE  C31619269   3.414   2.889   8.020  0.3838 -0.8023 -0.3830
  170SOPE  H16X19270   3.466   2.797   7.985  3.4544  0.9168 -0.7699
  170SOPE  H16Y19271   3.359   2.937   7.936 -0.3431  1.6425  1.3672
  170SOPE  C31719272   3.304   2.832   8.122  0.8976  0.1807  0.2478
  170SOPE  H17X19273   3.245   2.926   8.131 -0.8612 -0.7996 -0.4170
  170SOPE  H17Y19274   3.333   2.808   8.226 -1.7506 -0.2290  0.9723
  170SOPE  C31819275   3.202   2.720   8.072 -0.7227 -0.0918 -0.3180
  170SOPE  H18X19276   3.169   2.751   7.970  2.2321  0.5914 -1.1593
  170SOPE  H18Y19277   3.120   2.701   8.145  0.0794 -1.3143  0.2982
  170SOPE  H18Z19278   3.259   2.628   8.049  0.6675  0.5243  0.5557
  171SOPE     N19279   2.308   5.974   6.301 -0.1164 -0.1194  0.4244
  171SOPE   HN119280   2.402   6.013   6.279  0.0495 -0.8311 -0.1352
  171SOPE   HN219281   2.292   5.990   6.403 -0.7272  0.7381  0.2085
  171SOPE   HN319282   2.320   5.873   6.282  2.2841  0.6054 -2.6154
  171SOPE   C1219283   2.223   6.056   6.205  0.4692  0.4418 -0.3157
  171SOPE  H12A19284   2.132   5.998   6.178  0.5919  1.0993 -2.2851
  171SOPE  H12B19285   2.287   6.061   6.115 -0.0301 -0.7500 -0.7611
  171SOPE   C1119286   2.194   6.190   6.268 -0.4038 -0.4387  0.0339
  171SOPE  H11A19287   2.127   6.181   6.356 -0.9903  2.5142 -0.0147
  171SOPE  H11B19288   2.148   6.260   6.195 -0.4884 -1.7223 -1.2103
  171SOPE     P19289   2.328   6.388   6.367  0.0041  0.0120  0.8584
  171SOPE   O1319290   2.248   6.488   6.288 -0.0593 -0.2112 -0.0228
  171SOPE   O1419291   2.476   6.414   6.372 -0.1807  0.3860  0.1093
  171SOPE   O1219292   2.316   6.251   6.301  0.6184  0.2796  0.3548
  171SOPE   O1119293   2.272   6.368   6.515  0.4212 -0.2665  0.0301
  171SOPE    C119294   2.325   6.272   6.602 -0.5305  0.1384  0.1693
  171SOPE    HA19295   2.382   6.197   6.542  1.4469  1.1895  0.6683
  171SOPE    HB19296   2.244   6.216   6.654  0.0912  0.2075  1.2281
  171SOPE    C219297   2.424   6.331   6.711 -0.1789 -0.6455  0.2956
  171SOPE    HS19298   2.472   6.419   6.664  0.3679 -0.7522  0.6441
  171SOPE   O2119299   2.520   6.232   6.741  0.1718  0.0785  0.2256
  171SOPE   C2119300   2.644   6.274   6.777 -0.7183 -0.0672  0.1603
  171SOPE   O2219301   2.670   6.392   6.795 -0.4126  0.3551 -0.1546
  171SOPE   C2219302   2.743   6.162   6.793 -0.5346 -0.1370 -0.2290
  171SOPE   H2R19303   2.791   6.134   6.697  2.8699 -2.9991  2.0332
  171SOPE   H2S19304   2.685   6.072   6.825  0.7077 -1.0378 -0.4524
  171SOPE    C319305   2.351   6.390   6.829 -0.3339  0.4349  0.3372
  171SOPE    HX19306   2.263   6.325   6.850 -1.6877  2.3519  0.9536
  171SOPE    HY19307   2.293   6.477   6.789 -0.3038 -0.5121 -1.9518
  171SOPE   O3119308   2.435   6.428   6.941 -0.2757 -0.1056 -0.2644
  171SOPE   C3119309   2.475   6.556   6.964  0.3350 -0.2398 -0.6051
  171SOPE   O3219310   2.431   6.655   6.908 -0.0613  0.0537 -0.4483
  171SOPE   C3219311   2.576   6.558   7.075 -0.0612 -1.5047 -0.1217
  171SOPE   H2X19312   2.615   6.662   7.079  1.2123 -1.7393 -3.3304
  171SOPE   H2Y19313   2.659   6.501   7.028 -0.6711 -0.7439 -2.2329
  171SOPE   C2319314   2.866   6.185   6.879 -0.1928 -0.1698 -0.1243
  171SOPE   H3R19315   2.916   6.280   6.850  0.2552 -0.2253  0.4346
  171SOPE   H3S19316   2.938   6.102   6.867  1.4830  1.2796 -0.5907
  171SOPE   C2419317   2.834   6.191   7.035  0.4862 -0.2289  0.6743
  171SOPE   H4R19318   2.784   6.288   7.058 -4.1488 -2.3292  0.4434
  171SOPE   H4S19319   2.752   6.119   7.053 -0.0554  0.0154 -0.7057
  171SOPE   C2519320   2.952   6.162   7.128 -0.9015  0.1857 -0.6657
  171SOPE   H5R19321   2.987   6.057   7.112  1.3455  0.9384 -1.0832
  171SOPE   H5S19322   3.027   6.235   7.090 -2.0002  1.5304 -0.3064
  171SOPE   C2619323   2.934   6.188   7.277 -0.7583 -0.1040 -0.5802
  171SOPE   H6R19324   2.918   6.297   7.291  0.0146  0.2745 -2.3308
  171SOPE   H6S19325   2.839   6.145   7.315 -1.4644  1.6794 -0.2308
  171SOPE   C2719326   3.050   6.137   7.369 -0.0656 -0.1623 -0.1485
  171SOPE   H7R19327   3.140   6.131   7.303 -0.4613  0.5224 -0.7612
  171SOPE   H7S19328   3.082   6.202   7.452 -0.0770 -0.3477  0.0018
  171SOPE   C2819329   3.014   6.005   7.446  0.0277  0.2845  0.3153
  171SOPE   H8R19330   2.912   6.012   7.489 -0.6699  2.0718 -1.4772
  171SOPE   H8S19331   3.001   5.930   7.364 -0.0822  1.3120 -0.6253
  171SOPE   C2919332   3.110   5.962   7.553 -0.5254 -0.0503 -0.2625
  171SOPE   H9119333   3.182   5.885   7.523 -0.5051  0.2212 -0.9273
  171SOPE  C21019334   3.109   5.997   7.685 -0.5758  0.0230 -1.0563
  171SOPE  H10119335   3.180   5.957   7.758 -2.5921 -3.0550 -0.5986
  171SOPE  C21119336   3.021   6.091   7.756  0.0719  0.2227 -0.4322
  171SOPE  H11R19337   2.918   6.097   7.714 -0.0944  1.1257  0.0969
  171SOPE  H11S19338   3.063   6.190   7.730 -0.5832  0.0738 -2.2522
  171SOPE  C21219339   3.007   6.053   7.906  0.1537  0.0834  0.3382
  171SOPE  H12R19340   2.967   5.950   7.914  0.8032 -0.2231 -0.1662
  171SOPE  H12S19341   2.946   6.127   7.963  0.8924 -0.0824  1.3736
  171SOPE  C21319342   3.144   6.062   7.988  0.4871 -0.3148 -0.0024
  171SOPE  H13R19343   3.206   5.973   7.964 -0.0573 -0.9313  0.8351
  171SOPE  H13S19344   3.115   6.059   8.095  2.0489  0.5946  0.4801
  171SOPE  C21419345   3.236   6.186   7.975 -0.2275 -0.8282  0.8448
  171SOPE  H14R19346   3.170   6.274   7.958 -0.3115 -0.5195  2.6262
  171SOPE  H14S19347   3.289   6.162   7.880 -1.4879 -1.8930  0.3820
  171SOPE  C21519348   3.339   6.206   8.090  0.3350  0.1216 -0.6822
  171SOPE  H15R19349   3.404   6.116   8.090  0.3903  0.0778  2.4933
  171SOPE  H15S19350   3.285   6.201   8.187  0.6603 -0.8784 -0.5342
  171SOPE  C21619351   3.419   6.330   8.071  0.0042  0.5182 -0.6333
  171SOPE  H16R19352   3.354   6.417   8.094  0.1777  0.0613  1.8193
  171SOPE  H16S19353   3.459   6.339   7.968 -1.3165  0.0354 -1.2154
  171SOPE  C21719354   3.538   6.331   8.174  0.4174  0.2752 -0.2980
  171SOPE  H17R19355   3.628   6.367   8.118  0.2622  1.4296  0.1767
  171SOPE  H17S19356   3.570   6.234   8.217 -0.7598  0.2488  0.5304
  171SOPE  C21819357   3.521   6.438   8.283 -0.1730  0.7069 -0.2431
  171SOPE  H18R19358   3.425   6.428   8.339  0.0533 -0.9292 -0.1262
  171SOPE  H18S19359   3.528   6.536   8.230  0.2059  1.9462  1.9494
  171SOPE  H18T19360   3.601   6.415   8.357 -2.0186 -0.0815  1.6049
  171SOPE   C3319361   2.526   6.499   7.205 -0.3740  0.5979 -0.9877
  171SOPE   H3X19362   2.487   6.396   7.195  2.0351 -0.3124 -1.6126
  171SOPE   H3Y19363   2.445   6.562   7.249 -2.0919 -1.5851 -0.8795
  171SOPE   C3419364   2.636   6.495   7.315  0.0957 -0.3884 -0.7118
  171SOPE   H4X19365   2.708   6.580   7.318 -1.2213  0.8035 -1.3411
  171SOPE   H4Y19366   2.692   6.400   7.302  0.9729 -0.2596  1.6799
  171SOPE   C3519367   2.566   6.481   7.448 -0.3801 -0.8795  0.0189
  171SOPE   H5X19368   2.497   6.394   7.451 -2.6790  0.8722  1.0742
  171SOPE   H5Y19369   2.495   6.566   7.459 -2.1592 -1.8914 -2.5943
  171SOPE   C3619370   2.662   6.470   7.567  0.1597 -0.9463 -0.7772
  171SOPE   H6X19371   2.728   6.560   7.567  1.7084 -1.9967  1.1950
  171SOPE   H6Y19372   2.724   6.379   7.549  0.9728 -0.1997 -1.8813
  171SOPE   C3719373   2.587   6.456   7.703  0.3707  0.5633 -0.2326
  171SOPE   H7X19374   2.516   6.370   7.703 -0.7538  1.4744 -0.3601
  171SOPE   H7Y19375   2.526   6.546   7.725 -1.1892 -0.6217  0.5535
  171SOPE   C3819376   2.690   6.414   7.810  0.0601 -1.1630  0.2401
  171SOPE   H8X19377   2.768   6.488   7.836  1.6017 -1.6115 -2.6079
  171SOPE   H8Y19378   2.750   6.329   7.770  0.6359 -0.7404  0.1935
  171SOPE   C3919379   2.625   6.357   7.937  0.0024 -0.2525  0.1504
  171SOPE   H9X19380   2.706   6.322   8.005 -1.1597 -1.2566  1.0547
  171SOPE   H9Y19381   2.569   6.267   7.904 -0.3107 -0.6108  1.5713
  171SOPE  C31019382   2.537   6.456   8.011  0.6494  0.9317 -0.3671
  171SOPE  H10X19383   2.477   6.514   7.938 -1.1520 -1.7787 -1.1752
  171SOPE  H10Y19384   2.599   6.534   8.060  0.4737 -0.0703  1.5579
  171SOPE  C31119385   2.434   6.401   8.119  0.5311 -0.1228  0.2892
  171SOPE  H11X19386   2.482   6.351   8.206  1.4932  0.0205 -0.1498
  171SOPE  H11Y19387   2.369   6.325   8.070 -1.2744  2.2685 -1.2957
  171SOPE  C31219388   2.342   6.516   8.168  0.0257  0.0415  0.0529
  171SOPE  H12X19389   2.262   6.462   8.223 -0.3374  0.6616  0.1416
  171SOPE  H12Y19390   2.308   6.588   8.091  0.7137  0.0165 -0.2754
  171SOPE  C31319391   2.410   6.604   8.278 -0.4546  0.5416 -0.3893
  171SOPE  H13X19392   2.480   6.673   8.225  0.7240 -0.9134 -0.7853
  171SOPE  H13Y19393   2.482   6.534   8.326 -1.9259  0.4559  1.8438
  171SOPE  C31419394   2.316   6.678   8.381 -0.2646  0.1617 -0.3625
  171SOPE  H14X19395   2.253   6.592   8.411 -0.7742  0.8508  0.5737
  171SOPE  H14Y19396   2.263   6.754   8.320 -1.5503 -0.6011 -0.2104
  171SOPE  C31519397   2.382   6.738   8.508 -0.4307 -0.1288  0.8452
  171SOPE  H15X19398   2.471   6.797   8.480 -2.8796  2.6351 -1.7626
  171SOPE  H15Y19399   2.414   6.664   8.586 -0.0431  0.2175  1.0165
  171SOPE  C31619400   2.292   6.834   8.590 -0.0889 -0.3037  0.5885
  171SOPE  H16X19401   2.196   6.785   8.619 -0.5373  0.3707  0.2810
  171SOPE  H16Y19402   2.256   6.916   8.524  1.7773 -0.4121 -0.6153
  171SOPE  C31719403   2.365   6.889   8.718  0.5163  0.1330 -0.0692
  171SOPE  H17X19404   2.305   6.975   8.756 -0.0261 -0.5714  0.7199
  171SOPE  H17Y19405   2.465   6.933   8.700  0.5599  0.2564  0.4719
  171SOPE  C31819406   2.366   6.791   8.837  0.2120  0.0586 -0.2205
  171SOPE  H18X19407   2.406   6.690   8.809  1.3105 -0.1808  2.0329
  171SOPE  H18Y19408   2.258   6.768   8.855  1.1047 -4.6621  0.6446
  171SOPE  H18Z19409   2.412   6.829   8.930 -0.1847  1.1535 -0.4584
  172SOPE     N19410   4.847   2.309   6.355 -0.3422  0.3475 -0.6158
  172SOPE   HN119411   4.802   2.220   6.383 -0.8312  0.9318  0.5087
  172SOPE   HN219412   4.782   2.375   6.307 -3.0315 -2.1041 -0.5957
  172SOPE   HN319413   4.921   2.278   6.289 -1.0476 -0.5890 -0.9823
  172SOPE   C1219414   4.904   2.360   6.487  0.5538 -0.4014 -0.0913
  172SOPE  H12A19415   4.916   2.276   6.558 -2.5430 -1.2681 -0.4466
  172SOPE  H12B19416   4.841   2.448   6.514  1.0917  0.1763 -0.6921
  172SOPE   C1119417   5.046   2.419   6.460 -0.6247  0.0020  0.1707
  172SOPE  H11A19418   5.071   2.488   6.544  1.3039  0.3765 -0.6515
  172SOPE  H11B19419   5.040   2.491   6.375 -2.6341 -2.6039 -2.0434
  172SOPE     P19420   5.286   2.321   6.427  0.4890  0.0310  0.3348
  172SOPE   O1319421   5.327   2.456   6.474  0.0391  0.0710  0.0427
  172SOPE   O1419422   5.297   2.294   6.286 -0.3347  0.6117  0.3965
  172SOPE   O1219423   5.136   2.308   6.450  0.4721  0.4139 -0.6588
  172SOPE   O1119424   5.358   2.219   6.516  0.4671 -0.2331 -0.1957
  172SOPE    C119425   5.294   2.164   6.633 -0.3683  0.6432 -0.5589
  172SOPE    HA19426   5.223   2.085   6.600  0.2491 -0.0092 -0.3755
  172SOPE    HB19427   5.239   2.238   6.695  1.2537  0.3321  1.3676
  172SOPE    C219428   5.413   2.113   6.727 -0.2385  0.5779  0.4860
  172SOPE    HS19429   5.482   2.052   6.665 -1.5108  1.4657 -1.9302
  172SOPE   O2119430   5.371   2.025   6.837 -0.4897  0.1913  0.9070
  172SOPE   C2119431   5.273   2.066   6.911 -0.3585 -0.2473  0.3291
  172SOPE   O2219432   5.221   2.175   6.914  0.4413 -0.6954 -0.0447
  172SOPE   C2219433   5.230   1.943   6.993  0.2526 -0.4793  0.0249
  172SOPE   H2R19434   5.283   1.936   7.090 -0.2044 -0.5958  0.2725
  172SOPE   H2S19435   5.237   1.851   6.931 -1.6116 -0.1732 -0.6985
  172SOPE    C319436   5.504   2.230   6.784 -0.4325 -0.4649  0.2780
  172SOPE    HX19437   5.431   2.303   6.825 -1.3218 -0.6943 -0.8709
  172SOPE    HY19438   5.552   2.290   6.703 -0.8479 -1.4234 -0.6969
  172SOPE   O3119439   5.596   2.203   6.893  0.3287  0.3350  0.7616
  172SOPE   C3119440   5.708   2.139   6.840 -0.8051 -0.2971 -0.4251
  172SOPE   O3219441   5.718   2.103   6.724 -0.3664 -0.2998  0.0436
  172SOPE   C3219442   5.814   2.131   6.950  0.1140  0.1582 -0.3164
  172SOPE   H2X19443   5.863   2.034   6.927 -0.5880  0.1430 -1.8998
  172SOPE   H2Y19444   5.758   2.125   7.046 -0.7066  1.1907 -0.7089
  172SOPE   C2319445   5.083   1.937   7.043 -0.5031  0.2040 -0.3467
  172SOPE   H3R19446   5.055   1.832   7.063 -0.8924  0.3327 -0.2119
  172SOPE   H3S19447   5.018   1.981   6.964  1.0121  4.3421  0.4480
  172SOPE   C2419448   5.061   2.013   7.171 -0.3403 -0.7084  0.4459
  172SOPE   H4R19449   5.107   2.114   7.175  2.4433 -1.8626 -0.1116
  172SOPE   H4S19450   4.953   2.033   7.187 -0.6124  0.2187 -1.9803
  172SOPE   C2519451   5.108   1.942   7.300 -0.0571 -0.1385 -0.5833
  172SOPE   H5R19452   5.057   1.844   7.312  2.2940 -1.3615  0.1084
  172SOPE   H5S19453   5.217   1.919   7.295 -0.0947 -0.4783  0.0913
  172SOPE   C2619454   5.093   2.033   7.423  0.0072 -0.0076 -0.7165
  172SOPE   H6R19455   5.128   2.133   7.390  0.0516 -0.7269 -2.9629
  172SOPE   H6S19456   4.987   2.042   7.454  0.2998  0.3486  0.2239
  172SOPE   C2719457   5.179   1.990   7.547  0.4409  0.3483 -0.1509
  172SOPE   H7R19458   5.199   1.880   7.545 -0.6356  0.0295  2.2836
  172SOPE   H7S19459   5.278   2.039   7.557  2.0745 -2.8281  0.5981
  172SOPE   C2819460   5.114   2.002   7.687  0.1147 -0.5247  0.9170
  172SOPE   H8R19461   5.011   1.964   7.675 -0.6448  0.1312  4.2567
  172SOPE   H8S19462   5.162   1.932   7.760  0.2264 -1.0008  0.3936
  172SOPE   C2919463   5.111   2.142   7.741 -0.0520  0.0254  0.4350
  172SOPE   H9119464   5.066   2.217   7.674  1.1028 -0.0229 -0.4274
  172SOPE  C21019465   5.167   2.181   7.858  0.4327 -0.1058  0.7294
  172SOPE  H10119466   5.144   2.286   7.882  1.5289  0.7889 -1.7653
  172SOPE  C21119467   5.238   2.106   7.966  0.0303 -0.6879 -0.2455
  172SOPE  H11R19468   5.304   2.183   8.010  0.3844 -0.8265 -0.5312
  172SOPE  H11S19469   5.302   2.023   7.929 -0.0165 -0.7486 -0.1925
  172SOPE  C21219470   5.135   2.059   8.067  0.2087  1.0295 -0.0117
  172SOPE  H12R19471   5.075   1.979   8.019  0.8280 -0.3357  1.3897
  172SOPE  H12S19472   5.064   2.136   8.103 -0.2019  0.7240 -0.1590
  172SOPE  C21319473   5.191   1.990   8.193  0.5160  0.0146  0.4577
  172SOPE  H13R19474   5.250   1.900   8.165 -1.2117 -0.8380 -0.5919
  172SOPE  H13S19475   5.112   1.960   8.265  1.3894  0.6982  1.7489
  172SOPE  C21419476   5.281   2.075   8.282  0.3707 -0.5791 -0.1728
  172SOPE  H14R19477   5.371   2.107   8.226  0.5103  1.8976  1.3217
  172SOPE  H14S19478   5.327   2.026   8.370  3.7761 -0.6782 -1.8299
  172SOPE  C21519479   5.212   2.198   8.341 -0.0227  0.1900 -0.7545
  172SOPE  H15R19480   5.132   2.226   8.270 -0.9068  1.5304  0.7149
  172SOPE  H15S19481   5.281   2.284   8.352 -0.0658  0.1166  0.1719
  172SOPE  C21619482   5.143   2.162   8.483  0.2185 -0.3969  0.5568
  172SOPE  H16R19483   5.227   2.164   8.555  1.8880  0.8975 -1.3285
  172SOPE  H16S19484   5.094   2.063   8.474 -2.3355  0.8097  0.1124
  172SOPE  C21719485   5.029   2.261   8.514 -0.2661 -0.1730 -0.4268
  172SOPE  H17R19486   4.950   2.254   8.437 -0.7457 -0.2927  0.0749
  172SOPE  H17S19487   5.081   2.359   8.512  0.6669 -0.6205  0.6111
  172SOPE  C21819488   4.957   2.236   8.650 -0.4310  0.1446  0.2827
  172SOPE  H18R19489   4.906   2.329   8.684  1.8546  2.1410 -1.4546
  172SOPE  H18S19490   5.023   2.204   8.734 -0.4434  0.3385  0.3664
  172SOPE  H18T19491   4.884   2.153   8.648 -1.5206  1.0953 -0.6027
  172SOPE   C3319492   5.922   2.246   6.936 -0.6354 -0.2158  0.3034
  172SOPE   H3X19493   5.871   2.345   6.936  0.9605  0.7272 -2.6006
  172SOPE   H3Y19494   5.967   2.232   6.835  2.4640 -0.0192  1.5470
  172SOPE   C3419495   6.038   2.237   7.029  0.7826 -0.4133 -0.2153
  172SOPE   H4X19496   5.996   2.249   7.131 -1.1634 -1.4704 -0.8448
  172SOPE   H4Y19497   6.111   2.319   7.009 -0.9249  1.4164  0.7268
  172SOPE   C3519498   6.110   2.099   7.026 -0.1118  1.3321 -0.2215
  172SOPE   H5X19499   6.155   2.070   6.929  1.6609  0.5185  0.7845
  172SOPE   H5Y19500   6.036   2.024   7.060  1.5671  0.6378  2.1728
  172SOPE   C3619501   6.223   2.076   7.134 -0.5624 -0.4413 -0.0488
  172SOPE   H6X19502   6.301   2.147   7.099 -0.2514  0.5198  2.3438
  172SOPE   H6Y19503   6.261   1.973   7.115  1.5903 -0.1970  2.3035
  172SOPE   C3719504   6.190   2.088   7.275 -0.8161  0.6477 -0.4909
  172SOPE   H7X19505   6.110   2.019   7.309 -1.4547  2.1647  1.2554
  172SOPE   H7Y19506   6.152   2.190   7.293 -1.7925 -0.2132  3.0331
  172SOPE   C3819507   6.316   2.079   7.361  0.0070  0.2207  0.3304
  172SOPE   H8X19508   6.379   2.169   7.344  1.8988 -1.2326 -0.7796
  172SOPE   H8Y19509   6.375   1.992   7.323  1.4667  1.0165  0.6786
  172SOPE   C3919510   6.286   2.076   7.507 -1.5173  0.1483  0.7658
  172SOPE   H9X19511   6.227   1.985   7.532 -0.5000  0.0102  2.9156
  172SOPE   H9Y19512   6.234   2.164   7.550 -0.1467  0.5501  1.6503
  172SOPE  C31019513   6.417   2.065   7.590  0.7878 -0.1608  0.8089
  172SOPE  H10X19514   6.487   2.145   7.555 -0.3734  2.0104  3.1331
  172SOPE  H10Y19515   6.468   1.968   7.575  2.3424  0.1074  3.6148
  172SOPE  C31119516   6.388   2.085   7.735 -1.1656 -0.1446 -1.0704
  172SOPE  H11X19517   6.320   2.006   7.774 -0.5529 -0.2582 -0.2225
  172SOPE  H11Y19518   6.357   2.186   7.766  1.8803  0.3691  0.6556
  172SOPE  C31219519   6.520   2.079   7.809 -0.0275  0.3316 -0.0680
  172SOPE  H12X19520   6.504   2.124   7.909 -0.9298 -0.1908  0.0361
  172SOPE  H12Y19521   6.597   2.137   7.754 -2.1231  1.8874 -1.5275
  172SOPE  C31319522   6.569   1.935   7.810  0.3219 -0.8409 -0.5845
  172SOPE  H13X19523   6.587   1.896   7.708 -0.9627 -0.3153 -1.0368
  172SOPE  H13Y19524   6.496   1.867   7.859  1.6055 -1.4088  0.6190
  172SOPE  C31419525   6.696   1.908   7.892 -1.0241  0.5428  0.0179
  172SOPE  H14X19526   6.774   1.972   7.846 -0.5852  0.0953  0.1267
  172SOPE  H14Y19527   6.726   1.803   7.871 -1.8380  0.1676  0.6686
  172SOPE  C31519528   6.679   1.943   8.037 -0.5954  0.7153  0.4091
  172SOPE  H15X19529   6.583   1.897   8.067 -0.2959  0.1491  0.5103
  172SOPE  H15Y19530   6.669   2.053   8.051 -0.9279  0.4241  2.7532
  172SOPE  C31619531   6.786   1.874   8.120 -0.4121  0.0566 -0.4074
  172SOPE  H16X19532   6.884   1.918   8.094 -0.3451  0.6653  0.8404
  172SOPE  H16Y19533   6.785   1.765   8.098  0.4444 -0.1460  0.5118
  172SOPE  C31719534   6.758   1.912   8.267  0.1830  0.6676  0.4019
  172SOPE  H17X19535   6.648   1.917   8.280 -0.1654  1.8151 -2.2526
  172SOPE  H17Y19536   6.800   2.012   8.289 -1.6469  1.5861 -0.1062
  172SOPE  C31819537   6.807   1.809   8.364  0.4192  0.3074  0.5725
  172SOPE  H18X19538   6.918   1.799   8.363  0.4443  0.6323 -0.6552
  172SOPE  H18Y19539   6.769   1.708   8.338  0.5105 -0.2171  2.3105
  172SOPE  H18Z19540   6.769   1.838   8.464  0.4527  0.1798  0.6229
  173SAPI   C1219541   0.384   1.393  10.907  0.8484 -0.3838  0.0806
  173SAPI    H219542   0.330   1.478  10.956 -1.5866 -1.9284  0.2336
  173SAPI    O219543   0.525   1.411  10.910  0.2782 -0.2645  0.1939
  173SAPI   HO219544   0.535   1.498  10.869  0.6218 -1.4128 -2.3113
  173SAPI   C1319545   0.341   1.275  10.983  0.2641  1.1172 -0.2385
  173SAPI    H319546   0.231   1.264  10.975  0.1507  1.1029  1.1391
  173SAPI    O319547   0.372   1.281  11.126 -0.0275 -0.3969 -0.8362
  173SAPI   HO319548   0.295   1.307  11.178  0.8627  1.0738 -0.2163
  173SAPI   C1419549   0.396   1.142  10.920  0.4570 -0.0133  0.7815
  173SAPI    H419550   0.506   1.153  10.907  0.9474 -3.5073  0.9820
  173SAPI    O419551   0.381   1.024  10.991  0.2324  0.3911  0.3237
  173SAPI   HO419552   0.421   0.956  10.936  0.3778  0.6244  0.1420
  173SAPI   C1519553   0.351   1.131  10.772 -0.1584  0.2450  0.0683
  173SAPI    H519554   0.240   1.134  10.777 -0.1340  1.3213  0.3624
  173SAPI    O519555   0.397   0.998  10.719  0.1575 -0.4573  0.6042
  173SAPI   HO519556   0.341   0.965  10.649  1.2947  1.2050 -1.2132
  173SAPI   C1619557   0.395   1.255  10.704 -1.0351 -0.7088 -0.0212
  173SAPI    H619558   0.506   1.252  10.710 -0.8396 -0.4262 -2.3806
  173SAPI    O619559   0.359   1.253  10.567  0.0199  0.5419  0.3359
  173SAPI   HO619560   0.374   1.343  10.537  1.6785  0.2204  0.1297
  173SAPI   C1119561   0.330   1.382  10.765 -0.0133  0.2368  0.1786
  173SAPI    H119562   0.219   1.380  10.765 -0.0090 -1.2865  0.4720
  173SAPI     P19563   0.264   1.619  10.685 -0.1068 -0.3750  0.1538
  173SAPI   O1319564   0.349   1.736  10.642  0.6669  0.4762  0.4228
  173SAPI   O1419565   0.194   1.635  10.813  0.1480 -0.3478  0.1504
  173SAPI   O1219566   0.375   1.487  10.688  0.3957 -0.1548  0.1677
  173SAPI   O1119567   0.174   1.571  10.568  0.2716 -0.0118  0.1934
  173SAPI    C119568   0.211   1.555  10.437 -0.5470 -0.5271 -0.0584
  173SAPI    HA19569   0.301   1.493  10.419  0.2227  0.7181 -0.7128
  173SAPI    HB19570   0.123   1.518  10.380 -0.2643 -1.6063  0.1979
  173SAPI    C219571   0.240   1.685  10.367 -0.2313  0.1893  0.2456
  173SAPI    HS19572   0.335   1.722  10.411  0.6222 -0.2841 -1.1353
  173SAPI   O2119573   0.136   1.779  10.378 -0.1442  0.3421 -0.0391
  173SAPI   C2119574   0.172   1.904  10.370 -0.0989  0.0086 -0.2499
  173SAPI   O2219575   0.285   1.948  10.341 -0.0926  0.5556  0.1488
  173SAPI   C2219576   0.044   1.991  10.385  0.3578  1.5837 -0.1172
  173SAPI   H2R19577  -0.028   1.967  10.303  0.8709 -0.3718 -0.0449
  173SAPI   H2S19578  -0.017   1.954  10.470 -2.4323  1.4652 -2.0378
  173SAPI    C319579   0.253   1.650  10.218 -0.0850  0.4083  0.2169
  173SAPI    HX19580   0.335   1.575  10.216 -0.5295 -0.3685  3.8568
  173SAPI    HY19581   0.294   1.746  10.180 -1.0604  1.2410  1.2071
  173SAPI   O3119582   0.138   1.597  10.155 -0.2613  0.3562 -0.0165
  173SAPI   C3119583   0.056   1.679  10.102  1.5982  0.7014 -0.3865
  173SAPI   O3219584   0.071   1.799  10.083 -0.1373  0.6080  0.4442
  173SAPI   C3219585  -0.073   1.598  10.068  0.0105  0.1996 -0.1764
  173SAPI   H2X19586  -0.133   1.658   9.996  0.0235  1.7416  1.0351
  173SAPI   H2Y19587  -0.130   1.597  10.163 -0.2893 -0.5354 -0.3539
  173SAPI   C2319588   0.073   2.144  10.387 -0.3276  0.0983 -0.7668
  173SAPI   H3R19589   0.118   2.185  10.480  0.0642 -0.3862 -0.7369
  173SAPI   H3S19590  -0.028   2.189  10.383  0.1879  1.6760  1.8629
  173SAPI   C2419591   0.143   2.197  10.256  0.1403  0.6656 -0.6501
  173SAPI   H4R19592   0.252   2.184  10.271 -0.0128 -0.5661 -0.4793
  173SAPI   H4S19593   0.117   2.305  10.262 -1.2985  0.3120 -0.3004
  173SAPI   C2519594   0.101   2.145  10.124  0.2101 -0.2007 -0.6664
  173SAPI   H5R19595   0.090   2.037  10.108  1.8439 -0.5670  0.3798
  173SAPI   C2619596   0.085   2.220  10.017  0.0119 -0.7393  0.3722
  173SAPI   H6R19597   0.024   2.173   9.938 -0.2969 -0.9007  0.7023
  173SAPI   C2719598   0.103   2.366   9.994 -0.4927  0.1116  0.1016
  173SAPI   H7R19599   0.155   2.373   9.897 -2.6511 -0.0389 -1.1446
  173SAPI   H7S19600   0.173   2.419  10.062  1.5760 -1.8824 -0.3489
  173SAPI   C2819601  -0.024   2.440   9.988  0.1125  0.1550  0.5390
  173SAPI   H8R19602  -0.086   2.412  10.074 -0.6581  0.3119  0.0381
  173SAPI   C2919603  -0.072   2.533   9.899 -0.0948  0.2711  0.3803
  173SAPI   H9R19604  -0.167   2.584   9.923  0.5176  1.2123  0.8563
  173SAPI  C21019605  -0.003   2.606   9.788  0.3899 -0.2158 -0.5617
  173SAPI  H10R19606  -0.083   2.635   9.717  0.4039 -0.8429 -0.8381
  173SAPI  H10S19607   0.059   2.528   9.739 -1.6288 -0.1616 -3.4786
  173SAPI  C21119608   0.087   2.723   9.837 -0.3899  0.3542 -0.0412
  173SAPI  H11R19609   0.065   2.765   9.936  0.9558 -0.5353  0.6798
  173SAPI  C21219610   0.185   2.778   9.770 -0.1899  0.6831  0.1832
  173SAPI  H12R19611   0.240   2.866   9.808  2.2154  0.0968 -1.7033
  173SAPI  C21319612   0.227   2.739   9.627 -0.2589  0.6804 -0.2462
  173SAPI  H13R19613   0.251   2.631   9.633  1.3134  0.9981 -0.4727
  173SAPI  H13S19614   0.330   2.777   9.609  0.2005 -0.3095  0.1975
  173SAPI  C21419615   0.135   2.770   9.510  0.0315 -0.0639  0.5254
  173SAPI  H14R19616   0.101   2.875   9.503  0.1720 -0.1047 -1.3487
  173SAPI  C21519617   0.112   2.673   9.417  0.2764 -0.6074 -0.0571
  173SAPI  H15R19618   0.047   2.702   9.332 -0.6761 -0.0822  0.8252
  173SAPI  C21619619   0.166   2.536   9.402 -0.2786 -0.0399 -0.1757
  173SAPI  H16R19620   0.182   2.493   9.503 -1.2044 -0.5996 -0.2579
  173SAPI  H16S19621   0.268   2.528   9.360  0.0661 -0.0776  0.6345
  173SAPI  C21719622   0.083   2.436   9.327  0.7354 -0.1295  0.2718
  173SAPI  H17R19623   0.127   2.336   9.306  0.5164 -0.7477  2.4550
  173SAPI  H17S19624   0.052   2.485   9.232 -4.1118 -0.1116  1.5989
  173SAPI  C21819625  -0.047   2.414   9.399  0.6008 -0.4265  0.0643
  173SAPI  H18R19626  -0.107   2.505   9.417 -1.7929 -2.3688  2.9690
  173SAPI  H18S19627  -0.030   2.383   9.505 -0.7598  1.8711  1.0157
  173SAPI  C21919628  -0.136   2.314   9.319 -0.4411 -0.2607  0.5701
  173SAPI  H19R19629  -0.088   2.214   9.320  1.6017  0.6073 -1.3142
  173SAPI  H19S19630  -0.129   2.344   9.212  3.8760  0.5288  0.9134
  173SAPI  C22019631  -0.273   2.299   9.367 -0.0626 -0.4019  0.0142
  173SAPI  H20R19632  -0.270   2.244   9.464  1.0884 -3.2057 -1.4756
  173SAPI  H20S19633  -0.330   2.236   9.295 -0.7038 -1.9374  1.7708
  173SAPI  H20T19634  -0.324   2.395   9.386  2.7410  0.7874  2.3300
  173SAPI   C3319635  -0.044   1.457  10.027 -0.5430  0.1210 -0.3854
  173SAPI   H3X19636  -0.049   1.397  10.121 -2.0059 -1.7694 -1.5891
  173SAPI   H3Y19637   0.047   1.431   9.969 -0.8878 -4.5360  0.7669
  173SAPI   C3419638  -0.147   1.400   9.932  0.1336  0.6322 -0.2636
  173SAPI   H4X19639  -0.238   1.419   9.993  0.0508 -0.0203 -0.1658
  173SAPI   H4Y19640  -0.128   1.291   9.918 -1.4575 -0.0207  2.0299
  173SAPI   C3519641  -0.165   1.466   9.793 -0.0762  0.0665 -0.1371
  173SAPI   H5X19642  -0.061   1.476   9.756 -0.0244  1.8806  0.4023
  173SAPI   H5Y19643  -0.203   1.569   9.809 -0.3478  0.0031 -0.3806
  173SAPI   C3619644  -0.233   1.391   9.687  0.4281 -0.1812  0.8769
  173SAPI   H6X19645  -0.325   1.340   9.724  1.6119 -3.6006 -0.5578
  173SAPI   H6Y19646  -0.178   1.296   9.670 -0.4123 -0.6227  0.5875
  173SAPI   C3719647  -0.245   1.466   9.556  0.9410 -0.4741  0.2600
  173SAPI   H7X19648  -0.168   1.547   9.553 -0.6645  1.0874 -1.0895
  173SAPI   H7Y19649  -0.344   1.516   9.560  2.1505  2.3710 -1.9352
  173SAPI   C3819650  -0.209   1.370   9.444 -0.7444  0.3223  0.9678
  173SAPI   H8X19651  -0.275   1.282   9.462 -1.4155  0.2993 -1.1983
  173SAPI   H8Y19652  -0.103   1.340   9.455 -0.4581  1.0164  0.2378
  173SAPI   C3919653  -0.223   1.428   9.303 -0.3349  0.7906 -0.3806
  173SAPI   H9X19654  -0.176   1.527   9.282 -0.4784  1.1045  0.7525
  173SAPI   H9Y19655  -0.329   1.455   9.287  0.1103  1.3095 -2.9785
  173SAPI  C31019656  -0.184   1.318   9.197 -0.1639  0.2499 -0.0185
  173SAPI  H10X19657  -0.280   1.268   9.176 -0.0819 -0.3408  0.9210
  173SAPI  H10Y19658  -0.129   1.239   9.253 -3.1138 -0.3344  2.2603
  173SAPI  C31119659  -0.113   1.374   9.070 -0.8931  0.8855  0.2506
  173SAPI  H11X19660  -0.103   1.286   9.003  0.3433  1.2352 -0.0369
  173SAPI  H11Y19661  -0.013   1.409   9.103 -0.9744  1.4358 -0.0685
  173SAPI  C31219662  -0.183   1.491   8.993 -1.0950  0.3216 -0.8782
  173SAPI  H12X19663  -0.201   1.577   9.061  4.0551  1.5443 -0.6318
  173SAPI  H12Y19664  -0.275   1.446   8.952 -0.8430  0.7414 -1.9411
  173SAPI  C31319665  -0.096   1.552   8.874 -0.1627  0.3583  0.8281
  173SAPI  H13X19666  -0.062   1.458   8.826  0.0829 -0.0938  1.8612
  173SAPI  H13Y19667  -0.002   1.594   8.916 -1.4181  2.2790  1.8603
  173SAPI  C31419668  -0.171   1.652   8.785 -0.0614  0.3357 -0.2623
  173SAPI  H14X19669  -0.087   1.707   8.739 -0.6332  0.9469 -0.5898
  173SAPI  H14Y19670  -0.214   1.729   8.853 -2.1318  0.2043 -1.3500
  173SAPI  C31519671  -0.279   1.604   8.694 -0.6972 -0.3864  0.3212
  173SAPI  H15X19672  -0.378   1.588   8.743 -0.7920  1.0617  0.6538
  173SAPI  H15Y19673  -0.245   1.512   8.641 -2.2156 -0.5521 -0.4344
  173SAPI  C31619674  -0.301   1.703   8.574  0.9289  0.0446 -0.2078
  173SAPI  H16X19675  -0.210   1.699   8.510  0.9639  0.2605 -0.1726
  173SAPI  H16Y19676  -0.340   1.804   8.596  1.5537  0.4429 -0.8847
  173SAPI  C31719677  -0.414   1.643   8.479  0.5506 -0.6850  0.4744
  173SAPI  H17X19678  -0.395   1.540   8.444 -1.9023 -0.1956 -2.7646
  173SAPI  H17Y19679  -0.413   1.708   8.389 -0.9387 -0.0375  0.8853
  173SAPI  C31819680  -0.562   1.648   8.535 -0.5339  0.4092  0.2192
  173SAPI  H18X19681  -0.581   1.755   8.559  1.7791  1.0852 -0.6843
  173SAPI  H18Y19682  -0.576   1.586   8.626 -1.2751 -1.6576 -1.2333
  173SAPI  H18Z19683  -0.635   1.612   8.460  0.7987 -4.1728  0.8711
  174SAPI   C1219684   2.697   2.602  10.764 -0.1565 -0.7832 -0.1402
  174SAPI    H219685   2.726   2.595  10.871  0.0583 -0.1266 -0.1471
  174SAPI    O219686   2.796   2.670  10.688 -0.0078 -0.3418 -0.0726
  174SAPI   HO219687   2.787   2.764  10.704 -0.2777 -0.5723  1.2030
  174SAPI   C1319688   2.686   2.463  10.716  0.0219  0.3810  0.4914
  174SAPI    H319689   2.614   2.414  10.785  0.3973  1.5611  1.7557
  174SAPI    O319690   2.805   2.391  10.738  0.2222  0.2714  0.2008
  174SAPI   HO319691   2.873   2.437  10.689 -0.1062  0.3723 -0.1609
  174SAPI   C1419692   2.643   2.468  10.567 -0.1988 -0.0051 -0.3687
  174SAPI    H419693   2.718   2.515  10.500 -1.1161  1.7642 -0.2213
  174SAPI    O419694   2.631   2.332  10.524 -0.3369 -0.1041  0.0161
  174SAPI   HO419695   2.708   2.309  10.472 -0.5217  0.0693 -0.3385
  174SAPI   C1519696   2.509   2.544  10.544 -0.1222 -0.0978 -0.6038
  174SAPI    H519697   2.430   2.483  10.594 -2.3548  0.4202 -3.2483
  174SAPI    O519698   2.477   2.549  10.402  0.1873 -1.1938  0.3182
  174SAPI   HO519699   2.382   2.552  10.391  0.3038  0.6946 -0.4193
  174SAPI   C1619700   2.518   2.680  10.605  0.4366 -0.0778  0.2358
  174SAPI    H619701   2.589   2.744  10.550 -1.0835 -0.7605 -2.7224
  174SAPI    O619702   2.395   2.754  10.587  0.4688  0.0602  0.1289
  174SAPI   HO619703   2.382   2.820  10.655 -1.8569 -0.0777 -0.0719
  174SAPI   C1119704   2.565   2.675  10.751  0.2337 -0.4886 -0.0578
  174SAPI    H119705   2.494   2.606  10.803 -2.0335  0.9792 -1.0401
  174SAPI     P19706   2.611   2.949  10.798  0.5003  0.3802  0.7105
  174SAPI   O1319707   2.735   2.953  10.710 -0.4039 -0.1781  0.2788
  174SAPI   O1419708   2.611   3.026  10.919 -0.3128 -0.1581 -0.1654
  174SAPI   O1219709   2.570   2.793  10.838  0.2463  0.4939 -0.6272
  174SAPI   O1119710   2.485   2.998  10.716  0.4786 -0.6173 -0.1145
  174SAPI    C119711   2.496   3.120  10.635 -0.4582 -0.5448 -0.7581
  174SAPI    HA19712   2.456   3.200  10.701  0.6339 -0.8054  0.2577
  174SAPI    HB19713   2.596   3.139  10.591 -0.5298 -1.1932 -1.2052
  174SAPI    C219714   2.400   3.116  10.511  0.0475 -0.1650 -0.5660
  174SAPI    HS19715   2.303   3.072  10.544  0.6714  0.0486  1.7345
  174SAPI   O2119716   2.471   3.043  10.399  0.3436  0.0170  0.7246
  174SAPI   C2119717   2.387   2.954  10.336  0.0723 -0.3012  0.9426
  174SAPI   O2219718   2.268   2.952  10.350  0.0517  0.2501 -0.4798
  174SAPI   C2219719   2.463   2.877  10.240 -0.0642  0.3615  0.4691
  174SAPI   H2R19720   2.513   2.806  10.310 -1.2693 -1.5906 -0.5711
  174SAPI   H2S19721   2.392   2.822  10.175 -0.8403 -0.9235  2.3223
  174SAPI    C319722   2.364   3.261  10.473 -0.0508 -0.1769  0.0922
  174SAPI    HX19723   2.460   3.314  10.454 -0.3912  0.1555 -0.7010
  174SAPI    HY19724   2.316   3.312  10.559  2.1348  0.2120  1.1618
  174SAPI   O3119725   2.293   3.268  10.352 -0.4723 -0.2076 -0.0410
  174SAPI   C3119726   2.158   3.287  10.357 -0.1123 -0.5476  0.1163
  174SAPI   O3219727   2.089   3.290  10.457 -0.7933 -0.0380  0.2928
  174SAPI   C3219728   2.097   3.312  10.216 -0.0617 -0.0057 -0.5368
  174SAPI   H2X19729   2.119   3.418  10.192 -2.6249  0.5697 -0.6839
  174SAPI   H2Y19730   1.988   3.304  10.237 -0.3776  1.4896 -1.4229
  174SAPI   C2319731   2.566   2.958  10.154  1.1745  0.5438  0.3694
  174SAPI   H3R19732   2.627   3.019  10.224  1.9618 -1.1405  1.1986
  174SAPI   H3S19733   2.519   3.026  10.080  0.2438 -0.0039  0.4347
  174SAPI   C2419734   2.653   2.848  10.094 -0.7128  0.1151  0.1510
  174SAPI   H4R19735   2.582   2.790  10.030 -0.0044 -0.3800 -0.2158
  174SAPI   H4S19736   2.681   2.781  10.178  0.7417  0.5302  0.0259
  174SAPI   C2519737   2.784   2.891  10.023  0.1082 -0.5705  0.0853
  174SAPI   H5R19738   2.860   2.927  10.094 -0.1228 -2.6317  1.4465
  174SAPI   C2619739   2.811   2.883   9.893 -0.6493  0.3618  0.6633
  174SAPI   H6R19740   2.899   2.938   9.856 -0.2970  1.1804  2.5970
  174SAPI   C2719741   2.727   2.826   9.782 -0.4099  0.0929 -0.1878
  174SAPI   H7R19742   2.729   2.879   9.685 -4.8067  2.1301  0.5810
  174SAPI   H7S19743   2.617   2.835   9.800 -0.5935  0.4802 -1.3893
  174SAPI   C2819744   2.744   2.679   9.763  0.0782  0.3227 -0.1203
  174SAPI   H8R19745   2.722   2.616   9.851  2.1829 -1.7530 -0.9562
  174SAPI   C2919746   2.760   2.609   9.648 -0.2296 -0.7519 -0.3815
  174SAPI   H9R19747   2.785   2.502   9.656  0.7136 -0.4534  1.0428
  174SAPI  C21019748   2.771   2.679   9.506 -0.4610  0.0228 -0.4183
  174SAPI  H10R19749   2.871   2.655   9.466  0.2642 -0.4305  1.5558
  174SAPI  H10S19750   2.761   2.789   9.515 -0.1226 -0.1286  2.6986
  174SAPI  C21119751   2.666   2.638   9.402  0.6388  0.3157  0.0898
  174SAPI  H11R19752   2.628   2.536   9.414 -0.4723  0.5976 -0.8992
  174SAPI  C21219753   2.623   2.708   9.293 -0.0027  0.4854  0.6468
  174SAPI  H12R19754   2.556   2.660   9.220  1.2723  2.6837 -2.1815
  174SAPI  C21319755   2.674   2.841   9.252 -0.3820  0.0992 -0.4909
  174SAPI  H13R19756   2.783   2.825   9.261 -0.2555 -0.2946 -2.3065
  174SAPI  H13S19757   2.634   2.920   9.320 -3.3670  0.8268 -2.8670
  174SAPI  C21419758   2.654   2.898   9.111 -0.6056 -0.0335  0.0931
  174SAPI  H14R19759   2.599   2.993   9.100 -0.0715  0.4045  1.1112
  174SAPI  C21519760   2.701   2.854   8.996 -0.6592 -0.7011 -0.0777
  174SAPI  H15R19761   2.676   2.909   8.904  0.4697  0.1601  0.0993
  174SAPI  C21619762   2.797   2.739   8.979 -0.1956 -0.3498  0.3355
  174SAPI  H16R19763   2.734   2.647   8.981  0.2056 -0.6475 -0.3474
  174SAPI  H16S19764   2.868   2.726   9.063  1.4077 -2.0013 -1.1962
  174SAPI  C21719765   2.890   2.755   8.859  0.6611  0.6073  0.0999
  174SAPI  H17R19766   2.964   2.673   8.867 -1.2520 -1.1963  0.4816
  174SAPI  H17S19767   2.939   2.855   8.858  0.7524  0.5772  0.8988
  174SAPI  C21819768   2.816   2.750   8.724 -0.1497 -0.3320  0.3542
  174SAPI  H18R19769   2.748   2.838   8.716 -0.4066 -0.6700 -1.8767
  174SAPI  H18S19770   2.762   2.655   8.705  0.7128 -1.3845  2.8014
  174SAPI  C21919771   2.918   2.769   8.613  0.3032 -0.4692  0.2022
  174SAPI  H19R19772   2.992   2.691   8.640  1.1976  0.3589  0.2091
  174SAPI  H19S19773   2.956   2.873   8.613  0.5083 -0.5412 -0.5541
  174SAPI  C22019774   2.865   2.745   8.470 -0.5968  0.0272  0.2263
  174SAPI  H20R19775   2.772   2.803   8.458 -2.2485 -2.5613 -0.4102
  174SAPI  H20S19776   2.838   2.638   8.457 -0.6220 -0.1002  1.2578
  174SAPI  H20T19777   2.949   2.770   8.401 -0.0380 -0.3656  0.7422
  174SAPI   C3319778   2.147   3.207  10.112  0.5119  0.0553 -0.2768
  174SAPI   H3X19779   2.062   3.186  10.043 -0.8513  0.6989  1.1499
  174SAPI   H3Y19780   2.165   3.105  10.152 -0.8384 -0.3037 -0.5204
  174SAPI   C3419781   2.272   3.257  10.030  0.0106  0.3700  0.7748
  174SAPI   H4X19782   2.352   3.271  10.106 -1.1231 -1.1095  2.3205
  174SAPI   H4Y19783   2.255   3.363   9.999  3.0692  1.6065  2.8098
  174SAPI   C3519784   2.318   3.167   9.912 -0.3437 -0.1724  0.2584
  174SAPI   H5X19785   2.250   3.173   9.824 -1.3006 -0.9961  0.9332
  174SAPI   H5Y19786   2.315   3.063   9.949 -1.0140 -0.0136  0.6626
  174SAPI   C3619787   2.456   3.213   9.872 -0.2293 -0.8464 -0.2311
  174SAPI   H6X19788   2.526   3.206   9.958 -0.7431  0.4662  0.3118
  174SAPI   H6Y19789   2.458   3.322   9.856  1.8291 -1.0938 -2.1767
  174SAPI   C3719790   2.513   3.148   9.746  0.2332 -0.1879 -1.2076
  174SAPI   H7X19791   2.487   3.041   9.752  0.0200 -0.1282 -1.0662
  174SAPI   H7Y19792   2.624   3.140   9.755  0.2369  1.4633  1.7012
  174SAPI   C3819793   2.450   3.211   9.618  0.2138  0.4361  0.5394
  174SAPI   H8X19794   2.426   3.316   9.645  0.5594  0.9065 -0.9153
  174SAPI   H8Y19795   2.361   3.150   9.591  1.3652 -0.2747 -1.8341
  174SAPI   C3919796   2.546   3.224   9.501  0.5763 -0.1368  0.1253
  174SAPI   H9X19797   2.594   3.136   9.454 -0.0407 -0.2930 -0.2186
  174SAPI   H9Y19798   2.633   3.289   9.527  0.1177  0.7417 -0.4855
  174SAPI  C31019799   2.470   3.289   9.382 -0.3613 -0.0699  0.1345
  174SAPI  H10X19800   2.436   3.390   9.411  3.9895  1.0971  1.9669
  174SAPI  H10Y19801   2.388   3.224   9.345 -1.7975  1.3822  0.7093
  174SAPI  C31119802   2.572   3.320   9.263 -0.2134  0.3490 -0.4870
  174SAPI  H11X19803   2.586   3.235   9.192 -1.5563  0.5485 -1.0239
  174SAPI  H11Y19804   2.668   3.351   9.309  0.0208 -1.2254  0.1605
  174SAPI  C31219805   2.529   3.438   9.179  0.5644 -0.3035 -0.4226
  174SAPI  H12X19806   2.554   3.536   9.226 -0.6865 -0.1821  0.0242
  174SAPI  H12Y19807   2.419   3.446   9.180  0.5223 -0.8682  0.0183
  174SAPI  C31319808   2.570   3.429   9.030 -0.0614 -0.6298  0.0081
  174SAPI  H13X19809   2.681   3.419   9.027 -0.0025 -0.0048 -3.2110
  174SAPI  H13Y19810   2.565   3.526   8.976 -0.2917 -0.4344  0.3791
  174SAPI  C31419811   2.497   3.320   8.953  0.0297 -0.5430 -0.6795
  174SAPI  H14X19812   2.389   3.325   8.981  0.4942 -1.1349  1.3592
  174SAPI  H14Y19813   2.535   3.225   8.997  0.8887 -0.1698 -0.5990
  174SAPI  C31519814   2.515   3.337   8.798 -0.0187  0.6779 -0.3568
  174SAPI  H15X19815   2.614   3.382   8.775  0.6842  0.3500  1.8630
  174SAPI  H15Y19816   2.440   3.407   8.754 -0.2933 -0.3170 -1.5151
  174SAPI  C31619817   2.510   3.210   8.704 -0.1422 -0.4053 -0.2773
  174SAPI  H16X19818   2.428   3.223   8.630  0.1886 -0.0300 -0.5852
  174SAPI  H16Y19819   2.495   3.116   8.762 -0.2619  0.1367  0.5777
  174SAPI  C31719820   2.641   3.183   8.618  0.1478  0.1281 -0.5619
  174SAPI  H17X19821   2.717   3.151   8.692 -0.6921 -0.5163  0.0343
  174SAPI  H17Y19822   2.674   3.270   8.558  1.5931 -0.0349 -0.0501
  174SAPI  C31819823   2.621   3.065   8.525 -0.3616  0.0502  0.1085
  174SAPI  H18X19824   2.707   3.036   8.462 -0.6230  2.3311 -1.3955
  174SAPI  H18Y19825   2.540   3.097   8.455  0.9021  1.5910 -0.7200
  174SAPI  H18Z19826   2.582   2.977   8.580 -1.3010  0.3071 -0.1199
  175SAPI   C1219827   4.334   4.913   5.917 -0.3588 -0.4276  0.1180
  175SAPI    H219828   4.380   4.813   5.926 -0.7384 -0.5715  0.4827
  175SAPI    O219829   4.440   5.016   5.909 -0.2061  0.2924  0.4363
  175SAPI   HO219830   4.516   4.967   5.878 -0.4762 -1.0353  1.7730
  175SAPI   C1319831   4.248   4.907   5.792  0.5046 -0.2050  0.7381
  175SAPI    H319832   4.169   4.829   5.807 -0.9421  1.2858  1.1381
  175SAPI    O319833   4.329   4.870   5.677 -0.2457  0.2634  0.1350
  175SAPI   HO319834   4.285   4.894   5.595 -2.6594  0.7336  1.4495
  175SAPI   C1419835   4.174   5.041   5.768  0.4512 -0.3258 -0.2556
  175SAPI    H419836   4.245   5.127   5.768 -0.8939  0.8351  1.0854
  175SAPI    O419837   4.091   5.038   5.649 -0.5148 -0.3714  0.0730
  175SAPI   HO419838   4.077   5.131   5.629  0.0699 -0.7544 -2.4861
  175SAPI   C1519839   4.085   5.069   5.894  0.1934 -0.0947  0.7322
  175SAPI    H519840   4.014   4.983   5.900  0.4204 -0.3909 -0.4989
  175SAPI    O519841   4.028   5.199   5.890  0.2265 -0.4258  0.3699
  175SAPI   HO519842   4.097   5.264   5.908 -0.4310  0.0510  1.2662
  175SAPI   C1619843   4.164   5.064   6.023 -1.0307  0.0478  0.1088
  175SAPI    H619844   4.241   5.143   6.020 -1.1597  0.1509 -0.8583
  175SAPI    O619845   4.078   5.082   6.132 -0.0774 -0.5179  0.4097
  175SAPI   HO619846   4.123   5.152   6.180  2.4330 -2.0894  0.5495
  175SAPI   C1119847   4.239   4.929   6.039 -0.1947 -0.0060  0.3453
  175SAPI    H119848   4.172   4.841   6.025  1.2066 -0.8602 -1.6207
  175SAPI     P19849   4.321   4.813   6.275 -0.0042 -0.1935 -0.7950
  175SAPI   O1319850   4.445   4.832   6.358 -0.1393  1.0844  0.6572
  175SAPI   O1419851   4.298   4.679   6.214  0.4803 -0.6246  0.0297
  175SAPI   O1219852   4.319   4.928   6.160 -0.1000  0.3044  0.2632
  175SAPI   O1119853   4.200   4.837   6.374  0.4872 -0.8576 -0.3893
  175SAPI    C119854   4.180   4.968   6.430 -0.3639 -0.1089 -0.2961
  175SAPI    HA19855   4.231   5.041   6.363 -1.2596  0.2284 -0.6208
  175SAPI    HB19856   4.069   4.976   6.433 -0.2305  2.0698  0.5565
  175SAPI    C219857   4.242   4.977   6.574 -0.3202 -1.0618 -0.0114
  175SAPI    HS19858   4.350   4.959   6.558 -0.1743 -0.3173  0.1102
  175SAPI   O2119859   4.179   4.872   6.653 -0.1896 -0.0265  0.1628
  175SAPI   C2119860   4.249   4.815   6.739 -0.0543  0.0229 -0.4341
  175SAPI   O2219861   4.369   4.833   6.767 -1.2165  0.0041 -0.0401
  175SAPI   C2219862   4.161   4.705   6.792 -0.2569 -0.3680  0.1423
  175SAPI   H2R19863   4.068   4.754   6.829 -0.7682 -0.0717 -1.4865
  175SAPI   H2S19864   4.135   4.629   6.716  1.3870 -1.0479  0.2264
  175SAPI    C319865   4.226   5.116   6.642  0.2154  0.3747 -0.7715
  175SAPI    HX19866   4.116   5.121   6.653  0.2405 -1.4300  0.8371
  175SAPI    HY19867   4.238   5.205   6.576  0.7218  0.0729 -1.0928
  175SAPI   O3119868   4.292   5.126   6.773 -0.5729 -0.2095  0.4036
  175SAPI   C3119869   4.429   5.125   6.771  1.5866 -0.0533  0.2000
  175SAPI   O3219870   4.497   5.128   6.673  0.3129  0.1045 -0.3643
  175SAPI   C3219871   4.487   5.132   6.915 -0.1336  0.2707  0.7648
  175SAPI   H2X19872   4.534   5.232   6.924  0.5785  0.1132 -0.8655
  175SAPI   H2Y19873   4.578   5.067   6.919  1.4604  2.4023  0.9816
  175SAPI   C2319874   4.224   4.640   6.921  0.1644  0.2893  0.2783
  175SAPI   H3R19875   4.261   4.714   6.995 -0.2613 -0.4548  1.2520
  175SAPI   H3S19876   4.318   4.592   6.887 -0.5270 -0.2673 -0.9008
  175SAPI   C2419877   4.149   4.525   6.978 -1.0612 -0.2764  0.2429
  175SAPI   H4R19878   4.140   4.455   6.893  0.1363 -1.4078  0.9900
  175SAPI   H4S19879   4.050   4.557   7.017 -1.6445 -2.1173  0.4020
  175SAPI   C2519880   4.226   4.452   7.089  0.3685 -0.3377 -0.1429
  175SAPI   H5R19881   4.267   4.351   7.071 -0.2292 -0.4202 -1.1670
  175SAPI   C2619882   4.233   4.500   7.218 -0.2433 -0.0029 -0.1044
  175SAPI   H6R19883   4.288   4.431   7.283 -1.5780 -1.5136 -0.5041
  175SAPI   C2719884   4.186   4.629   7.278  0.6500 -0.0861  0.3099
  175SAPI   H7R19885   4.116   4.606   7.361 -0.3953  2.1491  0.1380
  175SAPI   H7S19886   4.124   4.693   7.211  1.6567  1.5467  0.8691
  175SAPI   C2819887   4.302   4.720   7.318 -0.2272 -0.0349 -0.4507
  175SAPI   H8R19888   4.349   4.775   7.235 -0.0457 -0.0996 -0.3915
  175SAPI   C2919889   4.356   4.729   7.439 -0.5036 -0.3453  1.0187
  175SAPI   H9R19890   4.437   4.802   7.447  0.6158 -1.3393 -0.6123
  175SAPI  C21019891   4.307   4.644   7.557  0.0330 -0.5636 -0.2160
  175SAPI  H10R19892   4.297   4.535   7.539  1.0155 -0.7225  0.1767
  175SAPI  H10S19893   4.204   4.675   7.584 -0.2426 -2.3554  0.9471
  175SAPI  C21119894   4.401   4.661   7.670  0.5101 -0.4728  0.1960
  175SAPI  H11R19895   4.486   4.728   7.650  0.2819 -0.0616  0.5836
  175SAPI  C21219896   4.392   4.594   7.788 -0.7270  0.1111 -0.3419
  175SAPI  H12R19897   4.478   4.601   7.855 -0.3208  1.9828 -1.0006
  175SAPI  C21319898   4.277   4.499   7.826 -0.1180  0.0958 -0.3196
  175SAPI  H13R19899   4.173   4.517   7.794 -1.5470 -2.9158  2.1781
  175SAPI  H13S19900   4.263   4.500   7.936  0.2886 -0.7554 -0.2501
  175SAPI  C21419901   4.304   4.358   7.796 -0.2636 -0.2611 -0.1819
  175SAPI  H14R19902   4.409   4.332   7.815  0.0821  0.1694 -1.4342
  175SAPI  C21519903   4.232   4.263   7.731 -0.3100 -0.4212  0.2425
  175SAPI  H15R19904   4.280   4.164   7.723  1.7503  0.6253 -1.2755
  175SAPI  C21619905   4.089   4.277   7.676  0.0197 -0.3995  0.7071
  175SAPI  H16R19906   4.068   4.184   7.619  1.5532 -0.7666  0.7090
  175SAPI  H16S19907   4.081   4.359   7.602 -0.0881  0.8474  2.0606
  175SAPI  C21719908   3.980   4.316   7.774  0.3789  0.2354 -0.4281
  175SAPI  H17R19909   3.885   4.330   7.717  1.4992 -1.7012 -2.9906
  175SAPI  H17S19910   4.016   4.412   7.818  0.5484  0.8822 -1.9068
  175SAPI  C21819911   3.945   4.216   7.888  0.4025  0.1120  0.2274
  175SAPI  H18R19912   4.026   4.145   7.918  0.7761  0.1411 -0.6776
  175SAPI  H18S19913   3.863   4.149   7.854 -1.8128  1.0132  3.2916
  175SAPI  C21919914   3.878   4.286   8.003  0.3684 -0.3698  0.2758
  175SAPI  H19R19915   3.821   4.213   8.064  1.1388  1.5023  3.4740
  175SAPI  H19S19916   3.805   4.359   7.962  0.6567 -1.4209 -2.3140
  175SAPI  C22019917   3.974   4.359   8.092  0.0002 -0.4772  0.1713
  175SAPI  H20R19918   4.057   4.295   8.129  0.9098  1.3520  1.4706
  175SAPI  H20S19919   3.925   4.408   8.179  1.6007 -0.7258  1.2717
  175SAPI  H20T19920   4.025   4.441   8.037  0.0704  1.3016  2.6849
  175SAPI   C3319921   4.388   5.111   7.034 -0.4026 -0.7550  0.0232
  175SAPI   H3X19922   4.335   5.013   7.036 -0.2310 -0.8496  0.0577
  175SAPI   H3Y19923   4.305   5.184   7.031 -3.0955 -3.4960  1.7217
  175SAPI   C3419924   4.470   5.128   7.161 -0.1732 -0.0944 -0.1148
  175SAPI   H4X19925   4.529   5.222   7.147 -0.7756  0.6106  1.7332
  175SAPI   H4Y19926   4.537   5.040   7.165 -1.4402 -1.1457 -1.1127
  175SAPI   C3519927   4.381   5.136   7.289  0.0942  0.3782  0.4023
  175SAPI   H5X19928   4.306   5.053   7.293  0.7314 -0.2971 -1.0226
  175SAPI   H5Y19929   4.337   5.238   7.286  0.3996  0.5618 -3.3232
  175SAPI   C3619930   4.474   5.107   7.407 -0.6159  0.4229 -0.2380
  175SAPI   H6X19931   4.564   5.172   7.410 -0.0203 -0.3601  3.6738
  175SAPI   H6Y19932   4.500   5.000   7.402  0.1584  0.5102  1.5147
  175SAPI   C3719933   4.390   5.124   7.535  0.2564 -0.3830 -0.6196
  175SAPI   H7X19934   4.295   5.066   7.526  0.6571 -1.4137  1.2045
  175SAPI   H7Y19935   4.358   5.230   7.538 -0.1239 -0.5072  0.2087
  175SAPI   C3819936   4.452   5.084   7.668  0.0780  0.4596  0.2476
  175SAPI   H8X19937   4.535   5.157   7.677 -1.1965  2.0756 -0.6285
  175SAPI   H8Y19938   4.506   4.988   7.651  1.6964  1.2833  0.5536
  175SAPI   C3919939   4.348   5.074   7.779 -0.4167  0.1099  0.2218
  175SAPI   H9X19940   4.280   4.988   7.760  1.8642 -1.5167 -1.1430
  175SAPI   H9Y19941   4.290   5.168   7.782  0.9730  1.0494 -0.9714
  175SAPI  C31019942   4.417   5.037   7.911 -0.1171 -0.3978 -0.3363
  175SAPI  H10X19943   4.465   5.129   7.952 -0.1916 -0.7550  0.5796
  175SAPI  H10Y19944   4.473   4.943   7.892 -1.2784 -1.5707  1.7292
  175SAPI  C31119945   4.322   5.000   8.020  0.3246  0.3849 -0.0793
  175SAPI  H11X19946   4.269   4.910   7.982  1.0788  0.1167 -0.5156
  175SAPI  H11Y19947   4.251   5.085   8.030 -0.0482 -0.0777  1.6714
  175SAPI  C31219948   4.390   4.959   8.150 -0.3050 -0.0430 -0.7112
  175SAPI  H12X19949   4.465   5.039   8.167 -1.5896  0.9557  0.5339
  175SAPI  H12Y19950   4.442   4.862   8.142  0.5235  0.4713 -1.9421
  175SAPI  C31319951   4.295   4.970   8.270  0.5096  0.6238  0.0009
  175SAPI  H13X19952   4.237   4.875   8.277 -0.8361  1.4431  0.2119
  175SAPI  H13Y19953   4.225   5.054   8.250  2.1569  1.3197 -3.7352
  175SAPI  C31419954   4.373   4.981   8.404  0.1013 -0.0591 -0.0539
  175SAPI  H14X19955   4.439   4.892   8.418 -0.3952  0.0230  3.8667
  175SAPI  H14Y19956   4.304   4.998   8.489 -0.4298  0.5609 -0.5999
  175SAPI  C31519957   4.467   5.107   8.408  0.4826 -0.1750  0.7547
  175SAPI  H15X19958   4.402   5.196   8.408 -0.3826 -0.7940  0.4089
  175SAPI  H15Y19959   4.536   5.110   8.321 -0.6088 -4.4607 -0.5122
  175SAPI  C31619960   4.535   5.124   8.547 -0.0986 -0.4277  0.6708
  175SAPI  H16X19961   4.588   5.027   8.546 -0.2317 -0.4983  0.4242
  175SAPI  H16Y19962   4.451   5.130   8.620 -0.5802 -0.3507  0.1254
  175SAPI  C31719963   4.603   5.259   8.552  0.1352  0.6026 -0.0457
  175SAPI  H17X19964   4.520   5.331   8.540 -2.6331 -2.0915  1.3763
  175SAPI  H17Y19965   4.668   5.275   8.464 -0.4821  1.2335 -0.3966
  175SAPI  C31819966   4.676   5.273   8.692  0.2187 -0.3299 -0.1712
  175SAPI  H18X19967   4.709   5.378   8.704  2.0063 -0.9472  0.8763
  175SAPI  H18Y19968   4.758   5.197   8.701  0.0499 -0.8195 -2.3338
  175SAPI  H18Z19969   4.598   5.261   8.770 -1.4277 -0.2853 -1.7596
  176SAPI   C1219970   5.010   3.092   6.311  0.6495 -0.2210 -0.1768
  176SAPI    H219971   5.024   3.060   6.416 -0.1130 -1.1362 -0.3483
  176SAPI    O219972   5.141   3.133   6.282  0.2657  0.1359 -0.5902
  176SAPI   HO219973   5.165   3.203   6.343  0.0632  1.4046 -1.9130
  176SAPI   C1319974   4.960   2.968   6.227  0.7551 -0.1782 -1.0192
  176SAPI    H319975   4.866   2.946   6.282  2.2694  3.2551  3.6644
  176SAPI    O319976   5.045   2.854   6.239 -0.1817  0.3497 -0.3067
  176SAPI   HO319977   5.038   2.832   6.333 -0.2215  2.3077  0.1957
  176SAPI   C1419978   4.937   3.012   6.077 -0.7854 -1.1618  0.0984
  176SAPI    H419979   5.038   3.048   6.046 -1.4480  1.4597  0.7627
  176SAPI    O419980   4.900   2.908   5.991  0.6169  0.4234 -0.1830
  176SAPI   HO419981   4.964   2.837   6.001  0.8830  0.7513  0.5483
  176SAPI   C1519982   4.848   3.134   6.067  0.4576 -0.2075  0.2301
  176SAPI    H519983   4.749   3.101   6.105  0.1725  0.7828  0.3559
  176SAPI    O519984   4.838   3.181   5.935 -0.9091  0.4028 -0.9902
  176SAPI   HO519985   4.802   3.270   5.923  0.1061  1.0187  0.2473
  176SAPI   C1619986   4.890   3.251   6.157 -0.1964  0.0113 -0.3211
  176SAPI    H619987   4.987   3.289   6.119  0.5484 -0.1194  1.3478
  176SAPI    O619988   4.793   3.357   6.146  0.3189  0.2332 -0.4270
  176SAPI   HO619989   4.713   3.342   6.197  0.6705  0.4970  0.2196
  176SAPI   C1119990   4.913   3.208   6.297 -0.7636  0.6056 -0.3865
  176SAPI    H119991   4.816   3.165   6.330 -0.1168  0.2228  1.1074
  176SAPI     P19992   4.835   3.374   6.497  0.3184 -0.1436 -0.0581
  176SAPI   O1319993   4.691   3.366   6.447 -0.0173  0.6921  0.2745
  176SAPI   O1419994   4.884   3.504   6.549  0.3460  0.4138 -0.2621
  176SAPI   O1219995   4.954   3.307   6.387  0.1991 -0.1686 -0.1247
  176SAPI   O1119996   4.845   3.265   6.612 -0.5514 -0.3158 -0.2822
  176SAPI    C119997   4.967   3.235   6.683  0.2865  0.4942  0.1043
  176SAPI    HA19998   4.985   3.126   6.684 -0.8277  0.2977 -0.1737
  176SAPI    HB19999   5.048   3.292   6.633 -1.9178  1.2764 -2.7952
  176SAPI    C220000   4.959   3.262   6.839  0.2487  0.1078  0.1667
  176SAPI    HS20001   4.911   3.173   6.884 -0.7351  0.2535 -0.5823
  176SAPI   O2120002   4.886   3.382   6.866 -0.0504  0.0600  0.0690
  176SAPI   C2120003   4.757   3.374   6.884  0.5566  0.3361  0.0186
  176SAPI   O2220004   4.684   3.275   6.884 -0.0855  0.3303 -0.3777
  176SAPI   C2220005   4.703   3.519   6.886 -0.5857  0.3477 -0.7280
  176SAPI   H2R20006   4.768   3.584   6.949 -0.5452 -1.1115  0.8058
  176SAPI   H2S20007   4.716   3.553   6.781  1.1090  1.1923 -0.2786
  176SAPI    C320008   5.114   3.273   6.895 -0.0898  0.3212  0.7872
  176SAPI    HX20009   5.169   3.347   6.835 -0.2316  1.5488  2.1093
  176SAPI    HY20010   5.152   3.171   6.871 -1.2560  0.0733 -0.0769
  176SAPI   O3120011   5.110   3.312   7.031  0.1211  0.2239 -0.3235
  176SAPI   C3120012   5.184   3.240   7.115  0.2922 -0.2324  0.3444
  176SAPI   O3220013   5.251   3.140   7.084  0.4754 -0.7567  0.1741
  176SAPI   C3220014   5.167   3.294   7.256 -0.1083  0.6984 -0.7273
  176SAPI   H2X20015   5.061   3.308   7.286  0.0368 -2.0988  1.5917
  176SAPI   H2Y20016   5.209   3.397   7.255  0.9012  0.4663  2.9922
  176SAPI   C2320017   4.554   3.518   6.933 -0.0726 -0.1937  0.5446
  176SAPI   H3R20018   4.488   3.460   6.864 -0.4870  0.1639  0.6326
  176SAPI   H3S20019   4.524   3.625   6.926 -0.3514 -0.3332 -0.6905
  176SAPI   C2420020   4.540   3.489   7.084 -0.2426  0.0725  0.4025
  176SAPI   H4R20021   4.624   3.537   7.139  0.6799  0.4144 -1.2413
  176SAPI   H4S20022   4.545   3.379   7.101 -0.4588  0.0015  0.0122
  176SAPI   C2520023   4.403   3.525   7.133 -0.6100 -0.1410 -0.1648
  176SAPI   H5R20024   4.317   3.496   7.072 -0.1558 -0.5397 -0.6201
  176SAPI   C2620025   4.368   3.588   7.245  0.1320  0.3892 -0.0784
  176SAPI   H6R20026   4.259   3.605   7.257  0.0419  0.2056 -0.6060
  176SAPI   C2720027   4.451   3.655   7.349 -0.2107 -0.1208  0.2760
  176SAPI   H7R20028   4.398   3.730   7.413  1.3555 -0.6133  2.2449
  176SAPI   H7S20029   4.528   3.712   7.294  0.8021 -1.0841  0.6636
  176SAPI   C2820030   4.524   3.562   7.445 -0.0714 -0.4886  0.0324
  176SAPI   H8R20031   4.543   3.463   7.400 -0.2026  0.0248 -1.2050
  176SAPI   C2920032   4.561   3.591   7.567 -0.3948  0.7326 -0.4308
  176SAPI   H9R20033   4.615   3.513   7.621  2.0380  1.0138 -2.2843
  176SAPI  C21020034   4.544   3.725   7.638 -0.0802 -0.0132 -0.1674
  176SAPI  H10R20035   4.434   3.737   7.633 -0.3474 -1.4121  1.4761
  176SAPI  H10S20036   4.564   3.812   7.572 -1.9191 -0.0069 -0.7720
  176SAPI  C21120037   4.622   3.745   7.764  0.2931 -0.2256  0.0166
  176SAPI  H11R20038   4.729   3.718   7.772  0.5717  1.0725  0.9815
  176SAPI  C21220039   4.572   3.804   7.875  0.9929 -0.9423 -0.6898
  176SAPI  H12R20040   4.639   3.818   7.962  0.8742 -1.6831 -0.4684
  176SAPI  C21320041   4.429   3.851   7.893 -0.3254 -0.2949 -0.5717
  176SAPI  H13R20042   4.369   3.767   7.935  3.1957 -1.9490  1.6594
  176SAPI  H13S20043   4.396   3.894   7.797  1.8760 -0.0005 -1.2590
  176SAPI  C21420044   4.424   3.969   7.985  0.2315  0.4298 -0.1777
  176SAPI  H14R20045   4.446   4.069   7.943  1.9635  0.5984  0.9965
  176SAPI  C21520046   4.361   3.968   8.102  0.2626 -0.1953  0.1072
  176SAPI  H15R20047   4.361   4.065   8.154  1.7529 -0.0204 -0.1819
  176SAPI  C21620048   4.288   3.858   8.175  0.0999  0.4010  0.5384
  176SAPI  H16R20049   4.356   3.841   8.262 -2.1666  0.5610  2.4297
  176SAPI  H16S20050   4.274   3.762   8.122  0.1407 -0.2508  1.6728
  176SAPI  C21720051   4.155   3.904   8.230  0.3514 -0.0081  0.1450
  176SAPI  H17R20052   4.101   3.826   8.288  0.9638 -1.3982 -1.0950
  176SAPI  H17S20053   4.092   3.907   8.139 -0.0369 -0.4725  0.3938
  176SAPI  C21820054   4.153   4.030   8.312 -0.8912  0.0205 -0.7188
  176SAPI  H18R20055   4.046   4.053   8.331 -1.1607 -1.0191 -0.9068
  176SAPI  H18S20056   4.191   4.123   8.265 -0.8347  1.3561  1.7941
  176SAPI  C21920057   4.209   4.003   8.455 -0.2201  0.4960  0.4804
  176SAPI  H19R20058   4.320   3.999   8.445 -0.0193  0.6528  2.3166
  176SAPI  H19S20059   4.159   3.916   8.504 -1.4484  0.3115 -1.0216
  176SAPI  C22020060   4.198   4.132   8.535 -0.3083  0.3092 -0.1050
  176SAPI  H20R20061   4.091   4.161   8.548 -0.1215  0.4134  1.3961
  176SAPI  H20S20062   4.239   4.207   8.465  2.2817 -1.5338 -0.7321
  176SAPI  H20T20063   4.249   4.132   8.634  0.3104  1.0910 -0.4112
  176SAPI   C3320064   5.234   3.196   7.362 -0.2986  0.3327 -0.3051
  176SAPI   H3X20065   5.342   3.182   7.339 -0.3736 -0.3183 -0.2788
  176SAPI   H3Y20066   5.202   3.091   7.345  1.6290 -0.2652 -0.4675
  176SAPI   C3420067   5.205   3.227   7.506 -0.0681 -1.0137 -0.4934
  176SAPI   H4X20068   5.103   3.186   7.525 -1.1316  1.3659 -0.6729
  176SAPI   H4Y20069   5.188   3.335   7.522  2.0330 -0.7893  0.5287
  176SAPI   C3520070   5.293   3.167   7.612 -0.0830 -0.0388 -0.3621
  176SAPI   H5X20071   5.398   3.199   7.601  0.5275 -0.6431  2.7174
  176SAPI   H5Y20072   5.285   3.057   7.597  0.7430 -0.1729  0.1472
  176SAPI   C3620073   5.244   3.201   7.751  0.6566 -0.0072  0.0048
  176SAPI   H6X20074   5.135   3.185   7.756  0.8349 -1.8198 -0.9509
  176SAPI   H6Y20075   5.253   3.307   7.782 -0.9378  0.1217  0.0860
  176SAPI   C3720076   5.315   3.109   7.863  0.4833  0.1752  0.2930
  176SAPI   H7X20077   5.425   3.106   7.854  0.3214 -2.1657 -2.2090
  176SAPI   H7Y20078   5.279   3.005   7.848  1.3840 -0.4596  2.2293
  176SAPI   C3820079   5.272   3.165   7.997 -0.0823  0.3025 -0.1744
  176SAPI   H8X20080   5.162   3.163   8.009 -0.1666  0.6606 -0.8418
  176SAPI   H8Y20081   5.296   3.271   8.016 -0.9738  1.1963 -3.4162
  176SAPI   C3920082   5.350   3.074   8.101 -0.2647 -0.0792  0.5005
  176SAPI   H9X20083   5.456   3.075   8.068 -0.2519  0.7605  0.5418
  176SAPI   H9Y20084   5.315   2.970   8.087 -0.6717  0.3909 -2.6702
  176SAPI  C31020085   5.322   3.119   8.241 -0.6582  0.5888 -0.3005
  176SAPI  H10X20086   5.216   3.102   8.267 -1.1465  0.4587 -2.2427
  176SAPI  H10Y20087   5.333   3.229   8.249  0.0906  0.4676  0.6056
  176SAPI  C31120088   5.416   3.049   8.343 -0.2809 -0.4166 -0.2283
  176SAPI  H11X20089   5.519   3.090   8.352  0.1528 -1.7831  1.8320
  176SAPI  H11Y20090   5.434   2.942   8.317  0.0059 -0.1316 -1.2178
  176SAPI  C31220091   5.354   3.066   8.484 -0.2846  0.9489  0.7931
  176SAPI  H12X20092   5.252   3.025   8.499 -0.6664  1.0296 -1.2066
  176SAPI  H12Y20093   5.359   3.174   8.510  1.1611  1.0967  0.0715
  176SAPI  C31320094   5.428   2.987   8.596  0.1065  0.4492 -0.5494
  176SAPI  H13X20095   5.392   3.020   8.696  1.8515 -0.1601  0.3179
  176SAPI  H13Y20096   5.533   3.022   8.602  0.1613  0.4767 -1.5059
  176SAPI  C31420097   5.418   2.834   8.583 -0.2940  0.5146  0.0552
  176SAPI  H14X20098   5.463   2.799   8.487  0.0323 -0.5176  0.5712
  176SAPI  H14Y20099   5.310   2.813   8.567  0.2221 -0.9240 -1.9893
  176SAPI  C31520100   5.479   2.757   8.704 -0.1265 -0.5498 -0.2740
  176SAPI  H15X20101   5.417   2.773   8.794 -0.8742  0.1631 -0.8942
  176SAPI  H15Y20102   5.581   2.797   8.719 -0.9209  1.6150 -0.3660
  176SAPI  C31620103   5.492   2.604   8.681  0.3619 -0.0068 -0.0937
  176SAPI  H16X20104   5.553   2.564   8.765  0.3028  0.2279  0.0630
  176SAPI  H16Y20105   5.547   2.575   8.590  0.0073  1.4837 -0.8253
  176SAPI  C31720106   5.360   2.535   8.696 -0.5218 -0.5836 -0.5764
  176SAPI  H17X20107   5.278   2.571   8.630 -0.6951 -1.0776 -0.6332
  176SAPI  H17Y20108   5.318   2.553   8.798 -0.8151  0.5995 -0.8917
  176SAPI  C31820109   5.369   2.387   8.674 -0.4426  0.2310 -0.7129
  176SAPI  H18X20110   5.474   2.354   8.689 -0.1464  1.6305  0.4722
  176SAPI  H18Y20111   5.333   2.371   8.570 -1.5918  1.1366 -0.4777
  176SAPI  H18Z20112   5.306   2.326   8.741  0.0176 -1.2022 -1.5394
  177SLPC     N20113   3.314   1.044  10.595 -0.4405 -0.7420  0.3324
  177SLPC   C1320114   3.215   1.124  10.669 -0.6105  0.2740  0.2215
  177SLPC  H13A20115   3.268   1.203  10.719  1.4932 -1.2808  0.5834
  177SLPC  H13B20116   3.140   1.168  10.605  0.5352  0.4930 -1.0076
  177SLPC  H13C20117   3.171   1.055  10.740  1.9135 -1.3306  0.3518
  177SLPC   C1420118   3.238   0.939  10.523  0.0348  0.4675  0.6963
  177SLPC  H14A20119   3.302   0.881  10.459 -0.5710  0.8200 -0.2442
  177SLPC  H14B20120   3.183   0.867  10.583 -1.6021  1.3523  0.3192
  177SLPC  H14C20121   3.171   0.987  10.454  0.6635  1.7785  0.9518
  177SLPC   C1520122   3.409   0.984  10.693 -0.8228  0.0119 -0.3154
  177SLPC  H15A20123   3.499   0.948  10.644  0.4047  2.3428  0.0857
  177SLPC  H15B20124   3.449   1.058  10.760  0.0681  0.1119 -0.9277
  177SLPC  H15C20125   3.369   0.908  10.758 -0.6466  1.6900  1.8720
  177SLPC   C1220126   3.388   1.125  10.489  0.3226 -0.1658 -0.6376
  177SLPC  H12A20127   3.313   1.161  10.421  0.0333  2.3528  0.8844
  177SLPC  H12B20128   3.445   1.051  10.435  0.6669 -1.6198  1.5778
  177SLPC   C1120129   3.476   1.249  10.525 -0.1764 -0.2630  0.2312
  177SLPC  H11A20130   3.542   1.281  10.442 -0.0463  2.3729  1.2495
  177SLPC  H11B20131   3.544   1.210  10.604  0.5653 -0.9417 -0.7297
  177SLPC     P20132   3.432   1.441  10.697 -0.2270 -0.0312  0.2251
  177SLPC   O1320133   3.383   1.575  10.682  0.6244 -0.9107 -0.4241
  177SLPC   O1420134   3.369   1.363  10.811 -0.0599 -0.1811 -0.7791
  177SLPC   O1220135   3.399   1.358  10.566 -0.0694  0.2036 -0.1134
  177SLPC   O1120136   3.591   1.432  10.711  0.2649 -0.0348  0.0816
  177SLPC    C120137   3.659   1.558  10.706  0.3434  0.1129 -0.4679
  177SLPC    HA20138   3.614   1.645  10.758  2.0131  0.4640  0.4827
  177SLPC    HB20139   3.749   1.540  10.769  1.3103 -0.1303 -1.8697
  177SLPC    C220140   3.690   1.612  10.558  0.6005  0.3792 -0.8602
  177SLPC    HS20141   3.595   1.629  10.503  0.8107 -0.9602 -1.6823
  177SLPC   O2120142   3.766   1.515  10.494  0.0845 -0.0533 -0.3984
  177SLPC   C2120143   3.758   1.517  10.360  0.1490 -0.0388 -0.4136
  177SLPC   O2220144   3.680   1.581  10.295 -0.0956  0.0570  0.2461
  177SLPC   C2220145   3.843   1.416  10.298 -0.5092 -0.0217  0.7395
  177SLPC   H2R20146   3.953   1.420  10.305 -0.2504 -1.6660 -1.2627
  177SLPC   H2S20147   3.818   1.320  10.349 -2.2553  0.4508  0.8521
  177SLPC    C320148   3.756   1.754  10.550  0.3070  0.0071 -0.3339
  177SLPC    HX20149   3.852   1.751  10.605  1.4160 -1.8354 -2.2143
  177SLPC    HY20150   3.709   1.832  10.614  2.4928  0.5513  0.6966
  177SLPC   O3120151   3.786   1.804  10.417  0.2015  0.0481  0.2414
  177SLPC   C3120152   3.706   1.893  10.363 -0.4925  0.2070  0.6463
  177SLPC   O3220153   3.612   1.952  10.415 -0.1068  0.3381  0.9966
  177SLPC   C3220154   3.745   1.918  10.216 -0.1055  0.2327  0.5099
  177SLPC   H2X20155   3.771   1.822  10.167  0.0766 -0.0268  1.1032
  177SLPC   H2Y20156   3.830   1.988  10.202  0.5759 -0.8490 -0.9849
  177SLPC   C2320157   3.808   1.404  10.144 -0.1783 -0.0613 -0.7532
  177SLPC   H3R20158   3.698   1.408  10.129 -0.3484  1.5031  0.5626
  177SLPC   H3S20159   3.838   1.298  10.130  1.6524  0.2269  0.5228
  177SLPC   C2420160   3.887   1.500  10.056  0.6148  0.1582  0.1878
  177SLPC   H4R20161   3.993   1.469  10.051  0.2240 -1.1074 -0.8885
  177SLPC   H4S20162   3.874   1.594  10.114 -0.8951  0.3858 -0.4665
  177SLPC   C2520163   3.825   1.510   9.919 -0.5066 -0.5391 -0.3063
  177SLPC   H5R20164   3.891   1.570   9.853  1.1083 -0.4163  1.3490
  177SLPC   H5S20165   3.727   1.561   9.929 -0.1479  0.6016 -2.1667
  177SLPC   C2620166   3.812   1.381   9.841 -0.6356 -0.1111  0.5043
  177SLPC   H6R20167   3.750   1.307   9.895 -0.2013 -1.9202 -1.3591
  177SLPC   H6S20168   3.915   1.339   9.838 -0.5445  0.1812 -1.6744
  177SLPC   C2720169   3.756   1.399   9.703  0.5595 -0.0777  0.2506
  177SLPC   H7R20170   3.803   1.477   9.640 -0.0067 -1.3842 -1.8659
  177SLPC   H7S20171   3.653   1.432   9.725  0.5925  0.1431  0.0686
  177SLPC   C2820172   3.741   1.264   9.625  0.1833 -0.6856  0.5235
  177SLPC   H8R20173   3.647   1.281   9.568  0.6829  3.0535  0.5284
  177SLPC   H8S20174   3.722   1.175   9.689  0.6579 -2.1949 -1.3615
  177SLPC   C2920175   3.856   1.234   9.534  0.0699  0.5691 -0.2199
  177SLPC   H9R20176   3.924   1.151   9.559  1.4345  1.1487 -1.7565
  177SLPC  C21020177   3.868   1.299   9.417 -0.0527  0.0598 -0.6159
  177SLPC  H10R20178   3.956   1.264   9.361  0.5394  0.0937  0.2702
  177SLPC  C21120179   3.783   1.405   9.352 -0.0401  0.0240 -0.1884
  177SLPC  H11R20180   3.735   1.345   9.272  1.1384 -1.6442  0.3019
  177SLPC  H11S20181   3.716   1.456   9.424 -0.7703 -0.6565 -0.3798
  177SLPC  C21220182   3.863   1.511   9.281 -0.1464  0.4117  0.0459
  177SLPC  H12R20183   3.926   1.561   9.356  0.9584 -0.3098 -0.3683
  177SLPC  C21320184   3.882   1.537   9.152 -0.9179 -0.0831  0.1099
  177SLPC  H13R20185   3.956   1.611   9.119 -0.0261 -0.8792  0.2739
  177SLPC  C21420186   3.815   1.464   9.029 -0.2616 -0.6006 -0.9026
  177SLPC  H14R20187   3.763   1.536   8.962 -1.5037 -1.2305 -0.6383
  177SLPC  H14S20188   3.739   1.389   9.059 -0.2558 -0.0542  0.5576
  177SLPC  C21520189   3.918   1.394   8.949 -0.8200  0.2212  0.0974
  177SLPC  H15R20190   3.976   1.324   9.014 -0.7095 -0.2835 -0.5419
  177SLPC  H15S20191   3.997   1.446   8.890  1.4182 -2.0051  0.9100
  177SLPC  C21620192   3.859   1.300   8.836 -0.3927 -0.2648 -1.1643
  177SLPC  H16R20193   3.802   1.358   8.760  1.9358  2.3402 -1.0678
  177SLPC  H16S20194   3.779   1.235   8.878 -1.6983  0.4790 -2.3947
  177SLPC  C21720195   3.962   1.204   8.767 -0.4380 -0.1490 -0.0835
  177SLPC  H17R20196   4.038   1.184   8.846  0.6063  0.8035 -0.8343
  177SLPC  H17S20197   4.007   1.261   8.684 -2.5029  0.9615 -0.5285
  177SLPC  C21820198   3.890   1.070   8.731 -0.2736  0.2615 -0.3713
  177SLPC  H18R20199   3.802   1.096   8.668 -0.0942 -1.6473 -1.5155
  177SLPC  H18S20200   3.854   1.023   8.825 -0.1920 -0.5088 -0.7142
  177SLPC  H18T20201   3.958   1.004   8.674  0.3788  0.7514 -0.1672
  177SLPC   C3320202   3.639   1.968  10.118  0.2438  0.0250 -0.4679
  177SLPC   H3X20203   3.582   2.057  10.154 -0.5484 -0.2616 -0.9819
  177SLPC   H3Y20204   3.553   1.898  10.108 -0.2060  0.1836  1.7071
  177SLPC   C3420205   3.697   2.001   9.985  0.0489  0.0185  0.8280
  177SLPC   H4X20206   3.784   2.070   9.991  0.3380 -0.3028  0.3915
  177SLPC   H4Y20207   3.623   2.060   9.925  0.1315 -1.0734 -0.3978
  177SLPC   C3520208   3.733   1.876   9.893 -0.3074 -0.6268 -0.2509
  177SLPC   H5X20209   3.647   1.807   9.879 -1.4447  0.7421 -0.2670
  177SLPC   H5Y20210   3.812   1.815   9.942  1.4526  1.0827 -0.8555
  177SLPC   C3620211   3.793   1.906   9.754 -0.3745 -1.0177  0.1892
  177SLPC   H6X20212   3.867   1.989   9.756 -1.5422  0.0456  1.1888
  177SLPC   H6Y20213   3.709   1.945   9.693  1.1165  1.5184 -0.3752
  177SLPC   C3720214   3.851   1.787   9.673 -0.3120 -0.1569 -0.2635
  177SLPC   H7X20215   3.795   1.698   9.709 -1.7495  1.6669  2.3556
  177SLPC   H7Y20216   3.960   1.766   9.687  0.3427  1.2720 -2.6872
  177SLPC   C3820217   3.828   1.795   9.527  0.3066  0.2456  0.4402
  177SLPC   H8X20218   3.727   1.750   9.517  0.8075 -1.0844  1.2119
  177SLPC   H8Y20219   3.904   1.724   9.488 -0.6880 -0.5606 -0.0675
  177SLPC   C3920220   3.853   1.930   9.466 -0.1027  0.0989  0.0282
  177SLPC   H9X20221   3.952   1.976   9.489 -0.1449  0.4025 -0.3942
  177SLPC   H9Y20222   3.778   2.007   9.495  0.7542  0.1559  2.3177
  177SLPC  C31020223   3.859   1.921   9.313  1.1903 -0.1861 -0.4864
  177SLPC  H10X20224   3.903   1.822   9.288  0.9856 -0.4784  0.2768
  177SLPC  H10Y20225   3.928   1.999   9.275  0.9476  1.2885  1.8889
  177SLPC  C31120226   3.725   1.936   9.242 -0.1894 -0.0982  0.2020
  177SLPC  H11X20227   3.672   2.033   9.255 -1.3661 -0.6732 -0.1791
  177SLPC  H11Y20228   3.658   1.864   9.293 -0.3189 -0.3873 -0.3629
  177SLPC  C31220229   3.732   1.897   9.090  0.0819 -0.6468  0.1098
  177SLPC  H12X20230   3.636   1.858   9.049 -0.6451 -0.3908  1.5146
  177SLPC  H12Y20231   3.804   1.814   9.078  1.1875  0.5365 -2.1582
  177SLPC  C31320232   3.771   2.009   8.986 -0.3399  0.2589  0.0414
  177SLPC  H13X20233   3.784   1.970   8.883 -0.3437  1.0854 -0.2828
  177SLPC  H13Y20234   3.867   2.038   9.032 -0.7779  0.0773  1.0949
  177SLPC  C31420235   3.661   2.117   8.977 -0.2084  0.0657  0.1810
  177SLPC  H14X20236   3.639   2.159   9.078 -0.2427  2.0507 -0.6008
  177SLPC  H14Y20237   3.562   2.076   8.947 -0.3905  0.2493  0.5183
  177SLPC  C31520238   3.703   2.226   8.878 -0.2048 -0.1772  0.8625
  177SLPC  H15X20239   3.702   2.190   8.773  0.5591  0.3047  0.6767
  177SLPC  H15Y20240   3.806   2.264   8.897 -0.6105  1.0877  0.6891
  177SLPC  C31620241   3.597   2.339   8.886  0.4094  0.2488  0.5962
  177SLPC  H16X20242   3.574   2.367   8.991  0.0917  1.8640  0.1252
  177SLPC  H16Y20243   3.502   2.307   8.838  0.9437  2.0904 -1.8571
  177SLPC  C31720244   3.642   2.465   8.809  1.0652 -0.0774  0.8499
  177SLPC  H17X20245   3.709   2.527   8.872  0.4976  2.2259 -0.6878
  177SLPC  H17Y20246   3.553   2.526   8.783  1.0328 -1.1413 -1.7994
  177SLPC  C31820247   3.707   2.435   8.682 -0.1700 -0.4741 -0.2471
  177SLPC  H18X20248   3.657   2.352   8.628 -0.7499 -0.1926 -0.1505
  177SLPC  H18Y20249   3.809   2.394   8.702  0.5243  1.2192 -0.1569
  177SLPC  H18Z20250   3.711   2.514   8.604  0.3134 -0.7448 -0.5011
  178SLPC     N20251   1.312   3.786  11.101 -0.1388 -0.5805  1.2647
  178SLPC   C1320252   1.263   3.654  11.054 -0.6106  0.6957 -0.0651
  178SLPC  H13A20253   1.314   3.606  10.972 -0.0982  3.2800 -1.3614
  178SLPC  H13B20254   1.254   3.585  11.136  2.4581  1.7501  1.2901
  178SLPC  H13C20255   1.161   3.678  11.026 -0.5966  1.7269  0.7185
  178SLPC   C1420256   1.449   3.783  11.164  0.4185 -0.0795  0.7061
  178SLPC  H14A20257   1.496   3.878  11.182 -0.2253  0.1582  1.1752
  178SLPC  H14B20258   1.461   3.722  11.253  3.5325  0.9506  1.1174
  178SLPC  H14C20259   1.510   3.745  11.084  1.7715  3.4847 -0.1261
  178SLPC   C1520260   1.213   3.842  11.205 -0.7110  0.4971  0.2936
  178SLPC  H15A20261   1.139   3.895  11.148  0.4026 -0.0915 -1.8343
  178SLPC  H15B20262   1.158   3.764  11.255 -1.2390  1.7690  1.7316
  178SLPC  H15C20263   1.269   3.906  11.271  0.9983  0.5756 -1.1325
  178SLPC   C1220264   1.318   3.885  10.983 -0.1578 -0.8445  0.1733
  178SLPC  H12A20265   1.408   3.867  10.925 -0.6687  1.1080 -1.3349
  178SLPC  H12B20266   1.336   3.983  11.024  1.0237 -2.0249  2.6423
  178SLPC   C1120267   1.191   3.910  10.887 -0.2983  0.2415 -0.2965
  178SLPC  H11A20268   1.186   3.823  10.819 -1.6902  0.3542 -0.3516
  178SLPC  H11B20269   1.206   3.994  10.816 -0.3719  0.5999  0.1095
  178SLPC     P20270   0.939   3.847  10.925  0.1880 -0.3187  0.9666
  178SLPC   O1320271   0.981   3.703  10.935 -0.6834 -0.8157 -0.1090
  178SLPC   O1420272   0.820   3.897  11.001  0.0356  0.0478  0.0361
  178SLPC   O1220273   1.068   3.928  10.960  0.8065 -0.1467 -0.5474
  178SLPC   O1120274   0.914   3.874  10.770  0.0845  0.4979 -0.8328
  178SLPC    C120275   0.915   4.011  10.713  0.9664  0.6337  0.2736
  178SLPC    HA20276   0.982   4.087  10.758  0.3521  1.6014 -0.4276
  178SLPC    HB20277   0.958   4.004  10.610 -0.5701 -0.5013 -0.3336
  178SLPC    C220278   0.770   4.071  10.711  0.7374  0.0962 -0.0894
  178SLPC    HS20279   0.744   4.064  10.818 -0.2776 -4.1284 -0.4401
  178SLPC   O2120280   0.679   3.997  10.628  0.3787  0.7109 -0.2190
  178SLPC   C2120281   0.550   4.003  10.654 -0.4344  0.7758  0.2566
  178SLPC   O2220282   0.497   4.072  10.737 -0.0443 -0.4137 -0.5345
  178SLPC   C2220283   0.484   3.899  10.562 -0.4385 -0.1133 -0.6079
  178SLPC   H2R20284   0.551   3.815  10.534 -0.3351 -0.7645  1.4443
  178SLPC   H2S20285   0.412   3.856  10.634  0.5870  1.5574  1.5367
  178SLPC    C320286   0.770   4.224  10.674 -0.0965 -0.4781 -0.3794
  178SLPC    HX20287   0.827   4.264  10.760  2.5229 -1.7445 -1.3892
  178SLPC    HY20288   0.667   4.264  10.678 -0.9993 -2.7020  0.1704
  178SLPC   O3120289   0.847   4.252  10.552  0.1102 -0.4614  0.3448
  178SLPC   C3120290   0.769   4.260  10.447 -0.4942 -0.6951 -0.3261
  178SLPC   O3220291   0.649   4.275  10.451  0.0332 -0.2499  0.5183
  178SLPC   C3220292   0.864   4.248  10.335  0.2431  0.2417 -0.5491
  178SLPC   H2X20293   0.910   4.147  10.343 -0.4810 -0.0514  0.0005
  178SLPC   H2Y20294   0.943   4.325  10.352  0.3414 -0.1573  0.9296
  178SLPC   C2320295   0.412   3.963  10.438  0.7341 -0.2981  0.4373
  178SLPC   H3R20296   0.363   4.057  10.471 -2.0590 -1.5083  0.0398
  178SLPC   H3S20297   0.340   3.894  10.390 -0.4055  0.6457  0.7486
  178SLPC   C2420298   0.512   3.990  10.328  0.4953 -0.9057 -0.3089
  178SLPC   H4R20299   0.606   4.015  10.383 -0.9438  0.0402  1.8523
  178SLPC   H4S20300   0.478   4.083  10.279  1.0570 -0.8865 -0.6696
  178SLPC   C2520301   0.546   3.879  10.229 -0.0398 -0.0633 -0.0859
  178SLPC   H5R20302   0.545   3.784  10.287 -0.4490  0.0682  0.1322
  178SLPC   H5S20303   0.647   3.883  10.184 -1.0821  0.1451 -2.5648
  178SLPC   C2620304   0.442   3.851  10.115 -0.9533 -0.8009  0.4292
  178SLPC   H6R20305   0.343   3.877  10.159 -1.0163  0.6564 -0.5236
  178SLPC   H6S20306   0.440   3.746  10.081 -1.1805 -0.9536  0.8918
  178SLPC   C2720307   0.463   3.947   9.997  0.6912 -0.4610  0.2860
  178SLPC   H7R20308   0.569   3.965   9.966  0.3326  0.0781 -0.6456
  178SLPC   H7S20309   0.424   4.045  10.031 -1.7178 -0.7778 -1.3701
  178SLPC   C2820310   0.383   3.914   9.870 -0.0809 -0.3436  0.1304
  178SLPC   H8R20311   0.403   3.998   9.800 -2.4437  1.4530  1.4352
  178SLPC   H8S20312   0.281   3.920   9.913 -0.1012  0.1509  0.0271
  178SLPC   C2920313   0.397   3.782   9.808  0.6594 -0.3842  0.3676
  178SLPC   H9R20314   0.493   3.732   9.823 -0.2042 -1.5379  2.4669
  178SLPC  C21020315   0.301   3.725   9.731  0.4337 -0.3804  0.9113
  178SLPC  H10R20316   0.322   3.628   9.683  1.3495  0.9786 -1.6030
  178SLPC  C21120317   0.154   3.775   9.719 -0.1633 -0.2116 -0.4295
  178SLPC  H11R20318   0.140   3.837   9.627 -2.6497  0.9594  0.6377
  178SLPC  H11S20319   0.118   3.845   9.797 -1.1422 -0.2100 -0.8636
  178SLPC  C21220320   0.058   3.665   9.707  0.2391 -1.1209 -0.2626
  178SLPC  H12R20321   0.022   3.618   9.799 -0.2630 -1.7240 -0.7603
  178SLPC  C21320322   0.023   3.604   9.589 -0.1461 -0.1075 -0.2317
  178SLPC  H13R20323  -0.051   3.523   9.596 -1.5095  1.1277  0.4530
  178SLPC  C21420324   0.066   3.635   9.451 -0.3648 -0.7781  0.2514
  178SLPC  H14R20325   0.071   3.540   9.394 -2.5031 -1.8028  1.6260
  178SLPC  H14S20326   0.162   3.691   9.449  0.3707 -2.0168  0.0875
  178SLPC  C21520327  -0.042   3.732   9.388 -0.3337  0.8587 -0.5178
  178SLPC  H15R20328  -0.056   3.821   9.453 -1.2714  0.5379 -0.2660
  178SLPC  H15S20329  -0.132   3.668   9.376 -0.8143  1.4814 -0.2693
  178SLPC  C21620330  -0.008   3.767   9.241  0.1043 -0.5891 -0.0812
  178SLPC  H16R20331   0.102   3.767   9.225 -0.0445 -0.5112 -1.1886
  178SLPC  H16S20332  -0.042   3.872   9.227  3.3748  1.1135  3.1144
  178SLPC  C21720333  -0.069   3.666   9.144 -0.3241  0.3885  0.0448
  178SLPC  H17R20334  -0.167   3.627   9.179  0.5588 -0.7543  1.3439
  178SLPC  H17S20335  -0.003   3.578   9.138 -3.0128 -2.0008  2.2054
  178SLPC  C21820336  -0.108   3.726   9.008 -0.5502  0.3928 -0.3439
  178SLPC  H18R20337  -0.117   3.642   8.936 -0.1921  1.2567 -1.4210
  178SLPC  H18S20338  -0.028   3.801   8.988  1.2659 -0.9383  1.4085
  178SLPC  H18T20339  -0.202   3.783   9.019 -0.1405  0.7831  1.5176
  178SLPC   C3320340   0.778   4.249  10.210 -0.0286 -0.3158  0.0515
  178SLPC   H3X20341   0.731   4.349  10.197  1.0621  0.1029 -0.8257
  178SLPC   H3Y20342   0.700   4.170  10.213 -1.1041  0.6571 -1.1527
  178SLPC   C3420343   0.867   4.243  10.088 -0.1394 -0.4247 -0.0533
  178SLPC   H4X20344   0.945   4.166  10.103 -0.0366 -0.3006  0.0550
  178SLPC   H4Y20345   0.923   4.338  10.071  1.1704 -1.2874 -0.7708
  178SLPC   C3520346   0.800   4.208   9.952 -0.4061  0.6680 -0.0245
  178SLPC   H5X20347   0.713   4.276   9.952  0.6059  2.0076 -0.0214
  178SLPC   H5Y20348   0.768   4.102   9.955  0.3022  0.4638  1.2191
  178SLPC   C3620349   0.886   4.225   9.824 -0.0546 -0.2255  0.4375
  178SLPC   H6X20350   0.973   4.155   9.823  1.8658  2.0063  1.0762
  178SLPC   H6Y20351   0.938   4.323   9.828  0.9296 -0.7405  3.4708
  178SLPC   C3720352   0.803   4.211   9.694 -0.4613 -0.6588  0.0756
  178SLPC   H7X20353   0.864   4.226   9.602 -0.3859 -3.4376 -0.4028
  178SLPC   H7Y20354   0.729   4.293   9.700  1.2176  0.8747  0.9587
  178SLPC   C3820355   0.738   4.085   9.662 -0.6618 -0.3860 -0.0778
  178SLPC   H8X20356   0.669   4.056   9.744  0.4334 -2.0051  0.3309
  178SLPC   H8Y20357   0.812   4.004   9.647  1.7170  1.4725  0.9341
  178SLPC   C3920358   0.653   4.092   9.535 -0.5874  0.7903 -0.2864
  178SLPC   H9X20359   0.729   4.118   9.459 -0.7990  4.4700  0.5941
  178SLPC   H9Y20360   0.579   4.175   9.535 -0.8222  0.5899 -0.6789
  178SLPC  C31020361   0.576   3.960   9.512  0.0591 -0.5819  0.0310
  178SLPC  H10X20362   0.494   3.939   9.584  0.2705  0.2917  0.5438
  178SLPC  H10Y20363   0.642   3.872   9.526  0.8546 -0.2570 -1.4833
  178SLPC  C31120364   0.518   3.961   9.372  0.2997  0.0846  0.0625
  178SLPC  H11X20365   0.593   3.944   9.292  0.0066  1.1355 -0.4419
  178SLPC  H11Y20366   0.475   4.061   9.349  1.8361  0.4994 -1.1265
  178SLPC  C31220367   0.414   3.862   9.340 -0.2119  0.5866  0.3949
  178SLPC  H12X20368   0.316   3.888   9.386 -0.3009  0.4084  0.3077
  178SLPC  H12Y20369   0.440   3.762   9.381 -1.9222 -0.6049 -1.2088
  178SLPC  C31320370   0.399   3.838   9.187 -0.0854 -0.1771 -0.3310
  178SLPC  H13X20371   0.347   3.741   9.172 -0.9327  0.1669  0.2814
  178SLPC  H13Y20372   0.496   3.839   9.134  1.5354  0.9773  2.4582
  178SLPC  C31420373   0.315   3.943   9.108 -0.2780  0.1949  0.3279
  178SLPC  H14X20374   0.349   4.046   9.133 -1.7314  1.3676 -2.1812
  178SLPC  H14Y20375   0.213   3.943   9.151 -0.3608 -0.2134  0.1343
  178SLPC  C31520376   0.322   3.908   8.960 -0.0757 -0.3910 -0.4774
  178SLPC  H15X20377   0.424   3.932   8.923  0.1198  1.6443  1.1553
  178SLPC  H15Y20378   0.294   3.802   8.943 -1.2326  0.1389 -2.0660
  178SLPC  C31620379   0.216   3.984   8.885 -0.2275 -0.0878 -0.9719
  178SLPC  H16X20380   0.235   4.088   8.920  1.5701 -0.2698 -1.3176
  178SLPC  H16Y20381   0.111   3.955   8.905 -0.6858  0.7115 -2.1437
  178SLPC  C31720382   0.238   3.965   8.735 -0.1398 -0.5816 -0.2652
  178SLPC  H17X20383   0.330   3.907   8.714 -0.0370  0.3260 -2.5027
  178SLPC  H17Y20384   0.253   4.066   8.692 -1.5336 -0.7432 -1.1800
  178SLPC  C31820385   0.114   3.904   8.670  0.0758  0.4402  0.8686
  178SLPC  H18X20386   0.027   3.971   8.658 -0.9543 -0.8474  1.0194
  178SLPC  H18Y20387   0.092   3.805   8.716  3.1112 -0.0610  1.4748
  178SLPC  H18Z20388   0.156   3.883   8.569  0.5172 -0.2670  1.1888
  179SLPC     N20389   1.480   1.287  10.176 -0.5778  0.0480  0.2661
  179SLPC   C1320390   1.526   1.364  10.054 -0.2651 -0.8515  0.9272
  179SLPC  H13A20391   1.627   1.334  10.028  0.0178 -0.9218  2.0274
  179SLPC  H13B20392   1.463   1.337   9.971  0.3188 -0.9584  0.5081
  179SLPC  H13C20393   1.528   1.470  10.074 -0.2149 -0.4205 -1.1755
  179SLPC   C1420394   1.365   1.369  10.231  0.2448 -0.2641 -0.2767
  179SLPC  H14A20395   1.317   1.321  10.315  1.9863 -3.0051 -0.6912
  179SLPC  H14B20396   1.406   1.464  10.262  0.5408 -0.5885  0.3362
  179SLPC  H14C20397   1.288   1.392  10.159 -0.3156  1.4900  0.8261
  179SLPC   C1520398   1.594   1.282  10.270 -0.1210 -0.0116  0.1326
  179SLPC  H15A20399   1.636   1.374  10.306  1.6396 -0.8388  0.2810
  179SLPC  H15B20400   1.569   1.226  10.359  0.4981 -0.2246  0.1748
  179SLPC  H15C20401   1.674   1.227  10.223 -0.4288  0.2579 -0.7232
  179SLPC   C1220402   1.455   1.145  10.122 -0.1539  0.0019 -0.1854
  179SLPC  H12A20403   1.540   1.114  10.063 -0.0527  0.1083 -0.0933
  179SLPC  H12B20404   1.374   1.150  10.050  1.1700 -0.9571 -1.8034
  179SLPC   C1120405   1.413   1.038  10.222  0.2347  0.0903 -0.2180
  179SLPC  H11A20406   1.406   0.940  10.169  2.1851 -0.3033  0.1836
  179SLPC  H11B20407   1.312   1.058  10.265  0.2048 -0.0436 -0.2249
  179SLPC     P20408   1.652   0.943  10.306  0.4052 -0.4168 -0.0687
  179SLPC   O1320409   1.737   1.015  10.212  0.0509 -0.1629  0.1530
  179SLPC   O1420410   1.706   0.902  10.438 -0.6172 -0.2776  0.6313
  179SLPC   O1220411   1.511   1.020  10.323 -0.3419  0.1942  0.3119
  179SLPC   O1120412   1.597   0.805  10.240 -0.0134  0.2746 -0.4765
  179SLPC    C120413   1.689   0.713  10.176  0.2607 -0.1234  0.0397
  179SLPC    HA20414   1.790   0.699  10.220  0.2959  0.7913  0.2643
  179SLPC    HB20415   1.632   0.618  10.167 -1.0646  0.5818  0.7036
  179SLPC    C220416   1.704   0.736  10.020  0.7143 -0.2847  1.4345
  179SLPC    HS20417   1.705   0.845   9.999 -0.9349 -0.5713 -0.4196
  179SLPC   O2120418   1.598   0.675   9.945  0.2200 -0.3989  0.1977
  179SLPC   C2120419   1.560   0.739   9.842 -0.4003 -0.6790 -0.3271
  179SLPC   O2220420   1.607   0.840   9.796  0.5221 -0.0952  0.3622
  179SLPC   C2220421   1.443   0.668   9.780  0.0288 -0.5262  0.0066
  179SLPC   H2R20422   1.377   0.640   9.865  0.3740 -1.3784  0.0101
  179SLPC   H2S20423   1.402   0.735   9.701  0.9621 -1.0802 -0.9787
  179SLPC    C320424   1.834   0.665   9.980  0.3959  0.7348  0.2704
  179SLPC    HX20425   1.812   0.564  10.020  0.3540  1.0221  0.9907
  179SLPC    HY20426   1.915   0.713  10.039  1.2772 -0.6048  0.1923
  179SLPC   O3120427   1.866   0.653   9.842  0.1781 -0.2332  0.0143
  179SLPC   C3120428   1.962   0.570   9.810  0.1179 -0.6157 -0.4060
  179SLPC   O3220429   2.040   0.515   9.879 -0.9900  1.0960  0.0564
  179SLPC   C3220430   1.970   0.577   9.657 -0.1801  0.3572 -0.3336
  179SLPC   H2X20431   1.905   0.659   9.620  1.4845  1.1665 -1.6065
  179SLPC   H2Y20432   1.939   0.475   9.625 -0.1922  0.1481  0.3135
  179SLPC   C2320433   1.479   0.536   9.706  0.5805 -0.1978  0.0505
  179SLPC   H3R20434   1.385   0.495   9.664  0.5451  1.0718 -1.1548
  179SLPC   H3S20435   1.523   0.459   9.773 -1.7833 -2.3725 -0.7391
  179SLPC   C2420436   1.569   0.549   9.588 -0.3424  0.3944 -0.3130
  179SLPC   H4R20437   1.567   0.457   9.526  2.7539  0.7858 -1.1953
  179SLPC   H4S20438   1.676   0.550   9.618 -0.5425 -0.3442  0.4705
  179SLPC   C2520439   1.538   0.664   9.503 -0.0970  0.0426  0.2452
  179SLPC   H5R20440   1.565   0.763   9.546  1.8549 -0.4446  0.2193
  179SLPC   H5S20441   1.430   0.682   9.487 -0.4626 -1.2150  1.0739
  179SLPC   C2620442   1.591   0.651   9.352  0.0849 -0.1701  0.1983
  179SLPC   H6R20443   1.516   0.705   9.290 -0.6866 -1.4132  0.0185
  179SLPC   H6S20444   1.583   0.541   9.337  1.0852 -0.2195 -0.0156
  179SLPC   C2720445   1.732   0.698   9.321  0.4310  0.2386  0.0119
  179SLPC   H7R20446   1.807   0.670   9.398 -2.2461 -0.7657  2.4157
  179SLPC   H7S20447   1.719   0.808   9.319 -0.9723  0.0773 -1.1217
  179SLPC   C2820448   1.774   0.685   9.177 -0.3857 -0.1506 -0.5105
  179SLPC   H8R20449   1.851   0.765   9.166 -0.2238 -0.2767 -0.2991
  179SLPC   H8S20450   1.695   0.719   9.107 -0.1848  0.3751 -0.4880
  179SLPC   C2920451   1.823   0.550   9.149 -0.2181  0.5624  0.3552
  179SLPC   H9R20452   1.887   0.505   9.227 -3.0134 -0.4298  2.2134
  179SLPC  C21020453   1.801   0.474   9.038 -1.2087  0.9014 -0.1017
  179SLPC  H10R20454   1.858   0.380   9.043 -1.2596  0.9028  0.8246
  179SLPC  C21120455   1.717   0.505   8.922  0.3385  0.7157 -0.4593
  179SLPC  H11R20456   1.684   0.610   8.938  0.0812  0.2513  2.5641
  179SLPC  H11S20457   1.621   0.453   8.938  1.3452 -0.7372  1.2107
  179SLPC  C21220458   1.773   0.472   8.783 -0.1571 -0.5991  0.4743
  179SLPC  H12R20459   1.741   0.379   8.733  0.2345  0.6332 -2.2394
  179SLPC  C21320460   1.877   0.533   8.720  0.5294  0.3587 -0.4399
  179SLPC  H13R20461   1.911   0.495   8.622  1.5614 -0.0013  0.0379
  179SLPC  C21420462   1.969   0.637   8.775 -0.6151 -0.2675  0.0872
  179SLPC  H14R20463   2.061   0.584   8.808 -0.3092 -0.3540 -0.8780
  179SLPC  H14S20464   1.926   0.682   8.866 -3.8528 -0.1740 -1.3693
  179SLPC  C21520465   2.004   0.752   8.678 -0.5848 -0.2773 -0.3351
  179SLPC  H15R20466   2.086   0.815   8.719 -0.6845  0.2969 -0.9904
  179SLPC  H15S20467   1.916   0.819   8.664 -1.1746 -1.1015 -0.6404
  179SLPC  C21620468   2.052   0.703   8.537  0.2029  0.1492  0.2785
  179SLPC  H16R20469   1.962   0.670   8.480  1.4161  0.3734 -1.8503
  179SLPC  H16S20470   2.132   0.628   8.556  1.5109  2.0910  3.0146
  179SLPC  C21720471   2.113   0.821   8.452  0.0660 -0.3178  0.4572
  179SLPC  H17R20472   2.184   0.886   8.507  0.7798 -1.7729  1.3312
  179SLPC  H17S20473   2.028   0.883   8.416  0.4690  0.4814  0.8671
  179SLPC  C21820474   2.188   0.764   8.324  0.1132  0.1027  0.3006
  179SLPC  H18R20475   2.215   0.851   8.259 -0.2368  0.2743  0.3871
  179SLPC  H18S20476   2.112   0.710   8.265 -1.2167  0.4443  1.6524
  179SLPC  H18T20477   2.275   0.698   8.345  0.2259  0.4583  0.9828
  179SLPC   C3320478   2.112   0.596   9.596  0.8025  0.6809  0.5301
  179SLPC   H3X20479   2.192   0.542   9.651  1.3457  0.5068 -0.4059
  179SLPC   H3Y20480   2.148   0.700   9.611  0.0480  0.7777  1.7840
  179SLPC   C3420481   2.113   0.560   9.452 -0.2134  0.0017  0.1490
  179SLPC   H4X20482   2.030   0.621   9.411 -1.7434 -1.8630  0.3190
  179SLPC   H4Y20483   2.087   0.453   9.438 -0.6955  0.1641 -0.1929
  179SLPC   C3520484   2.240   0.593   9.371 -0.1338 -0.2902  0.2671
  179SLPC   H5X20485   2.327   0.525   9.380  0.1180 -0.1507 -0.8882
  179SLPC   H5Y20486   2.273   0.690   9.414 -1.7923  0.2520  0.3873
  179SLPC   C3620487   2.208   0.606   9.224  0.6378 -0.1730 -0.0627
  179SLPC   H6X20488   2.136   0.690   9.215  0.2774 -0.3993  0.6444
  179SLPC   H6Y20489   2.154   0.519   9.180  0.9506  0.9336 -2.8552
  179SLPC   C3720490   2.335   0.636   9.144 -0.1110  0.9635 -0.0599
  179SLPC   H7X20491   2.408   0.555   9.167 -0.4021  1.6267  3.8847
  179SLPC   H7Y20492   2.388   0.724   9.186 -0.1541  1.5148 -1.1286
  179SLPC   C3820493   2.317   0.682   9.001 -0.1693 -0.0409  0.3690
  179SLPC   H8X20494   2.237   0.759   9.009 -2.1986 -2.0373  0.1538
  179SLPC   H8Y20495   2.265   0.600   8.948  0.9084  0.3569 -1.3794
  179SLPC   C3920496   2.441   0.737   8.925  0.4413  0.4305 -0.0396
  179SLPC   H9X20497   2.506   0.789   9.000 -0.3439 -0.0918  1.0273
  179SLPC   H9Y20498   2.415   0.823   8.860  0.7658  0.8906  0.4299
  179SLPC  C31020499   2.520   0.627   8.848 -0.1730 -0.5940 -0.4087
  179SLPC  H10X20500   2.453   0.560   8.790 -1.1378  0.8775 -1.0582
  179SLPC  H10Y20501   2.572   0.565   8.923 -0.6849  0.1901  0.6293
  179SLPC  C31120502   2.619   0.703   8.757 -0.6609  0.1573  0.3149
  179SLPC  H11X20503   2.678   0.766   8.827 -1.0825  0.5156  0.3532
  179SLPC  H11Y20504   2.572   0.777   8.689 -0.6664  0.0536  0.2049
  179SLPC  C31220505   2.714   0.621   8.674 -0.1314  0.5632 -0.6180
  179SLPC  H12X20506   2.782   0.680   8.608  1.5627 -3.0087 -2.3514
  179SLPC  H12Y20507   2.648   0.549   8.623 -0.6634 -0.3725  1.2874
  179SLPC  C31320508   2.814   0.546   8.763 -0.4233 -0.2325  0.3053
  179SLPC  H13X20509   2.764   0.486   8.842  2.6414 -1.7238  1.3059
  179SLPC  H13Y20510   2.885   0.614   8.815 -1.8243  0.1009  1.8615
  179SLPC  C31420511   2.909   0.444   8.688 -0.5789 -0.3135  0.4330
  179SLPC  H14X20512   2.954   0.504   8.606 -1.9929  1.3428  0.7911
  179SLPC  H14Y20513   2.857   0.358   8.640 -2.7147  0.6320  0.9038
  179SLPC  C31520514   3.032   0.398   8.770 -0.0102  0.2151 -0.3980
  179SLPC  H15X20515   2.987   0.339   8.852 -1.3398 -2.7190 -3.0498
  179SLPC  H15Y20516   3.086   0.484   8.815  0.7425 -0.8869  0.8788
  179SLPC  C31620517   3.130   0.313   8.680 -0.3476  0.0542  0.4048
  179SLPC  H16X20518   3.188   0.376   8.609 -1.7646  0.9328 -0.0072
  179SLPC  H16Y20519   3.071   0.244   8.616  0.8313  0.5825 -1.3181
  179SLPC  C31720520   3.209   0.208   8.758 -0.5115 -0.4028 -0.6239
  179SLPC  H17X20521   3.248   0.132   8.686  3.7427  0.2715  0.6606
  179SLPC  H17Y20522   3.155   0.153   8.839  3.1485 -1.2029  1.5205
  179SLPC  C31820523   3.333   0.261   8.831 -0.5809 -0.2673 -0.0888
  179SLPC  H18X20524   3.326   0.339   8.910  1.5838  1.4968 -1.5241
  179SLPC  H18Y20525   3.395   0.304   8.750 -0.1549 -1.4865 -0.4171
  179SLPC  H18Z20526   3.385   0.172   8.871 -0.1634  0.3644  0.8237
  180SLPC     N20527   2.143   5.714  10.647 -0.3768 -0.2867  0.7081
  180SLPC   C1320528   2.159   5.830  10.725  0.2993 -0.4010  0.6310
  180SLPC  H13A20529   2.229   5.817  10.805 -0.0998 -3.3817  0.6030
  180SLPC  H13B20530   2.187   5.914  10.663  0.8607 -1.4437 -0.5756
  180SLPC  H13C20531   2.070   5.846  10.783  0.9961 -0.2083  1.6665
  180SLPC   C1420532   2.035   5.733  10.554  0.0249 -0.5328 -0.5592
  180SLPC  H14A20533   2.030   5.651  10.485 -0.9240 -0.7888 -0.2004
  180SLPC  H14B20534   1.941   5.732  10.608  1.6581 -1.7452  2.5295
  180SLPC  H14C20535   2.034   5.829  10.505 -1.0090 -0.4805 -0.4577
  180SLPC   C1520536   2.123   5.598  10.736 -0.2810  0.0266 -0.2200
  180SLPC  H15A20537   2.139   5.503  10.688  0.5301  0.2762 -0.4626
  180SLPC  H15B20538   2.203   5.598  10.808  0.3696  0.5549 -0.9311
  180SLPC  H15C20539   2.031   5.600  10.793  0.8549 -0.9020  1.7484
  180SLPC   C1220540   2.276   5.698  10.575  0.3010  0.0562 -0.9920
  180SLPC  H12A20541   2.359   5.686  10.643  1.0849 -0.0608 -1.9308
  180SLPC  H12B20542   2.304   5.787  10.520  1.1930 -0.2044 -0.9791
  180SLPC   C1120543   2.297   5.574  10.475  0.4067 -0.0838  0.3117
  180SLPC  H11A20544   2.371   5.591  10.395 -0.0774 -1.8136 -0.5625
  180SLPC  H11B20545   2.202   5.564  10.419  1.3221 -0.4885 -1.2301
  180SLPC     P20546   2.450   5.424  10.623  0.1269  0.3370  0.8412
  180SLPC   O1320547   2.488   5.536  10.710  0.0370  0.3254 -0.3469
  180SLPC   O1420548   2.446   5.292  10.695 -0.3114  0.2013  0.3966
  180SLPC   O1220549   2.310   5.452  10.558 -0.6368  0.1848  1.1612
  180SLPC   O1120550   2.545   5.421  10.502 -0.2846  0.2689 -0.1551
  180SLPC    C120551   2.531   5.323  10.392  0.3232 -0.1121 -0.3753
  180SLPC    HA20552   2.554   5.221  10.430 -0.5144 -0.2013 -0.0700
  180SLPC    HB20553   2.427   5.314  10.353  0.3409  0.2397 -0.5079
  180SLPC    C220554   2.631   5.352  10.281 -0.1747  0.0251  0.3582
  180SLPC    HS20555   2.734   5.331  10.315  0.4662 -0.4570 -1.7102
  180SLPC   O2120556   2.616   5.489  10.231 -0.2504  0.3533  0.0139
  180SLPC   C2120557   2.723   5.575  10.257  0.5051 -0.8642 -0.5618
  180SLPC   O2220558   2.825   5.542  10.312  0.0241  0.1235  0.1512
  180SLPC   C2220559   2.695   5.719  10.202 -0.3233 -0.4859 -0.7018
  180SLPC   H2R20560   2.598   5.761  10.234  0.0444  1.2526 -1.6905
  180SLPC   H2S20561   2.764   5.776  10.268 -0.4892 -0.0249 -0.9179
  180SLPC    C320562   2.612   5.245  10.168  0.3578  1.3539  0.3969
  180SLPC    HX20563   2.509   5.266  10.130  0.8589  1.6761 -0.8212
  180SLPC    HY20564   2.622   5.152  10.226 -0.7450  0.9979  0.0504
  180SLPC   O3120565   2.705   5.252  10.058 -0.3905  0.4847  0.7072
  180SLPC   C3120566   2.668   5.182   9.945 -0.0959  0.0735  0.6559
  180SLPC   O3220567   2.581   5.094   9.937 -0.4895 -0.2198  0.2319
  180SLPC   C3220568   2.763   5.229   9.837  0.5115 -0.2437 -0.5747
  180SLPC   H2X20569   2.848   5.158   9.830  2.3957  1.9343 -0.9789
  180SLPC   H2Y20570   2.801   5.328   9.872  0.3944 -0.4165  0.0437
  180SLPC   C2320571   2.727   5.732  10.049 -0.2099 -0.1720 -0.8506
  180SLPC   H3R20572   2.831   5.717  10.014  0.2287 -1.2862  0.8161
  180SLPC   H3S20573   2.710   5.836  10.014  0.3942 -0.7038 -2.9046
  180SLPC   C2420574   2.625   5.655   9.956  0.5617  0.3805  0.1879
  180SLPC   H4R20575   2.524   5.686   9.990 -0.4603 -1.2173 -1.2355
  180SLPC   H4S20576   2.644   5.549   9.984  1.4274  0.7454  1.0139
  180SLPC   C2520577   2.649   5.691   9.807  0.6158 -0.3758  0.3492
  180SLPC   H5R20578   2.752   5.674   9.769 -0.0833 -1.6954 -1.1100
  180SLPC   H5S20579   2.636   5.801   9.800  0.0057 -0.5379 -3.0025
  180SLPC   C2620580   2.555   5.623   9.703  0.4360  0.4068  0.1162
  180SLPC   H6R20581   2.459   5.606   9.757  0.3465  2.5668  0.7394
  180SLPC   H6S20582   2.594   5.525   9.669  0.6528  0.6941 -0.4647
  180SLPC   C2720583   2.533   5.714   9.573 -0.8141 -0.4991 -0.0867
  180SLPC   H7R20584   2.635   5.727   9.531 -1.1737  1.2389 -0.5278
  180SLPC   H7S20585   2.500   5.817   9.598 -2.0859 -0.6436 -1.0669
  180SLPC   C2820586   2.443   5.655   9.463  0.5901  0.0365 -0.2722
  180SLPC   H8R20587   2.440   5.736   9.388  0.9716  0.5766  0.2853
  180SLPC   H8S20588   2.343   5.654   9.511  1.7986 -2.9083  2.6167
  180SLPC   C2920589   2.465   5.523   9.403 -0.0530  0.5408  0.4760
  180SLPC   H9R20590   2.538   5.461   9.457 -0.5025 -0.6848 -0.2737
  180SLPC  C21020591   2.409   5.476   9.289  0.2044 -0.2205 -0.3805
  180SLPC  H10R20592   2.440   5.377   9.252  1.3481 -0.4895  1.1883
  180SLPC  C21120593   2.303   5.541   9.202 -0.0786 -0.1757  0.0935
  180SLPC  H11R20594   2.289   5.647   9.230 -1.4664  0.6768 -3.3005
  180SLPC  H11S20595   2.204   5.494   9.215 -1.6334  2.8170 -0.1787
  180SLPC  C21220596   2.351   5.548   9.055 -0.0207  0.2769 -0.1393
  180SLPC  H12R20597   2.407   5.640   9.033  1.3073 -0.0124  1.7397
  180SLPC  C21320598   2.313   5.464   8.955  0.1180 -0.3976 -0.6282
  180SLPC  H13R20599   2.356   5.489   8.857  2.1387  1.5205  0.6561
  180SLPC  C21420600   2.209   5.355   8.980 -0.2856  0.5365  0.1496
  180SLPC  H14R20601   2.122   5.397   8.925  1.1202  2.6534 -0.5595
  180SLPC  H14S20602   2.180   5.331   9.085  2.0293 -0.1323  0.6905
  180SLPC  C21520603   2.250   5.216   8.924  0.0160  0.0737  0.0049
  180SLPC  H15R20604   2.175   5.142   8.959  0.3402  0.1692  0.9256
  180SLPC  H15S20605   2.349   5.190   8.966  0.0345  0.6582  0.3421
  180SLPC  C21620606   2.260   5.226   8.770  0.4065  0.7148 -0.3043
  180SLPC  H16R20607   2.336   5.295   8.730 -0.4762  0.7424 -1.9925
  180SLPC  H16S20608   2.165   5.264   8.726 -1.1828 -1.8418  0.6573
  180SLPC  C21720609   2.304   5.095   8.705  0.3747 -0.5388  0.3696
  180SLPC  H17R20610   2.232   5.013   8.720 -1.1062  0.1702 -2.2106
  180SLPC  H17S20611   2.402   5.069   8.750  0.7700 -2.8538 -1.6008
  180SLPC  C21820612   2.326   5.114   8.546 -0.1966  0.3202  0.0624
  180SLPC  H18R20613   2.251   5.182   8.500 -0.1895  0.3412  0.0816
  180SLPC  H18S20614   2.334   5.015   8.497 -1.7390  0.8156 -1.2898
  180SLPC  H18T20615   2.416   5.178   8.529 -0.2674  0.3360 -0.2701
  180SLPC   C3320616   2.703   5.233   9.694 -1.1094 -0.9713 -0.3222
  180SLPC   H3X20617   2.632   5.317   9.682 -0.8506 -0.8095 -0.7687
  180SLPC   H3Y20618   2.652   5.137   9.670 -1.9529 -0.1827 -1.8715
  180SLPC   C3420619   2.809   5.243   9.581 -0.1498  0.1527 -0.2339
  180SLPC   H4X20620   2.884   5.162   9.592  1.3734  1.5625  0.1415
  180SLPC   H4Y20621   2.880   5.327   9.596  1.1747 -1.1521  1.1354
  180SLPC   C3520622   2.759   5.239   9.439 -0.4197  0.8506  0.1098
  180SLPC   H5X20623   2.733   5.340   9.401 -0.5974  1.1387  0.9591
  180SLPC   H5Y20624   2.669   5.173   9.438  0.3141 -0.2698  1.9657
  180SLPC   C3620625   2.866   5.197   9.331 -0.3830  0.2713  0.2990
  180SLPC   H6X20626   2.930   5.112   9.363 -0.8072 -0.8275 -1.6436
  180SLPC   H6Y20627   2.938   5.281   9.317  1.1227 -1.0615 -0.2516
  180SLPC   C3720628   2.804   5.154   9.195  0.8754 -0.8513 -0.0643
  180SLPC   H7X20629   2.741   5.064   9.211 -0.2622  0.2222  1.9829
  180SLPC   H7Y20630   2.891   5.137   9.128 -0.4786 -1.7880 -1.6473
  180SLPC   C3820631   2.704   5.268   9.139 -0.3305  0.1879  0.2323
  180SLPC   H8X20632   2.763   5.361   9.132  0.3480 -0.1865  0.8610
  180SLPC   H8Y20633   2.619   5.284   9.208 -0.3850  0.3750  0.1238
  180SLPC   C3920634   2.663   5.222   8.997 -0.9287  0.4417 -0.6413
  180SLPC   H9X20635   2.565   5.268   8.973 -0.8907  0.6653 -0.3750
  180SLPC   H9Y20636   2.640   5.114   9.010  1.5517  0.0625  1.4330
  180SLPC  C31020637   2.766   5.218   8.879  0.3700 -0.1082 -0.0057
  180SLPC  H10X20638   2.865   5.188   8.919 -1.1745 -1.4315  3.2446
  180SLPC  H10Y20639   2.771   5.321   8.837  1.2086 -0.2044 -0.1513
  180SLPC  C31120640   2.728   5.139   8.763  0.1716 -0.0348 -0.2003
  180SLPC  H11X20641   2.626   5.154   8.722  0.5963 -1.3111 -1.8203
  180SLPC  H11Y20642   2.744   5.033   8.792  4.3592  0.3188 -0.5594
  180SLPC  C31220643   2.818   5.157   8.641 -0.4045  0.0269  0.3865
  180SLPC  H12X20644   2.813   5.067   8.577  0.7004  0.0533  0.2460
  180SLPC  H12Y20645   2.921   5.161   8.682 -1.0763  1.5558  2.0768
  180SLPC  C31320646   2.774   5.278   8.553  0.0846  0.3460  0.0602
  180SLPC  H13X20647   2.820   5.356   8.617  2.5981  0.4563 -1.7560
  180SLPC  H13Y20648   2.663   5.279   8.546  0.0592  2.4244  0.2020
  180SLPC  C31420649   2.854   5.283   8.425  0.1056  0.2385  0.0157
  180SLPC  H14X20650   2.866   5.184   8.375 -0.1800 -0.0478  0.5042
  180SLPC  H14Y20651   2.964   5.296   8.437  0.0559  0.5563  0.1234
  180SLPC  C31520652   2.806   5.399   8.329 -0.3794  0.5178 -0.6290
  180SLPC  H15X20653   2.787   5.493   8.386  3.2466  0.3614  1.1501
  180SLPC  H15Y20654   2.714   5.376   8.272 -0.4936 -0.6713  0.0070
  180SLPC  C31620655   2.911   5.410   8.219 -0.2073 -0.9451  0.6655
  180SLPC  H16X20656   2.920   5.321   8.153 -0.4363  0.4691 -1.3620
  180SLPC  H16Y20657   3.007   5.429   8.273 -0.8465  0.3764  1.3887
  180SLPC  C31720658   2.890   5.530   8.118 -0.8063 -0.1015  0.3812
  180SLPC  H17X20659   2.789   5.531   8.070  0.4311 -2.8114 -2.6435
  180SLPC  H17Y20660   2.958   5.520   8.031  0.0060 -1.5847  1.1478
  180SLPC  C31820661   2.900   5.670   8.181  0.7552 -0.0091  0.2262
  180SLPC  H18X20662   2.926   5.738   8.096  1.1440  0.7692  0.9476
  180SLPC  H18Y20663   2.985   5.676   8.253  2.1814  1.7921 -1.4897
  180SLPC  H18Z20664   2.804   5.709   8.220  0.8706 -0.6654  1.1881
  181SLPC     N20665   5.557   3.251  11.098 -0.8824  0.3637  0.0111
  181SLPC   C1320666   5.423   3.294  11.150  0.5424  0.4345  0.1364
  181SLPC  H13A20667   5.425   3.299  11.257 -2.6651  1.1982  0.2669
  181SLPC  H13B20668   5.412   3.395  11.113  1.1629 -0.3445 -2.4043
  181SLPC  H13C20669   5.337   3.234  11.122  1.2972 -0.5657 -0.0885
  181SLPC   C1420670   5.655   3.360  11.137 -0.3966 -0.3844  0.4456
  181SLPC  H14A20671   5.752   3.318  11.117 -0.4187 -0.3357  0.2394
  181SLPC  H14B20672   5.644   3.446  11.073  0.6634 -1.6334 -1.5167
  181SLPC  H14C20673   5.643   3.384  11.242 -0.8954 -2.0656  0.7974
  181SLPC   C1520674   5.545   3.248  10.945 -0.2114 -0.7339  0.3707
  181SLPC  H15A20675   5.641   3.260  10.898  0.4515  1.9942  2.1890
  181SLPC  H15B20676   5.500   3.160  10.903 -0.6654  0.2622 -1.3071
  181SLPC  H15C20677   5.478   3.330  10.922  0.1761  0.6057  3.4315
  181SLPC   C1220678   5.607   3.110  11.132 -0.1178  0.1711 -0.1138
  181SLPC  H12A20679   5.630   3.099  11.237  2.0402  0.3860 -0.5178
  181SLPC  H12B20680   5.699   3.089  11.079 -0.8108 -1.9819 -0.5613
  181SLPC   C1120681   5.523   2.996  11.091  0.4284 -0.2741  0.1681
  181SLPC  H11A20682   5.496   3.004  10.983  1.7392  1.5711 -0.0698
  181SLPC  H11B20683   5.428   3.014  11.146  0.1652  2.4844 -1.0202
  181SLPC     P20684   5.514   2.748  11.083  0.0898 -0.3801  0.1060
  181SLPC   O1320685   5.589   2.635  11.132  0.4294 -0.1631 -0.6365
  181SLPC   O1420686   5.372   2.747  11.134  0.1916 -0.3223  0.6181
  181SLPC   O1220687   5.588   2.872  11.127 -0.6232 -0.4422  0.2466
  181SLPC   O1120688   5.517   2.756  10.920  0.2580 -0.1089 -0.2353
  181SLPC    C120689   5.640   2.793  10.863 -0.1619 -0.7640  0.9221
  181SLPC    HA20690   5.667   2.899  10.882 -2.1197  0.0441 -0.4644
  181SLPC    HB20691   5.721   2.724  10.895  0.8255  0.5394  1.3104
  181SLPC    C220692   5.642   2.786  10.703  0.0583  0.4077  0.0720
  181SLPC    HS20693   5.744   2.812  10.667 -0.2421 -1.8962 -2.7974
  181SLPC   O2120694   5.540   2.869  10.645 -0.6836 -0.0702 -0.8236
  181SLPC   C2120695   5.568   3.002  10.650 -0.1735  0.2467  0.1732
  181SLPC   O2220696   5.651   3.057  10.722 -0.1881  0.1757  0.2144
  181SLPC   C2220697   5.492   3.076  10.535  0.5705 -0.2959 -0.4675
  181SLPC   H2R20698   5.399   3.020  10.510 -0.5348  1.3913 -0.3500
  181SLPC   H2S20699   5.456   3.170  10.582 -0.1373 -1.3850  1.2554
  181SLPC    C320700   5.627   2.637  10.656  0.2817 -0.6705 -0.6194
  181SLPC    HX20701   5.528   2.604  10.694 -1.2715  2.7774 -1.2523
  181SLPC    HY20702   5.708   2.578  10.704  0.1013 -0.5900 -0.2101
  181SLPC   O3120703   5.625   2.620  10.507 -0.3148 -0.5975  0.0391
  181SLPC   C3120704   5.734   2.577  10.447  0.7549 -0.4973 -0.3324
  181SLPC   O3220705   5.833   2.537  10.497  0.1093  0.4265 -0.0856
  181SLPC   C3220706   5.709   2.591  10.292 -0.3528 -0.3815  0.4177
  181SLPC   H2X20707   5.655   2.685  10.267 -1.2496 -1.6515 -2.9416
  181SLPC   H2Y20708   5.641   2.517  10.245 -0.6316 -0.1359  0.4324
  181SLPC   C2320709   5.590   3.104  10.417  0.0141  0.2448  0.0015
  181SLPC   H3R20710   5.680   3.147  10.465  0.6307 -0.1837 -0.7385
  181SLPC   H3S20711   5.537   3.173  10.347  0.8554  0.3555 -0.5442
  181SLPC   C2420712   5.613   2.973  10.335 -0.6348  0.3489  0.1789
  181SLPC   H4R20713   5.518   2.958  10.279 -1.1504  0.4661  0.9967
  181SLPC   H4S20714   5.627   2.887  10.405 -1.6535  0.9926  1.2055
  181SLPC   C2520715   5.743   2.999  10.245  0.3465 -0.0508 -0.4933
  181SLPC   H5R20716   5.773   2.897  10.211  1.9304  0.1746  0.1331
  181SLPC   H5S20717   5.833   3.035  10.301  0.9761  0.7484 -1.9569
  181SLPC   C2620718   5.728   3.078  10.112 -0.1245  0.6482 -0.0343
  181SLPC   H6R20719   5.716   3.184  10.142 -1.3586  0.1176  1.4916
  181SLPC   H6S20720   5.638   3.035  10.063  0.3640  1.3328 -1.5886
  181SLPC   C2720721   5.854   3.069  10.026 -0.3627  0.6815 -0.2630
  181SLPC   H7R20722   5.894   2.966  10.042 -1.9850  0.3704  2.2706
  181SLPC   H7S20723   5.928   3.125  10.086 -0.4852  0.9960 -0.4063
  181SLPC   C2820724   5.834   3.126   9.886  0.0348  0.0147 -0.0973
  181SLPC   H8R20725   5.760   3.209   9.883  0.1058  0.0721 -0.2660
  181SLPC   H8S20726   5.791   3.039   9.832 -1.5056  1.2883 -1.0562
  181SLPC   C2920727   5.958   3.177   9.820  0.2011 -0.1839 -0.7491
  181SLPC   H9R20728   6.044   3.143   9.879 -0.1281 -2.5714 -1.5284
  181SLPC  C21020729   5.967   3.253   9.707  0.0891 -0.3038  0.0655
  181SLPC  H10R20730   6.068   3.281   9.674 -0.6960 -0.0519 -2.2557
  181SLPC  C21120731   5.845   3.289   9.621  0.3632 -0.9860  0.3357
  181SLPC  H11R20732   5.751   3.265   9.675  1.0922  0.5227  2.3909
  181SLPC  H11S20733   5.845   3.232   9.525  0.8919  2.6457 -2.0192
  181SLPC  C21220734   5.841   3.428   9.557 -0.4777 -0.7704 -0.9843
  181SLPC  H12R20735   5.903   3.497   9.616 -0.8527 -1.3615  0.1180
  181SLPC  C21320736   5.773   3.469   9.451 -1.0054 -0.6132  0.2036
  181SLPC  H13R20737   5.813   3.565   9.418  1.9791 -0.9571  2.4421
  181SLPC  C21420738   5.684   3.381   9.365  0.6551  0.1081  0.1064
  181SLPC  H14R20739   5.690   3.272   9.388 -1.3532  0.1236  0.8851
  181SLPC  H14S20740   5.709   3.397   9.258  0.1599  2.0153  0.2539
  181SLPC  C21520741   5.535   3.408   9.376  0.0329 -0.6445 -1.1703
  181SLPC  H15R20742   5.514   3.513   9.404 -0.3075 -1.1204  0.5284
  181SLPC  H15S20743   5.486   3.356   9.462 -0.5228 -0.1722 -1.1915
  181SLPC  C21620744   5.458   3.383   9.249  0.1898 -1.1997 -0.1096
  181SLPC  H16R20745   5.511   3.433   9.165  0.8151 -1.0744  0.3561
  181SLPC  H16S20746   5.356   3.426   9.265 -0.1107 -0.7798 -2.7574
  181SLPC  C21720747   5.444   3.233   9.215 -0.0053 -0.2043 -0.2837
  181SLPC  H17R20748   5.436   3.178   9.311  0.5568 -1.8569 -1.1510
  181SLPC  H17S20749   5.533   3.190   9.165  0.3471  1.1860 -0.8848
  181SLPC  C21820750   5.318   3.194   9.141  0.3730 -0.2293  0.1553
  181SLPC  H18R20751   5.232   3.245   9.190  0.0135 -0.2894 -0.4052
  181SLPC  H18S20752   5.309   3.084   9.142 -0.4118 -0.1746 -0.1108
  181SLPC  H18T20753   5.328   3.231   9.036 -1.4102  1.1372  0.4080
  181SLPC   C3320754   5.836   2.587  10.209  0.8861 -0.5587 -0.4824
  181SLPC   H3X20755   5.888   2.492  10.233 -2.3837 -2.3529 -0.0013
  181SLPC   H3Y20756   5.890   2.678  10.245 -1.8986  1.6150 -1.4083
  181SLPC   C3420757   5.803   2.593  10.055 -0.4622  0.0360 -0.6356
  181SLPC   H4X20758   5.741   2.683  10.032 -0.6244 -0.7592 -3.6895
  181SLPC   H4Y20759   5.745   2.508  10.013 -1.1372  0.0127  0.3100
  181SLPC   C3520760   5.935   2.599   9.976  0.0633 -0.4175 -0.5008
  181SLPC   H5X20761   5.981   2.498   9.969 -0.4514 -0.5821 -1.8494
  181SLPC   H5Y20762   6.009   2.659  10.033  3.6177 -2.6414 -2.4092
  181SLPC   C3620763   5.914   2.656   9.837  0.5609 -0.0839 -1.1697
  181SLPC   H6X20764   5.846   2.743   9.827 -0.8964 -1.1187 -0.6442
  181SLPC   H6Y20765   5.849   2.574   9.798 -0.6574 -0.7882  2.0210
  181SLPC   C3720766   6.039   2.660   9.760 -0.3969 -0.6326  0.3073
  181SLPC   H7X20767   6.086   2.560   9.758 -0.4620 -0.6478 -0.9805
  181SLPC   H7Y20768   6.113   2.726   9.811 -0.0220 -0.6390 -0.2204
  181SLPC   C3820769   6.026   2.687   9.610 -0.5069 -0.3468 -0.2865
  181SLPC   H8X20770   5.947   2.615   9.580 -1.3955  0.1189  0.8435
  181SLPC   H8Y20771   6.123   2.673   9.558 -0.0054  2.2717 -0.2047
  181SLPC   C3920772   5.995   2.834   9.569  0.1078  0.3306  0.5091
  181SLPC   H9X20773   6.085   2.892   9.539  0.2278 -0.2038 -0.1893
  181SLPC   H9Y20774   5.949   2.890   9.653 -2.1150  1.2165 -1.1966
  181SLPC  C31020775   5.913   2.839   9.436  0.0509  0.5114  0.0200
  181SLPC  H10X20776   5.940   2.752   9.372 -0.3908  0.6887 -0.4165
  181SLPC  H10Y20777   5.934   2.935   9.384 -2.2466  1.3082  0.4334
  181SLPC  C31120778   5.761   2.837   9.441 -0.4292 -0.1744 -0.5822
  181SLPC  H11X20779   5.726   2.751   9.503  1.7157 -0.2129  0.6817
  181SLPC  H11Y20780   5.716   2.829   9.340  0.8617  0.6008 -1.2479
  181SLPC  C31220781   5.702   2.956   9.512  0.4141 -0.1873  0.0266
  181SLPC  H12X20782   5.729   3.045   9.452  1.1977 -2.1212 -2.6491
  181SLPC  H12Y20783   5.746   2.967   9.613  1.4839 -2.4379 -0.1209
  181SLPC  C31320784   5.547   2.945   9.528  0.4993  0.0083 -0.2155
  181SLPC  H13X20785   5.523   2.871   9.608 -1.9541 -1.0611 -1.8159
  181SLPC  H13Y20786   5.493   2.928   9.433 -1.1854  2.1700  0.2924
  181SLPC  C31420787   5.489   3.072   9.585  0.1026  0.4454 -1.0972
  181SLPC  H14X20788   5.513   3.166   9.530 -0.4993  0.8502 -0.6871
  181SLPC  H14Y20789   5.535   3.090   9.685 -0.4119 -2.7156 -0.1794
  181SLPC  C31520790   5.339   3.061   9.594 -0.5511  0.1330 -0.3474
  181SLPC  H15X20791   5.294   2.975   9.648  2.8408 -2.3710 -1.1864
  181SLPC  H15Y20792   5.302   3.062   9.490  0.5867 -0.4365 -0.7747
  181SLPC  C31620793   5.278   3.187   9.666 -0.1194 -0.4255  0.6148
  181SLPC  H16X20794   5.308   3.271   9.600  3.1728  1.7085  4.4159
  181SLPC  H16Y20795   5.324   3.206   9.765  1.6298 -0.0319 -0.2459
  181SLPC  C31720796   5.122   3.192   9.693 -0.1282  0.7687  0.4514
  181SLPC  H17X20797   5.103   3.300   9.706 -0.4718  0.8839 -0.8681
  181SLPC  H17Y20798   5.095   3.151   9.792  2.4271 -1.9437  0.1875
  181SLPC  C31820799   5.032   3.121   9.593 -0.1398 -0.0386  0.7092
  181SLPC  H18X20800   5.044   3.143   9.485 -0.9345 -2.4016  0.0689
  181SLPC  H18Y20801   4.925   3.135   9.620 -0.9074  1.7506 -2.6116
  181SLPC  H18Z20802   5.059   3.013   9.601 -3.5843 -1.3906 -2.6262
  182SLPC     N20803   4.909   5.541  11.039  0.4546  0.4000  0.4618
  182SLPC   C1320804   5.057   5.502  11.037  0.0177  1.4715  0.0799
  182SLPC  H13A20805   5.083   5.398  11.024 -0.5824  1.4111 -0.7466
  182SLPC  H13B20806   5.108   5.570  10.971  0.3305 -0.1341 -1.4044
  182SLPC  H13C20807   5.090   5.535  11.134  1.0619 -1.3952  0.7985
  182SLPC   C1420808   4.901   5.680  11.104  0.0077  0.0386 -0.0293
  182SLPC  H14A20809   4.950   5.691  11.199  0.6826  0.5105 -0.4297
  182SLPC  H14B20810   4.944   5.754  11.038 -1.2084  1.9695  1.2119
  182SLPC  H14C20811   4.798   5.708  11.121 -0.2907 -0.8779 -0.2771
  182SLPC   C1520812   4.832   5.452  11.123  0.5541  0.3045 -0.2774
  182SLPC  H15A20813   4.878   5.442  11.220  0.7448  0.0711 -0.3924
  182SLPC  H15B20814   4.732   5.487  11.144  0.9680  0.3010  1.9102
  182SLPC  H15C20815   4.821   5.356  11.074  2.0640  0.0514 -0.1511
  182SLPC   C1220816   4.855   5.561  10.892 -0.4603 -0.7870  0.5050
  182SLPC  H12A20817   4.895   5.649  10.844  1.5412 -1.6663  0.4702
  182SLPC  H12B20818   4.753   5.596  10.902  0.0042  0.1066  3.3580
  182SLPC   C1120819   4.859   5.435  10.802  0.2658 -0.2566  0.5697
  182SLPC  H11A20820   4.958   5.388  10.820  0.1153 -0.1796  1.7362
  182SLPC  H11B20821   4.867   5.467  10.696  1.1425 -1.3463  0.2877
  182SLPC     P20822   4.600   5.383  10.802 -0.0489 -0.2947 -0.0004
  182SLPC   O1320823   4.502   5.271  10.830 -0.5220  0.0877 -0.2037
  182SLPC   O1420824   4.562   5.510  10.865  0.4258  0.1965 -0.2726
  182SLPC   O1220825   4.749   5.354  10.839  0.2709  0.2430 -0.0964
  182SLPC   O1120826   4.594   5.398  10.644 -0.1758  0.2750 -0.1485
  182SLPC    C120827   4.668   5.301  10.566 -0.0487  0.0897 -0.0073
  182SLPC    HA20828   4.771   5.342  10.561 -0.5377  1.9875  2.7968
  182SLPC    HB20829   4.667   5.196  10.602 -2.7528 -0.5258 -1.6180
  182SLPC    C220830   4.605   5.305  10.423  0.1249 -0.6084  0.3043
  182SLPC    HS20831   4.662   5.228  10.367 -1.0919 -1.0283 -0.3915
  182SLPC   O2120832   4.624   5.439  10.371 -0.0546  0.2343 -0.3049
  182SLPC   C2120833   4.729   5.458  10.287  0.0808  0.3287 -0.4426
  182SLPC   O2220834   4.787   5.369  10.237  0.4028 -0.0028  0.8613
  182SLPC   C2220835   4.761   5.611  10.271  0.2444 -0.2412  1.1003
  182SLPC   H2R20836   4.760   5.657  10.372  1.2040 -2.6411  2.2935
  182SLPC   H2S20837   4.867   5.615  10.238 -0.0828 -1.6440 -0.2709
  182SLPC    C320838   4.455   5.274  10.410 -0.8538  0.6269  0.0834
  182SLPC    HX20839   4.402   5.361  10.454 -1.1729 -0.2449  1.4884
  182SLPC    HY20840   4.436   5.188  10.477  2.4863 -1.3209 -1.2383
  182SLPC   O3120841   4.409   5.254  10.277 -0.4339 -0.4115  0.2541
  182SLPC   C3120842   4.425   5.131  10.233  0.2967  0.2482 -0.1561
  182SLPC   O3220843   4.492   5.046  10.287  0.2604 -0.4219 -0.3269
  182SLPC   C3220844   4.342   5.110  10.106  0.1160  0.1759  0.7369
  182SLPC   H2X20845   4.302   5.205  10.065  2.1799  0.2371 -1.3105
  182SLPC   H2Y20846   4.251   5.047  10.110 -1.4563  1.9312 -2.7358
  182SLPC   C2320847   4.673   5.690  10.166 -0.2347 -0.7047 -0.4466
  182SLPC   H3R20848   4.702   5.797  10.178 -2.5970 -0.0491 -0.0158
  182SLPC   H3S20849   4.565   5.697  10.192 -0.4627  0.1857 -1.5311
  182SLPC   C2420850   4.715   5.661  10.021 -0.2431 -0.3722 -0.3463
  182SLPC   H4R20851   4.822   5.631  10.032 -0.7801 -2.1681  0.1982
  182SLPC   H4S20852   4.706   5.754   9.961  2.4626 -0.5521 -1.1925
  182SLPC   C2520853   4.638   5.540   9.968 -0.2832  0.0708  0.2048
  182SLPC   H5R20854   4.532   5.570   9.961  0.3715  2.3910 -0.6270
  182SLPC   H5S20855   4.653   5.454  10.037 -0.5221  0.4814  0.7786
  182SLPC   C2620856   4.688   5.520   9.828  0.1625 -0.0445 -0.2820
  182SLPC   H6R20857   4.798   5.530   9.828  0.0591  1.5466  1.1499
  182SLPC   H6S20858   4.659   5.602   9.759 -0.9941  1.0241  1.3893
  182SLPC   C2720859   4.645   5.388   9.771 -0.0495 -0.4149 -0.3215
  182SLPC   H7R20860   4.534   5.381   9.770 -0.2177  1.2062  1.3405
  182SLPC   H7S20861   4.690   5.300   9.821 -1.4399 -0.6608  0.5444
  182SLPC   C2820862   4.689   5.386   9.618 -0.0493  0.5328 -0.3234
  182SLPC   H8R20863   4.796   5.406   9.596  0.7578 -3.7983 -1.1025
  182SLPC   H8S20864   4.633   5.472   9.574 -0.6009  1.1891  1.5598
  182SLPC   C2920865   4.662   5.260   9.551 -0.0211 -0.3791  0.3896
  182SLPC   H9R20866   4.695   5.176   9.614 -0.1092  1.2605  2.7640
  182SLPC  C21020867   4.590   5.243   9.434 -0.6713  0.0555 -0.1707
  182SLPC  H10R20868   4.578   5.137   9.407 -1.1180  0.0865 -0.0928
  182SLPC  C21120869   4.529   5.349   9.347  0.3842  0.1370  0.5917
  182SLPC  H11R20870   4.562   5.452   9.373 -2.3191  1.2027  0.1848
  182SLPC  H11S20871   4.422   5.349   9.377  0.6528  0.3053  1.5751
  182SLPC  C21220872   4.542   5.311   9.196 -0.6558  0.1210 -0.1235
  182SLPC  H12R20873   4.468   5.251   9.142 -0.6908  1.0572 -1.1552
  182SLPC  C21320874   4.639   5.359   9.117 -0.1835  0.1862 -0.3870
  182SLPC  H13R20875   4.649   5.312   9.018 -0.7934 -0.2972 -0.2280
  182SLPC  C21420876   4.753   5.449   9.155  0.0560  0.1316  0.1883
  182SLPC  H14R20877   4.850   5.402   9.128 -0.1235  0.6268 -1.3724
  182SLPC  H14S20878   4.760   5.464   9.265 -0.1973  0.1814  0.1977
  182SLPC  C21520879   4.757   5.588   9.087  0.0824  0.2174  0.2934
  182SLPC  H15R20880   4.850   5.633   9.128  0.0755 -1.9665  2.9981
  182SLPC  H15S20881   4.676   5.658   9.116 -0.6114  0.2405 -1.5456
  182SLPC  C21620882   4.755   5.577   8.934  0.1521  0.0585  0.3246
  182SLPC  H16R20883   4.656   5.542   8.896 -1.2035  0.0161  3.5733
  182SLPC  H16S20884   4.837   5.518   8.888 -0.4547 -0.6487  0.1166
  182SLPC  C21720885   4.771   5.721   8.881 -0.2103 -0.2629 -0.0782
  182SLPC  H17R20886   4.865   5.761   8.924 -0.0980  0.5779 -1.0763
  182SLPC  H17S20887   4.682   5.779   8.913 -1.5027 -2.2988  0.2513
  182SLPC  C21820888   4.772   5.731   8.728 -0.3058  0.1649  0.3254
  182SLPC  H18R20889   4.673   5.687   8.703 -0.4243 -0.2458  1.4900
  182SLPC  H18S20890   4.850   5.668   8.681 -1.1050  1.0019 -2.3532
  182SLPC  H18T20891   4.787   5.831   8.680 -0.6166  0.0960  0.0784
  182SLPC   C3320892   4.431   5.065   9.980  0.5049 -0.0306 -0.1398
  182SLPC   H3X20893   4.476   4.969  10.012 -0.3175 -0.1017  0.8857
  182SLPC   H3Y20894   4.503   5.147   9.961  3.3708 -2.4083 -0.1966
  182SLPC   C3420895   4.344   5.034   9.852 -0.6996 -0.0474 -0.2438
  182SLPC   H4X20896   4.283   5.125   9.837  0.3369  0.9879  1.4914
  182SLPC   H4Y20897   4.291   4.939   9.874  0.7287 -0.7828  0.2146
  182SLPC   C3520898   4.433   5.004   9.729  0.3295 -0.5190  0.5617
  182SLPC   H5X20899   4.493   4.915   9.760  0.8733  0.1682  1.5306
  182SLPC   H5Y20900   4.507   5.087   9.725  0.5319 -0.7453 -1.1779
  182SLPC   C3620901   4.363   4.990   9.595 -1.2100 -0.1440  0.0369
  182SLPC   H6X20902   4.315   4.890   9.592 -2.8864  0.6352 -2.1059
  182SLPC   H6Y20903   4.440   4.991   9.514 -0.4433  3.2546  0.6380
  182SLPC   C3720904   4.266   5.105   9.557  0.3822 -0.4500  0.6616
  182SLPC   H7X20905   4.320   5.200   9.536 -2.0204  1.4912  2.6867
  182SLPC   H7Y20906   4.189   5.131   9.633 -1.5048  0.0624 -1.3203
  182SLPC   C3820907   4.195   5.077   9.418 -0.7554  0.5535 -0.2537
  182SLPC   H8X20908   4.140   4.981   9.425  0.6918 -0.3444 -0.9306
  182SLPC   H8Y20909   4.276   5.080   9.342  1.1309  2.7218  1.6757
  182SLPC   C3920910   4.097   5.189   9.370  0.0546  0.4112  0.2815
  182SLPC   H9X20911   4.147   5.267   9.309 -0.0888 -0.6882 -1.3094
  182SLPC   H9Y20912   4.040   5.220   9.460  3.4981 -0.8178  3.1651
  182SLPC  C31020913   3.981   5.131   9.285 -0.6427  0.1680 -0.0357
  182SLPC  H10X20914   3.905   5.211   9.273 -0.2257  0.8170  1.5103
  182SLPC  H10Y20915   3.942   5.039   9.333 -1.5273 -1.1828 -3.0974
  182SLPC  C31120916   4.031   5.085   9.146 -0.2097  1.0919 -0.1555
  182SLPC  H11X20917   3.944   5.044   9.092 -0.4329  0.8680  0.3724
  182SLPC  H11Y20918   4.113   5.010   9.155  1.0494  2.2807 -1.1190
  182SLPC  C31220919   4.076   5.210   9.063 -0.0516 -0.1835  0.7100
  182SLPC  H12X20920   4.170   5.249   9.107 -1.1843  2.1571  1.2616
  182SLPC  H12Y20921   4.006   5.296   9.070 -0.2578 -0.4333  1.8836
  182SLPC  C31320922   4.074   5.165   8.917 -0.1939 -0.2017 -0.2942
  182SLPC  H13X20923   3.981   5.186   8.860 -1.5622 -1.6447  1.2824
  182SLPC  H13Y20924   4.068   5.054   8.927  0.9140 -0.2795 -0.3298
  182SLPC  C31420925   4.200   5.198   8.839  0.1943 -0.2107 -0.7111
  182SLPC  H14X20926   4.180   5.154   8.739 -0.9623  0.3649 -0.7439
  182SLPC  H14Y20927   4.295   5.150   8.874 -0.0467  0.5894  1.1938
  182SLPC  C31520928   4.243   5.342   8.822  0.0142 -0.0597 -0.1759
  182SLPC  H15X20929   4.349   5.343   8.787 -0.2578  0.9370 -0.9908
  182SLPC  H15Y20930   4.229   5.409   8.909 -0.0281 -0.2860 -0.0064
  182SLPC  C31620931   4.160   5.396   8.698 -0.8627  0.7562  0.2545
  182SLPC  H16X20932   4.061   5.345   8.699 -1.6911  2.3075  0.5028
  182SLPC  H16Y20933   4.212   5.372   8.603 -0.7469 -1.0091  0.7195
  182SLPC  C31720934   4.134   5.542   8.723  0.0325 -0.0605  0.4431
  182SLPC  H17X20935   4.236   5.585   8.730  0.6554 -1.2990 -0.5470
  182SLPC  H17Y20936   4.086   5.547   8.823 -0.9137  0.0576 -0.0159
  182SLPC  C31820937   4.041   5.602   8.618  0.1475 -0.5993  0.4708
  182SLPC  H18X20938   3.942   5.555   8.633  0.1854 -1.1689 -0.8915
  182SLPC  H18Y20939   4.077   5.581   8.515 -2.0287 -0.2024 -0.4214
  182SLPC  H18Z20940   4.027   5.709   8.644 -3.0132 -0.5644 -0.9847
  183SLPC     N20941   5.197   3.986  11.350  0.5187  0.1701  0.0327
  183SLPC   C1320942   5.237   3.952  11.492  0.2417  0.0100  0.7266
  183SLPC  H13A20943   5.344   3.933  11.495  1.0247  3.2950 -1.4387
  183SLPC  H13B20944   5.224   4.039  11.553 -1.3158  0.0622  0.3600
  183SLPC  H13C20945   5.181   3.867  11.529 -0.5495 -0.2789 -1.0338
  183SLPC   C1420946   5.260   4.116  11.313 -0.5453  0.1772  0.8622
  183SLPC  H14A20947   5.245   4.192  11.387  2.5618 -0.4142  2.2416
  183SLPC  H14B20948   5.368   4.115  11.316 -0.5455  1.2366  3.6919
  183SLPC  H14C20949   5.230   4.150  11.215  2.4376  0.2048 -0.1364
  183SLPC   C1520950   5.045   4.005  11.339  0.0870  0.2552 -0.2469
  183SLPC  H15A20951   5.008   3.993  11.238  0.4171 -1.1699 -0.2156
  183SLPC  H15B20952   4.982   3.939  11.396  1.0727 -1.2992 -0.8849
  183SLPC  H15C20953   5.015   4.104  11.370  0.0802  0.4189 -0.7629
  183SLPC   C1220954   5.246   3.876  11.256  0.1316  0.1640  0.0379
  183SLPC  H12A20955   5.188   3.789  11.286  0.2780 -0.3088 -1.0183
  183SLPC  H12B20956   5.352   3.858  11.267  0.4876  0.9871 -1.7754
  183SLPC   C1120957   5.211   3.893  11.106  0.1913 -0.4218  0.0423
  183SLPC  H11A20958   5.102   3.916  11.099  0.5645  1.7423  0.7475
  183SLPC  H11B20959   5.211   3.796  11.052 -0.1305  0.5247 -1.7364
  183SLPC     P20960   5.445   3.969  11.023 -0.0872  0.1716  0.1030
  183SLPC   O1320961   5.501   4.106  10.986 -0.1852  0.3461  0.1428
  183SLPC   O1420962   5.503   3.895  11.136  0.0270 -0.5591  0.1245
  183SLPC   O1220963   5.285   3.997  11.041  0.1965 -0.1747 -0.1917
  183SLPC   O1120964   5.445   3.881  10.901  0.4432 -0.0762  0.4538
  183SLPC    C120965   5.352   3.878  10.801  0.7401 -0.1909 -0.0001
  183SLPC    HA20966   5.282   3.796  10.826  0.8707 -1.0899 -2.3721
  183SLPC    HB20967   5.302   3.977  10.793  2.2474  0.4899 -1.6098
  183SLPC    C220968   5.413   3.847  10.664 -0.4654  0.1697 -0.5524
  183SLPC    HS20969   5.334   3.848  10.585  0.5670  0.5478 -1.6160
  183SLPC   O2120970   5.469   3.716  10.676 -0.0534  0.0211  0.6781
  183SLPC   C2120971   5.395   3.606  10.658  0.5045 -0.7411  0.0316
  183SLPC   O2220972   5.273   3.603  10.668 -0.1846 -0.3541  0.2649
  183SLPC   C2220973   5.475   3.475  10.629  0.3008 -0.2102  0.0001
  183SLPC   H2R20974   5.459   3.417  10.723  0.3529 -2.2839 -1.2103
  183SLPC   H2S20975   5.419   3.414  10.555 -0.8685  0.3108  0.4333
  183SLPC    C320976   5.515   3.955  10.614 -0.9270 -0.0153  0.4672
  183SLPC    HX20977   5.593   3.962  10.693 -1.2004 -1.5137  0.9065
  183SLPC    HY20978   5.450   4.045  10.606 -0.9865 -0.2348 -2.6829
  183SLPC   O3120979   5.563   3.930  10.488 -0.3652  0.1633 -0.6508
  183SLPC   C3120980   5.649   4.012  10.427  0.1894  0.0260  0.3620
  183SLPC   O3220981   5.691   4.112  10.476 -0.0597  0.8609 -0.0813
  183SLPC   C3220982   5.696   3.951  10.286  0.4870 -0.3480 -0.9108
  183SLPC   H2X20983   5.623   3.981  10.208  0.7287 -2.0398 -1.8258
  183SLPC   H2Y20984   5.702   3.841  10.298  0.1862 -0.3433 -0.6902
  183SLPC   C2320985   5.628   3.490  10.586  0.2081  0.1353 -0.0394
  183SLPC   H3R20986   5.675   3.389  10.586  0.7215  0.3727  1.0152
  183SLPC   H3S20987   5.681   3.551  10.661  0.7382  1.2530 -1.2781
  183SLPC   C2420988   5.645   3.550  10.445 -0.5697  0.5219  0.3965
  183SLPC   H4R20989   5.754   3.565  10.427 -0.7453  1.3774  0.0302
  183SLPC   H4S20990   5.597   3.649  10.438 -0.5596  0.4487 -0.8175
  183SLPC   C2520991   5.584   3.462  10.334 -0.2201 -0.2907 -0.3143
  183SLPC   H5R20992   5.478   3.437  10.356  0.6395 -1.2279  3.2354
  183SLPC   H5S20993   5.636   3.365  10.340 -1.2766 -0.7574  2.6083
  183SLPC   C2620994   5.596   3.536  10.193 -0.1476  1.3207 -0.5041
  183SLPC   H6R20995   5.704   3.557  10.185  0.1970 -0.5128 -1.2157
  183SLPC   H6S20996   5.547   3.636  10.191 -2.3387  0.3364  0.3559
  183SLPC   C2720997   5.543   3.468  10.065  0.0490 -0.4498  0.6921
  183SLPC   H7R20998   5.432   3.465  10.076  0.1075 -2.0859  1.1804
  183SLPC   H7S20999   5.569   3.360  10.057  0.2438 -0.4856  1.6311
  183SLPC   C2821000   5.590   3.538   9.937 -0.1224 -0.7247  0.0974
  183SLPC   H8R21001   5.697   3.511   9.925 -0.4055 -1.9567  0.2292
  183SLPC   H8S21002   5.579   3.648   9.952 -1.5683 -0.6943 -0.9995
  183SLPC   C2921003   5.508   3.503   9.818 -0.5725 -0.8186 -1.2010
  183SLPC   H9R21004   5.453   3.410   9.836 -2.1233  0.7166  3.7579
  183SLPC  C21021005   5.488   3.573   9.703 -0.3304 -0.7293  0.5592
  183SLPC  H10R21006   5.428   3.526   9.624 -0.5481 -1.2054  1.0011
  183SLPC  C21121007   5.552   3.706   9.670  0.1663  0.8934  0.0957
  183SLPC  H11R21008   5.613   3.687   9.579  2.5702 -0.3884  1.8606
  183SLPC  H11S21009   5.622   3.724   9.754 -0.0236  1.8936  0.0398
  183SLPC  C21221010   5.463   3.826   9.652  0.2343  0.1265  0.1233
  183SLPC  H12R21011   5.414   3.851   9.747  0.1639 -1.0172  0.4062
  183SLPC  C21321012   5.439   3.899   9.538 -0.0164  0.6979  0.2748
  183SLPC  H13R21013   5.371   3.986   9.534  1.0968  1.5608 -0.8328
  183SLPC  C21421014   5.501   3.864   9.402  0.5940 -0.1464  0.5354
  183SLPC  H14R21015   5.596   3.807   9.414  1.3613  0.4190 -2.1331
  183SLPC  H14S21016   5.533   3.967   9.374  1.4758 -0.4322  0.4667
  183SLPC  C21521017   5.393   3.826   9.302  0.0349  0.3844  0.7185
  183SLPC  H15R21018   5.324   3.909   9.280  0.0450 -0.0892 -1.2985
  183SLPC  H15S21019   5.344   3.732   9.334 -1.7788  0.7561 -0.8033
  183SLPC  C21621020   5.439   3.778   9.160 -0.1338  0.1530 -0.2778
  183SLPC  H16R21021   5.352   3.749   9.098 -0.9590 -0.6257  1.1963
  183SLPC  H16S21022   5.488   3.680   9.181 -3.0031 -1.1350  0.9180
  183SLPC  C21721023   5.526   3.877   9.087 -0.3840  0.3065  0.5307
  183SLPC  H17R21024   5.596   3.916   9.164  0.2392  1.5525 -0.6318
  183SLPC  H17S21025   5.472   3.960   9.038 -1.0484 -0.8645 -0.8017
  183SLPC  C21821026   5.620   3.810   8.990 -0.2103 -0.3214  0.2835
  183SLPC  H18R21027   5.707   3.877   8.974 -0.4252  0.3263  1.7138
  183SLPC  H18S21028   5.577   3.796   8.888 -2.7504 -1.2431  1.4015
  183SLPC  H18T21029   5.653   3.708   9.019 -2.5274 -1.0660  0.4966
  183SLPC   C3321030   5.838   4.005  10.271 -0.2841 -0.6229  0.8831
  183SLPC   H3X21031   5.913   3.981  10.349 -0.9573  2.5422  2.6749
  183SLPC   H3Y21032   5.833   4.115  10.261  0.4156 -0.6620 -0.0650
  183SLPC   C3421033   5.888   3.959  10.132 -0.1192  0.2071 -0.4493
  183SLPC   H4X21034   5.847   3.859  10.106 -1.9287  1.1223 -1.3217
  183SLPC   H4Y21035   5.998   3.945  10.133 -0.3636 -2.3577  1.9842
  183SLPC   C3521036   5.848   4.065  10.022 -0.3221  0.6328  0.0276
  183SLPC   H5X21037   5.896   4.161  10.052  4.2565 -1.2360 -0.5484
  183SLPC   H5Y21038   5.738   4.073  10.006 -0.4701 -2.0715 -0.8218
  183SLPC   C3621039   5.905   4.039   9.882  0.1823  0.0761  0.1419
  183SLPC   H6X21040   5.903   3.931   9.854  0.8903  0.1185 -0.0728
  183SLPC   H6Y21041   6.013   4.063   9.876  0.1404 -0.0831 -1.8713
  183SLPC   C3721042   5.834   4.123   9.769 -0.0260 -0.8922 -0.5999
  183SLPC   H7X21043   5.862   4.229   9.787  2.5546 -1.4927 -0.6458
  183SLPC   H7Y21044   5.725   4.102   9.764 -0.1362 -0.0886 -1.9511
  183SLPC   C3821045   5.899   4.086   9.634 -0.3820  0.1447  0.2040
  183SLPC   H8X21046   6.002   4.048   9.649  0.4593  1.3214 -2.1048
  183SLPC   H8Y21047   5.912   4.177   9.571  1.2478 -0.3378 -0.2121
  183SLPC   C3921048   5.819   3.971   9.572 -0.2820 -0.1580 -0.2593
  183SLPC   H9X21049   5.716   4.010   9.559 -0.3186  0.0095  0.4863
  183SLPC   H9Y21050   5.824   3.888   9.646  2.3875 -0.4862 -0.7141
  183SLPC  C31021051   5.870   3.915   9.441  0.1761 -0.7367  0.4584
  183SLPC  H10X21052   5.802   3.832   9.412 -0.9374  1.0131 -2.3459
  183SLPC  H10Y21053   5.979   3.895   9.452  0.0385 -0.9528  1.6063
  183SLPC  C31121054   5.871   4.021   9.327  0.7432 -0.5969 -0.3551
  183SLPC  H11X21055   5.945   4.099   9.356 -0.6885 -0.3284  2.9539
  183SLPC  H11Y21056   5.778   4.081   9.329  0.8614 -0.3652 -1.2463
  183SLPC  C31221057   5.901   3.970   9.182  0.6377  0.4529 -0.5195
  183SLPC  H12X21058   5.844   3.878   9.158 -2.7153  2.0860  0.5286
  183SLPC  H12Y21059   6.009   3.950   9.174  0.4109 -2.0409  1.4060
  183SLPC  C31321060   5.866   4.075   9.074 -0.0168 -0.7836  0.1738
  183SLPC  H13X21061   5.896   4.177   9.108  0.0976 -0.4369 -0.9559
  183SLPC  H13Y21062   5.762   4.075   9.036  1.2448 -0.0880 -3.7237
  183SLPC  C31421063   5.940   4.037   8.942  0.2063 -1.0377 -0.0871
  183SLPC  H14X21064   5.909   3.933   8.920  1.2284 -1.7729  1.7954
  183SLPC  H14Y21065   6.047   4.041   8.973  0.0367 -0.9207  0.4760
  183SLPC  C31521066   5.914   4.148   8.830 -1.0177  0.1478 -0.1473
  183SLPC  H15X21067   5.988   4.134   8.749 -0.3574  1.1247  0.2595
  183SLPC  H15Y21068   5.946   4.247   8.871  3.3484 -0.6072 -1.2494
  183SLPC  C31621069   5.778   4.142   8.764 -0.0666  0.0433 -0.1658
  183SLPC  H16X21070   5.690   4.168   8.827  0.2394  0.0086  0.2772
  183SLPC  H16Y21071   5.770   4.032   8.753 -0.4708 -0.0386  0.8103
  183SLPC  C31721072   5.771   4.203   8.620 -0.2285  0.2615 -0.5879
  183SLPC  H17X21073   5.795   4.311   8.630  1.3197 -0.0708 -0.4999
  183SLPC  H17Y21074   5.666   4.190   8.585  0.2526  1.8073 -2.9212
  183SLPC  C31821075   5.867   4.141   8.512  0.3097 -0.0107 -0.1417
  183SLPC  H18X21076   5.830   4.039   8.488 -1.0770  0.0753  1.4680
  183SLPC  H18Y21077   5.971   4.141   8.551  0.3046 -0.5387 -0.1081
  183SLPC  H18Z21078   5.857   4.198   8.418 -0.4492 -1.3038 -0.8752
  184SLPC     N21079   1.013   1.560  10.809 -0.6203 -0.4607 -0.5232
  184SLPC   C1321080   0.888   1.509  10.856 -0.3928  0.4756  0.4857
  184SLPC  H13A21081   0.854   1.428  10.793  1.4667 -1.4884  1.8618
  184SLPC  H13B21082   0.901   1.478  10.959 -3.0962 -1.0681  0.4738
  184SLPC  H13C21083   0.805   1.579  10.858 -0.1620  0.7432  1.1360
  184SLPC   C1421084   1.123   1.472  10.857  0.7751 -0.4117  0.0701
  184SLPC  H14A21085   1.219   1.519  10.842  0.8700 -0.2059  1.2396
  184SLPC  H14B21086   1.107   1.452  10.962 -0.4450  0.4928  0.0936
  184SLPC  H14C21087   1.121   1.383  10.796  0.0295  0.2685 -0.9543
  184SLPC   C1521088   1.042   1.691  10.876  0.4450 -1.1334  0.6624
  184SLPC  H15A21089   1.050   1.680  10.984 -0.1791  1.7945  1.0994
  184SLPC  H15B21090   1.135   1.729  10.839 -1.4169  0.3203 -2.9807
  184SLPC  H15C21091   0.958   1.758  10.866  1.0485 -0.0021  2.5842
  184SLPC   C1221092   1.029   1.573  10.662 -0.2556  0.1182 -0.1139
  184SLPC  H12A21093   1.120   1.626  10.636 -1.6628  2.2538 -0.9933
  184SLPC  H12B21094   0.947   1.638  10.634  0.0827  0.7972  0.4465
  184SLPC   C1121095   1.023   1.442  10.568 -0.3516 -0.1162 -0.2388
  184SLPC  H11A21096   1.008   1.469  10.461 -1.2107 -1.0653 -0.3671
  184SLPC  H11B21097   0.929   1.393  10.600  0.0415 -1.1651 -0.6438
  184SLPC     P21098   1.114   1.199  10.567  0.3195  0.2868 -0.1442
  184SLPC   O1321099   1.241   1.134  10.517  0.5761  0.2412 -0.1366
  184SLPC   O1421100   1.069   1.146  10.695 -0.0553  0.4796  0.5711
  184SLPC   O1221101   1.135   1.356  10.586 -0.2902 -0.2020 -0.3083
  184SLPC   O1121102   0.997   1.185  10.461  0.2640  0.3961  0.2552
  184SLPC    C121103   1.034   1.188  10.322  0.8306 -0.8385  0.5440
  184SLPC    HA21104   1.129   1.242  10.301 -0.4067  1.1394 -0.2151
  184SLPC    HB21105   1.049   1.087  10.278  1.2428  0.2283 -1.9620
  184SLPC    C221106   0.917   1.261  10.236 -0.4582  0.5431  0.2046
  184SLPC    HS21107   0.911   1.364  10.277  0.7948  0.6551  0.1463
  184SLPC   O2121108   0.783   1.203  10.252  0.0271  0.5372 -0.1196
  184SLPC   C2121109   0.678   1.277  10.223 -0.6882 -0.5849  0.1171
  184SLPC   O2221110   0.685   1.399  10.217  0.5122 -0.8123  0.2922
  184SLPC   C2221111   0.556   1.178  10.221 -0.3555  0.4329  1.2039
  184SLPC   H2R21112   0.584   1.111  10.138  0.0720  0.9842  0.8953
  184SLPC   H2S21113   0.549   1.141  10.326 -0.8223  1.3227  1.4997
  184SLPC    C321114   0.954   1.260  10.087  0.1865  0.1627 -0.5409
  184SLPC    HX21115   0.926   1.161  10.043 -0.3174  0.6176 -1.2599
  184SLPC    HY21116   1.062   1.282  10.071  1.0458 -0.4772  3.2700
  184SLPC   O3121117   0.874   1.353  10.014 -0.4685 -0.2721  0.5533
  184SLPC   C3121118   0.897   1.368   9.881  0.0192  0.8461  0.1181
  184SLPC   O3221119   0.986   1.310   9.820  0.0303  0.7284  0.1312
  184SLPC   C3221120   0.784   1.453   9.821 -0.0240  0.1156  0.0307
  184SLPC   H2X21121   0.814   1.559   9.833  2.4712 -0.5823  0.5977
  184SLPC   H2Y21122   0.703   1.438   9.895  1.4699 -0.9572  1.5399
  184SLPC   C2321123   0.431   1.246  10.164  0.3556  0.3432 -0.3643
  184SLPC   H3R21124   0.416   1.347  10.208 -0.9845 -0.0931  0.2389
  184SLPC   H3S21125   0.350   1.185  10.209  0.9389  0.7528  1.2857
  184SLPC   C2421126   0.419   1.246  10.012 -0.6976 -0.3106  0.2402
  184SLPC   H4R21127   0.420   1.144   9.969 -2.7935 -0.1315 -0.3419
  184SLPC   H4S21128   0.504   1.296   9.960 -1.6845 -1.0990 -2.2740
  184SLPC   C2521129   0.300   1.326   9.959 -0.1702  0.3155  0.8028
  184SLPC   H5R21130   0.302   1.428  10.002  0.3528  0.9399 -0.6382
  184SLPC   H5S21131   0.201   1.289   9.992 -0.8527  0.1551 -1.2468
  184SLPC   C2621132   0.288   1.329   9.803 -0.3160  0.1924 -0.2548
  184SLPC   H6R21133   0.387   1.374   9.782  0.8291 -2.0963 -0.1212
  184SLPC   H6S21134   0.212   1.398   9.762 -2.3847 -1.0241  1.2738
  184SLPC   C2721135   0.275   1.192   9.739  0.0033 -0.2428 -0.2025
  184SLPC   H7R21136   0.188   1.141   9.786 -0.4834  1.9630  1.4696
  184SLPC   H7S21137   0.369   1.137   9.760 -0.2301 -0.6034 -0.0882
  184SLPC   C2821138   0.256   1.213   9.586  0.0300 -0.2453  0.6529
  184SLPC   H8R21139   0.342   1.275   9.551 -0.2301  0.0149  0.4720
  184SLPC   H8S21140   0.163   1.271   9.571  0.1474  0.8213  3.5792
  184SLPC   C2921141   0.240   1.078   9.510  0.0418 -0.4724  0.5782
  184SLPC   H9R21142   0.211   0.988   9.567 -0.9347 -0.8299 -0.4524
  184SLPC  C21021143   0.247   1.067   9.374 -0.5597  0.3029 -0.6819
  184SLPC  H10R21144   0.223   0.971   9.327  0.7105  0.0256 -0.7755
  184SLPC  C21121145   0.278   1.169   9.272  0.1592 -0.9550 -0.5835
  184SLPC  H11R21146   0.314   1.266   9.313 -0.5224 -1.3822  1.1148
  184SLPC  H11S21147   0.189   1.195   9.211  0.3720 -0.0299 -0.5187
  184SLPC  C21221148   0.367   1.111   9.166 -0.0154  0.4765 -0.2218
  184SLPC  H12R21149   0.446   1.051   9.213  1.2420  1.0971 -1.4778
  184SLPC  C21321150   0.375   1.129   9.030  0.0163  0.2012 -0.2271
  184SLPC  H13R21151   0.461   1.086   8.977  1.7921 -0.0378  2.6503
  184SLPC  C21421152   0.276   1.207   8.946 -0.5327 -0.0343 -0.6147
  184SLPC  H14R21153   0.338   1.283   8.894  0.0498  0.9633  1.4197
  184SLPC  H14S21154   0.207   1.265   9.012 -0.0542  1.0360 -1.0218
  184SLPC  C21521155   0.200   1.120   8.847 -0.2239  0.7284 -0.5430
  184SLPC  H15R21156   0.154   1.030   8.894 -0.7439  1.7383  0.9360
  184SLPC  H15S21157   0.263   1.069   8.771 -1.0204  0.9861 -1.3961
  184SLPC  C21621158   0.092   1.207   8.773  0.2926 -0.6490 -0.3376
  184SLPC  H16R21159   0.074   1.293   8.841 -0.0545  0.9486 -2.3631
  184SLPC  H16S21160  -0.012   1.167   8.767 -0.0374 -0.0088  0.7256
  184SLPC  C21721161   0.152   1.269   8.647 -0.0972 -0.1236  0.6634
  184SLPC  H17R21162   0.151   1.191   8.568 -1.6342 -0.7339  1.2419
  184SLPC  H17S21163   0.257   1.290   8.676 -0.7342  0.1018  3.0617
  184SLPC  C21821164   0.086   1.400   8.607  0.2731  0.5514  0.4354
  184SLPC  H18R21165   0.105   1.482   8.679 -2.3577  0.5029  1.2857
  184SLPC  H18S21166  -0.021   1.386   8.580  0.4086  0.4709 -0.0620
  184SLPC  H18T21167   0.131   1.441   8.514  1.6613  1.1272  1.3293
  184SLPC   C3321168   0.757   1.403   9.677 -0.2795  0.3560  0.8579
  184SLPC   H3X21169   0.694   1.312   9.671  0.2483  0.0337 -0.2026
  184SLPC   H3Y21170   0.851   1.394   9.617 -0.8076  2.3043 -0.3367
  184SLPC   C3421171   0.655   1.485   9.594  0.1750 -0.6222 -0.0916
  184SLPC   H4X21172   0.687   1.590   9.581 -1.1071 -0.2245 -0.1385
  184SLPC   H4Y21173   0.560   1.492   9.652 -0.6730 -3.3448 -1.0013
  184SLPC   C3521174   0.620   1.429   9.454  0.0471 -0.0320  0.5419
  184SLPC   H5X21175   0.536   1.489   9.413  0.9649  0.8441 -0.1217
  184SLPC   H5Y21176   0.569   1.331   9.457  1.9334 -1.1576 -1.3637
  184SLPC   C3621177   0.739   1.425   9.357 -0.7815  0.0017 -0.3886
  184SLPC   H6X21178   0.837   1.402   9.404  0.4123  2.6676 -1.3703
  184SLPC   H6Y21179   0.762   1.530   9.328  0.4145 -0.0726  0.2114
  184SLPC   C3721180   0.736   1.332   9.238 -0.0168  0.4000  0.0811
  184SLPC   H7X21181   0.636   1.324   9.191 -0.7456 -1.2660  1.8056
  184SLPC   H7Y21182   0.766   1.231   9.274  1.2500  0.7147 -0.0272
  184SLPC   C3821183   0.846   1.368   9.136  0.4476  0.0748 -0.1773
  184SLPC   H8X21184   0.947   1.371   9.181  0.2194 -2.7872  0.7174
  184SLPC   H8Y21185   0.814   1.469   9.104 -1.1061 -0.1197  0.6582
  184SLPC   C3921186   0.845   1.282   9.011 -0.1378 -0.5670 -0.0864
  184SLPC   H9X21187   0.754   1.307   8.953  0.3178 -0.1936 -0.6484
  184SLPC   H9Y21188   0.837   1.173   9.032  0.2498 -0.5669  0.0901
  184SLPC  C31021189   0.967   1.281   8.917  0.6651 -0.1375 -0.1040
  184SLPC  H10X21190   0.943   1.240   8.817 -0.7204 -0.5785  0.3745
  184SLPC  H10Y21191   1.037   1.211   8.967 -1.5506 -0.7184  2.4794
  184SLPC  C31121192   1.049   1.406   8.913  0.4923 -0.3748  0.2641
  184SLPC  H11X21193   1.065   1.435   9.019  0.1030  1.3654 -0.1223
  184SLPC  H11Y21194   0.976   1.481   8.875  0.0486 -0.1450  1.5322
  184SLPC  C31221195   1.168   1.403   8.829 -0.3016  0.3036  0.1106
  184SLPC  H12X21196   1.131   1.351   8.738 -1.2919  2.4226 -0.7789
  184SLPC  H12Y21197   1.247   1.340   8.875 -1.4438 -3.3798 -2.5031
  184SLPC  C31321198   1.224   1.545   8.791  0.3369  1.1434 -0.6926
  184SLPC  H13X21199   1.292   1.569   8.875 -0.6966 -1.2095  0.9402
  184SLPC  H13Y21200   1.139   1.616   8.788 -0.3802  0.4226  1.1138
  184SLPC  C31421201   1.312   1.536   8.669 -0.0427  0.1092 -0.0557
  184SLPC  H14X21202   1.356   1.434   8.659 -1.4549 -0.6143  0.7132
  184SLPC  H14Y21203   1.391   1.612   8.690  0.4976 -0.4859  0.1150
  184SLPC  C31521204   1.240   1.564   8.533  0.1503  0.7689  0.2564
  184SLPC  H15X21205   1.177   1.656   8.535 -3.0247 -1.1479  4.2230
  184SLPC  H15Y21206   1.166   1.481   8.528 -1.8096  2.4481  0.0696
  184SLPC  C31621207   1.338   1.565   8.415 -0.2714 -0.6117  0.3528
  184SLPC  H16X21208   1.377   1.461   8.409  0.1346 -0.4057 -1.1938
  184SLPC  H16Y21209   1.421   1.635   8.438 -0.9887 -0.0932  1.4183
  184SLPC  C31721210   1.269   1.594   8.281 -0.1641 -0.4312  0.1497
  184SLPC  H17X21211   1.177   1.533   8.271 -0.5382  0.1515 -0.0385
  184SLPC  H17Y21212   1.335   1.558   8.198 -0.7117  2.0266 -1.4735
  184SLPC  C31821213   1.244   1.738   8.245  0.0572  0.5389 -0.3794
  184SLPC  H18X21214   1.185   1.782   8.329 -1.0040  1.3659 -1.5033
  184SLPC  H18Y21215   1.195   1.737   8.145  0.9047 -1.1895 -0.8088
  184SLPC  H18Z21216   1.338   1.795   8.232  1.3630 -1.8647 -2.2919
  185SLPC     N21217   5.227   3.754   6.053  0.2135  0.4173 -0.1463
  185SLPC   C1321218   5.136   3.633   6.032  0.3339 -0.1790  0.2485
  185SLPC  H13A21219   5.189   3.542   6.056  1.5257 -0.2063 -2.2087
  185SLPC  H13B21220   5.049   3.634   6.096 -0.1092 -0.4341 -0.3417
  185SLPC  H13C21221   5.097   3.629   5.932  0.8524  0.0936  0.0286
  185SLPC   C1421222   5.134   3.881   6.063 -0.5977  0.4163 -0.1144
  185SLPC  H14A21223   5.076   3.872   6.154 -0.2432  0.4868  0.1210
  185SLPC  H14B21224   5.194   3.971   6.060  0.1405 -0.0903 -1.5084
  185SLPC  H14C21225   5.067   3.880   5.979  1.4874  0.7256 -1.8744
  185SLPC   C1521226   5.337   3.764   5.952 -0.4050  0.2532 -0.2886
  185SLPC  H15A21227   5.382   3.668   5.934 -0.8536 -0.0295  0.0849
  185SLPC  H15B21228   5.299   3.805   5.859 -2.0918  1.6637  0.9654
  185SLPC  H15C21229   5.406   3.840   5.985 -1.7419  0.9932  0.9349
  185SLPC   C1221230   5.284   3.728   6.192 -0.7832 -0.4718 -0.4485
  185SLPC  H12A21231   5.339   3.635   6.200  0.1346  0.2024  3.8345
  185SLPC  H12B21232   5.210   3.726   6.270  1.3016 -2.1163  1.6561
  185SLPC   C1121233   5.375   3.841   6.248 -1.1882 -0.2098  0.1277
  185SLPC  H11A21234   5.438   3.873   6.163  0.5202 -2.6884  0.3518
  185SLPC  H11B21235   5.444   3.810   6.329 -0.6354 -1.8910 -0.9403
  185SLPC     P21236   5.332   4.085   6.337  0.1999 -0.1136 -0.1046
  185SLPC   O1321237   5.433   4.140   6.248  0.0168 -0.1240  0.3352
  185SLPC   O1421238   5.214   4.170   6.359  0.4836 -0.1983  0.3491
  185SLPC   O1221239   5.286   3.946   6.288  0.1743  0.3954 -0.2695
  185SLPC   O1121240   5.394   4.050   6.473  0.4150 -0.6736  0.0953
  185SLPC    C121241   5.322   3.985   6.575  0.0659 -0.0777 -0.8163
  185SLPC    HA21242   5.221   4.030   6.583  0.2119 -0.0793  2.1548
  185SLPC    HB21243   5.313   3.877   6.551 -1.8841 -0.0533 -0.3843
  185SLPC    C221244   5.383   4.003   6.715  0.0372  0.6256 -0.0325
  185SLPC    HS21245   5.395   4.113   6.716  1.3426  0.5108 -0.5494
  185SLPC   O2121246   5.507   3.936   6.722 -0.2496 -0.4858  0.3673
  185SLPC   C2121247   5.592   3.989   6.814 -0.5199 -0.1781  0.3448
  185SLPC   O2221248   5.569   4.090   6.876 -0.4714  0.1036 -0.1836
  185SLPC   C2221249   5.718   3.910   6.821 -0.0456  0.2758 -0.4312
  185SLPC   H2R21250   5.698   3.814   6.769 -0.6369  0.4359 -0.4994
  185SLPC   H2S21251   5.783   3.958   6.745 -0.8444  1.4166 -0.4192
  185SLPC    C321252   5.295   3.940   6.827 -0.2827  0.0837 -0.2160
  185SLPC    HX21253   5.282   3.831   6.807  1.6464 -0.4275  1.0583
  185SLPC    HY21254   5.194   3.983   6.809 -0.6312 -1.3149 -1.8939
  185SLPC   O3121255   5.348   3.955   6.959  0.1149 -0.0160 -0.0197
  185SLPC   C3121256   5.318   4.060   7.028 -0.3256 -0.3811 -0.2180
  185SLPC   O3221257   5.234   4.145   6.997 -0.5858  0.3596 -0.0374
  185SLPC   C3221258   5.401   4.067   7.152 -0.3410  0.0769 -0.5071
  185SLPC   H2X21259   5.436   4.172   7.161 -0.3132 -0.0462  1.1675
  185SLPC   H2Y21260   5.503   4.027   7.135  0.2569 -0.0111  2.6840
  185SLPC   C2321261   5.771   3.897   6.969  0.4860  0.0729 -0.5264
  185SLPC   H3R21262   5.825   3.803   6.992 -0.6928 -0.0660  2.0533
  185SLPC   H3S21263   5.682   3.893   7.035  0.5084  0.5740 -0.4594
  185SLPC   C2421264   5.866   4.010   7.013  0.0256 -0.0757 -0.4313
  185SLPC   H4R21265   5.806   4.103   7.012 -0.7066 -0.5419 -0.6470
  185SLPC   H4S21266   5.945   4.014   6.935  1.1094  2.0841  0.6792
  185SLPC   C2521267   5.935   3.989   7.157 -0.0507  0.2733  0.6973
  185SLPC   H5R21268   5.977   4.086   7.191 -1.7321  1.4077 -0.3018
  185SLPC   H5S21269   6.019   3.915   7.157  0.5891  0.9643  1.9015
  185SLPC   C2621270   5.827   3.947   7.255 -0.2315  0.2399 -0.0163
  185SLPC   H6R21271   5.798   3.842   7.231  0.0648  0.6293 -2.2598
  185SLPC   H6S21272   5.744   4.021   7.257 -1.5343 -1.1636  0.8461
  185SLPC   C2721273   5.868   3.953   7.404 -0.4958  0.3425  0.1537
  185SLPC   H7R21274   5.934   4.040   7.424  0.8611 -1.2366  3.1120
  185SLPC   H7S21275   5.936   3.870   7.430 -1.2018 -0.7712 -1.3932
  185SLPC   C2821276   5.756   3.954   7.508 -0.0753 -0.1715 -0.0368
  185SLPC   H8R21277   5.690   3.878   7.460  0.2665  1.2709 -2.9629
  185SLPC   H8S21278   5.689   4.042   7.515  0.3860  0.2330 -0.5759
  185SLPC   C2921279   5.815   3.906   7.647 -0.4078 -0.5065  0.7937
  185SLPC   H9R21280   5.860   3.806   7.646 -2.2492 -1.5198 -3.4107
  185SLPC  C21021281   5.824   3.977   7.766 -0.1628 -0.2757  0.0229
  185SLPC  H10R21282   5.893   3.941   7.843  2.1427 -1.5064 -2.4445
  185SLPC  C21121283   5.774   4.114   7.788  0.1311 -0.0179 -0.2001
  185SLPC  H11R21284   5.738   4.119   7.892  3.7855  0.6183  1.1984
  185SLPC  H11S21285   5.687   4.136   7.722  0.4012  0.7788 -0.3050
  185SLPC  C21221286   5.875   4.219   7.757  0.1059  0.1206  0.2694
  185SLPC  H12R21287   5.909   4.225   7.652 -1.3940 -0.6446 -0.2951
  185SLPC  C21321288   5.928   4.311   7.845  0.0083 -0.3696 -0.3914
  185SLPC  H13R21289   6.002   4.387   7.815 -1.4701  1.1821 -0.2490
  185SLPC  C21421290   5.892   4.324   7.988 -0.4069 -0.3199  0.1802
  185SLPC  H14R21291   5.977   4.278   8.043  0.8265  2.1143  0.4536
  185SLPC  H14S21292   5.802   4.267   8.020 -0.6316  1.1211  2.3381
  185SLPC  C21521293   5.875   4.471   8.040  0.4107  0.2977 -0.2019
  185SLPC  H15R21294   5.822   4.457   8.137  0.0835  0.8044 -0.3083
  185SLPC  H15S21295   5.818   4.538   7.973  0.5409  0.8324  0.2198
  185SLPC  C21621296   6.010   4.549   8.062  0.8846  0.2329 -0.8636
  185SLPC  H16R21297   6.072   4.540   7.970 -2.9245  1.2721 -3.7892
  185SLPC  H16S21298   6.063   4.497   8.144  0.3159  1.1726  0.1162
  185SLPC  C21721299   5.993   4.695   8.098  0.5385  0.0499 -0.5416
  185SLPC  H17R21300   5.920   4.702   8.181 -1.2121 -1.4989 -1.8779
  185SLPC  H17S21301   5.960   4.747   8.005  3.7273  0.0296 -1.8195
  185SLPC  C21821302   6.109   4.759   8.161  0.0035  0.3036 -0.2543
  185SLPC  H18R21303   6.149   4.695   8.243  1.8340  0.9746 -0.5695
  185SLPC  H18S21304   6.080   4.853   8.213 -1.0783 -1.5697  2.8279
  185SLPC  H18T21305   6.196   4.789   8.099  2.6128  0.9902  3.3592
  185SLPC   C3321306   5.327   4.006   7.275  0.3870  0.4048 -0.3045
  185SLPC   H3X21307   5.277   3.911   7.244  0.3825  0.0442  0.7390
  185SLPC   H3Y21308   5.241   4.071   7.300  0.0531 -0.9664  2.5400
  185SLPC   C3421309   5.410   3.977   7.403  0.3197  0.3192  0.8292
  185SLPC   H4X21310   5.463   4.073   7.424 -0.1422  0.3539  1.9015
  185SLPC   H4Y21311   5.481   3.893   7.385 -0.6203 -0.2426 -0.3828
  185SLPC   C3521312   5.320   3.961   7.525 -0.6819  1.0778  0.8581
  185SLPC   H5X21313   5.255   3.871   7.516 -0.3958  0.9461  0.0839
  185SLPC   H5Y21314   5.256   4.051   7.535  0.8609  2.2075  0.9819
  185SLPC   C3621315   5.412   3.959   7.655  0.2704 -0.0543  0.9334
  185SLPC   H6X21316   5.464   4.057   7.649  0.4673 -0.1726  0.6571
  185SLPC   H6Y21317   5.492   3.882   7.644 -0.6953 -1.1888  1.6346
  185SLPC   C3721318   5.329   3.944   7.775 -0.5148  0.1623 -0.3710
  185SLPC   H7X21319   5.296   3.837   7.779  1.3312 -0.6677 -3.7306
  185SLPC   H7Y21320   5.238   4.008   7.775 -1.0554 -0.5872 -0.0958
  185SLPC   C3821321   5.412   3.976   7.901  0.6279 -0.5611  0.0127
  185SLPC   H8X21322   5.408   4.086   7.920 -1.6797 -0.4440 -0.8256
  185SLPC   H8Y21323   5.517   3.946   7.883  0.7980  1.1459 -2.3237
  185SLPC   C3921324   5.374   3.909   8.035  0.3288 -0.1311  0.7356
  185SLPC   H9X21325   5.407   3.803   8.027  1.3936  0.1907  0.7480
  185SLPC   H9Y21326   5.264   3.907   8.049  0.2951 -0.4252  0.4390
  185SLPC  C31021327   5.439   3.973   8.164 -0.4704  0.1780  0.4005
  185SLPC  H10X21328   5.396   4.075   8.175 -1.0024  0.2536 -1.8358
  185SLPC  H10Y21329   5.546   3.983   8.136 -0.6080  1.9984  0.4145
  185SLPC  C31121330   5.447   3.875   8.284  0.6708 -0.6819 -0.0580
  185SLPC  H11X21331   5.516   3.789   8.269  0.5452 -0.7526 -0.2369
  185SLPC  H11Y21332   5.342   3.849   8.310 -0.2987  4.4426  2.4690
  185SLPC  C31221333   5.504   3.948   8.406  0.3248  0.3256  0.1760
  185SLPC  H12X21334   5.429   4.019   8.445 -0.7885 -0.9180  0.3820
  185SLPC  H12Y21335   5.585   4.015   8.371 -0.7924  0.3752 -2.5896
  185SLPC  C31321336   5.564   3.866   8.522  0.3394 -0.1288  0.7576
  185SLPC  H13X21337   5.626   3.944   8.573  0.5687  0.4540 -0.3679
  185SLPC  H13Y21338   5.622   3.790   8.466 -0.7651  0.6415 -1.5777
  185SLPC  C31421339   5.458   3.796   8.605  0.8762 -0.2883 -1.3045
  185SLPC  H14X21340   5.362   3.796   8.549  0.8162  1.6880 -1.2879
  185SLPC  H14Y21341   5.442   3.849   8.701  1.6826 -2.1889 -0.0630
  185SLPC  C31521342   5.492   3.653   8.637 -0.3910  0.3350 -0.0670
  185SLPC  H15X21343   5.601   3.649   8.661 -0.4252 -1.3877 -0.0389
  185SLPC  H15Y21344   5.472   3.593   8.546  0.0287 -0.5727  0.4216
  185SLPC  C31621345   5.419   3.594   8.762  0.2305  0.0944 -0.9366
  185SLPC  H16X21346   5.309   3.598   8.747  0.1904 -1.8234 -1.3778
  185SLPC  H16Y21347   5.456   3.653   8.849  0.9340 -0.2915 -0.9653
  185SLPC  C31721348   5.473   3.451   8.787  0.0762 -0.2211 -0.4304
  185SLPC  H17X21349   5.469   3.393   8.692  0.9061  1.5144 -1.5717
  185SLPC  H17Y21350   5.409   3.398   8.861  0.7076  1.9124  1.7741
  185SLPC  C31821351   5.606   3.436   8.844  1.0065 -0.8306  0.4596
  185SLPC  H18X21352   5.602   3.431   8.955 -0.3912 -0.3640  0.4444
  185SLPC  H18Y21353   5.679   3.505   8.794 -0.3251 -2.0646 -3.5585
  185SLPC  H18Z21354   5.634   3.335   8.807  5.0298  0.3105 -0.1093
  186SLPC     N21355   5.928   0.335   5.883  0.7351  0.5704  0.4152
  186SLPC   C1321356   5.851   0.460   5.857  0.8355 -0.1220  0.2515
  186SLPC  H13A21357   5.906   0.550   5.880  0.8694 -0.1530  0.2926
  186SLPC  H13B21358   5.818   0.461   5.755  0.5180  1.0048  0.3565
  186SLPC  H13C21359   5.761   0.463   5.916  0.6751 -0.6733  0.0321
  186SLPC   C1421360   6.046   0.326   5.796 -0.4221  0.5885 -0.5018
  186SLPC  H14A21361   6.113   0.408   5.818  0.9735 -0.6097 -0.1349
  186SLPC  H14B21362   6.108   0.238   5.805  1.1170  1.6214 -0.6673
  186SLPC  H14C21363   6.008   0.320   5.695  0.3064 -1.3394 -0.6984
  186SLPC   C1521364   5.846   0.209   5.850 -0.2477 -0.6213  0.7075
  186SLPC  H15A21365   5.841   0.182   5.745 -4.1670  1.6669  0.1029
  186SLPC  H15B21366   5.877   0.128   5.913 -2.5657 -0.2681  2.4577
  186SLPC  H15C21367   5.744   0.216   5.885  0.2828 -0.8421  2.3716
  186SLPC   C1221368   5.967   0.330   6.027  0.5221  0.5336 -0.2338
  186SLPC  H12A21369   6.028   0.415   6.052 -0.0779 -0.0080  3.7152
  186SLPC  H12B21370   6.032   0.246   6.046  1.7847  1.6431  0.4534
  186SLPC   C1121371   5.846   0.319   6.122 -0.0037 -0.3250 -0.1856
  186SLPC  H11A21372   5.763   0.385   6.090  0.5722  0.9106  0.7631
  186SLPC  H11B21373   5.872   0.350   6.226 -0.4215  0.0425 -0.1862
  186SLPC     P21374   5.831   0.086   6.225  0.2625 -0.2153 -0.3443
  186SLPC   O1321375   5.758  -0.039   6.202 -0.1599 -0.8810  0.0813
  186SLPC   O1421376   5.977   0.078   6.227 -0.4620 -0.1306 -0.3737
  186SLPC   O1221377   5.797   0.192   6.114 -0.9577 -0.2009 -0.3991
  186SLPC   O1121378   5.780   0.157   6.360 -0.3226  0.1678  0.3024
  186SLPC    C121379   5.868   0.224   6.447 -0.2916 -0.2404  0.0185
  186SLPC    HA21380   5.965   0.243   6.396 -0.1800  0.1821  0.3742
  186SLPC    HB21381   5.813   0.318   6.471 -0.1815 -0.0172 -0.5954
  186SLPC    C221382   5.890   0.160   6.591  0.3514  0.4557  0.4638
  186SLPC    HS21383   5.921   0.056   6.567 -1.2465  0.1124 -0.2876
  186SLPC   O2121384   5.757   0.159   6.654  0.3690  0.1584  0.6936
  186SLPC   C2121385   5.678   0.063   6.620  0.1264 -1.0712  0.2589
  186SLPC   O2221386   5.713  -0.036   6.554  0.1553  0.0973 -0.1534
  186SLPC   C2221387   5.536   0.079   6.674 -0.3728 -0.4154  0.3232
  186SLPC   H2R21388   5.497  -0.023   6.694 -1.0757 -0.2059  0.0593
  186SLPC   H2S21389   5.533   0.138   6.769 -0.1761  2.7296 -1.5031
  186SLPC    C321390   5.989   0.231   6.679 -0.1485  0.5607 -0.1968
  186SLPC    HX21391   5.953   0.335   6.695 -0.6916  0.2944  0.3598
  186SLPC    HY21392   6.079   0.238   6.615  1.4492 -1.0387  1.7149
  186SLPC   O3121393   6.013   0.156   6.799  0.1040 -0.0534 -0.4272
  186SLPC   C3121394   6.075   0.220   6.895  0.6674  0.5059 -1.0115
  186SLPC   O3221395   6.121   0.328   6.880 -0.3461 -0.1867 -0.0442
  186SLPC   C3221396   6.092   0.130   7.013  0.0776 -0.2915  0.0649
  186SLPC   H2X21397   6.182   0.067   6.998  0.9237  0.2471  2.5066
  186SLPC   H2Y21398   5.997   0.079   7.038 -1.4723  2.4911  0.3060
  186SLPC   C2321399   5.431   0.133   6.571 -0.0654 -0.0881  0.2171
  186SLPC   H3R21400   5.405   0.065   6.487  0.1902  0.9041 -0.6866
  186SLPC   H3S21401   5.465   0.229   6.527 -0.3306 -0.4596 -0.8396
  186SLPC   C2421402   5.296   0.161   6.634 -0.0127  0.0779 -0.4492
  186SLPC   H4R21403   5.273   0.064   6.683 -1.1217 -1.1929 -3.2394
  186SLPC   H4S21404   5.222   0.186   6.555 -0.0648  1.4035 -0.0082
  186SLPC   C2521405   5.291   0.284   6.730  0.6931 -0.2804  0.3291
  186SLPC   H5R21406   5.290   0.380   6.674 -2.2680  1.0426  2.3866
  186SLPC   H5S21407   5.381   0.274   6.793  0.0035  1.0954  1.5951
  186SLPC   C2621408   5.165   0.299   6.825  0.6611 -0.4065 -0.8000
  186SLPC   H6R21409   5.072   0.308   6.765  1.0776  0.4039 -1.3439
  186SLPC   H6S21410   5.166   0.401   6.868 -1.6881 -0.1970 -1.1105
  186SLPC   C2721411   5.153   0.191   6.942 -0.4951 -0.3929 -0.4487
  186SLPC   H7R21412   5.245   0.205   7.002 -0.7931  2.4534 -0.5350
  186SLPC   H7S21413   5.152   0.091   6.892 -0.0108 -0.9383  0.6097
  186SLPC   C2821414   5.027   0.216   7.029  0.4947 -0.1806  0.0006
  186SLPC   H8R21415   5.031   0.312   7.084  0.5421 -0.5578  0.6661
  186SLPC   H8S21416   5.029   0.136   7.106 -0.3523 -0.2361 -0.0242
  186SLPC   C2921417   4.901   0.212   6.950 -0.7312  0.0482 -0.0315
  186SLPC   H9R21418   4.908   0.286   6.870  3.5963  0.7113  0.7286
  186SLPC  C21021419   4.797   0.136   6.965  0.4286 -0.1733 -0.9048
  186SLPC  H10R21420   4.718   0.135   6.888 -0.6368 -0.0111  0.1480
  186SLPC  C21121421   4.782   0.023   7.068 -0.1796 -0.2912 -0.0940
  186SLPC  H11R21422   4.881  -0.015   7.102 -0.1489  0.3539  0.5673
  186SLPC  H11S21423   4.731  -0.068   7.031 -1.3875 -0.1560  1.1373
  186SLPC  C21221424   4.717   0.064   7.198  0.0704  0.3140  0.8296
  186SLPC  H12R21425   4.631   0.130   7.182  1.5631  2.7758  2.2765
  186SLPC  C21321426   4.758   0.038   7.320  0.6138  0.2994  0.1217
  186SLPC  H13R21427   4.686   0.056   7.401  0.2574  0.5173 -0.2397
  186SLPC  C21421428   4.880  -0.027   7.373 -0.9792  0.1297 -0.2412
  186SLPC  H14R21429   4.945   0.041   7.433 -0.1243 -1.3195  0.5242
  186SLPC  H14S21430   4.947  -0.065   7.293 -1.4670  2.5407 -1.9313
  186SLPC  C21521431   4.844  -0.145   7.470  0.6777 -0.0607  0.2574
  186SLPC  H15R21432   4.931  -0.211   7.492 -0.2560 -1.1743  0.6625
  186SLPC  H15S21433   4.767  -0.207   7.420  0.5004  0.7067 -0.4422
  186SLPC  C21621434   4.795  -0.096   7.607  0.4572 -0.3767  0.8748
  186SLPC  H16R21435   4.691  -0.057   7.598  1.0974  2.0599  2.9747
  186SLPC  H16S21436   4.851  -0.013   7.655 -4.6993  1.9888  3.7173
  186SLPC  C21721437   4.795  -0.214   7.710  0.4101 -0.0732 -0.2308
  186SLPC  H17R21438   4.896  -0.261   7.708  1.3166  1.8071 -2.7298
  186SLPC  H17S21439   4.726  -0.296   7.681  0.5847 -0.8693  1.4888
  186SLPC  C21821440   4.759  -0.169   7.862 -0.9684  0.0877  0.3867
  186SLPC  H18R21441   4.726  -0.247   7.934  0.3071 -0.7785  0.0661
  186SLPC  H18S21442   4.674  -0.097   7.859 -0.5740  0.6074  1.4050
  186SLPC  H18T21443   4.850  -0.118   7.900  0.1728 -1.9800  0.5419
  186SLPC   C3321444   6.125   0.219   7.140 -0.9122 -0.6288  0.1375
  186SLPC   H3X21445   6.054   0.304   7.145  1.4769  1.4385  2.8298
  186SLPC   H3Y21446   6.233   0.246   7.132 -0.8531 -0.3670  1.4910
  186SLPC   C3421447   6.115   0.133   7.270 -0.4944  0.0560  0.0570
  186SLPC   H4X21448   6.185   0.051   7.246  0.1665  0.5562  0.2621
  186SLPC   H4Y21449   6.014   0.089   7.253 -1.0780  1.6088 -0.8322
  186SLPC   C3521450   6.124   0.206   7.404 -0.4700  0.9227 -1.0208
  186SLPC   H5X21451   6.024   0.251   7.420 -0.4253  1.0369 -1.0634
  186SLPC   H5Y21452   6.203   0.283   7.387 -0.1041  0.6944 -0.3759
  186SLPC   C3621453   6.162   0.109   7.516 -0.2825 -0.6200  0.0502
  186SLPC   H6X21454   6.263   0.065   7.503 -0.1607 -0.3109 -0.0457
  186SLPC   H6Y21455   6.095   0.021   7.532  2.5022 -2.8284  0.3637
  186SLPC   C3721456   6.165   0.194   7.648  0.0471  0.4706 -0.3699
  186SLPC   H7X21457   6.074   0.257   7.651  0.6399  1.3326 -0.1372
  186SLPC   H7Y21458   6.261   0.246   7.667  1.3896 -1.8910 -0.2713
  186SLPC   C3821459   6.155   0.103   7.773 -0.4350 -0.3305  0.3247
  186SLPC   H8X21460   6.237   0.032   7.797 -0.8840 -0.9343  0.0811
  186SLPC   H8Y21461   6.060   0.047   7.762 -0.8504  0.3375  0.4329
  186SLPC   C3921462   6.151   0.187   7.905 -0.1286  0.2169  0.5843
  186SLPC   H9X21463   6.069   0.262   7.913  0.7429  1.1889  0.6420
  186SLPC   H9Y21464   6.240   0.254   7.897  1.6731 -1.9347  1.5626
  186SLPC  C31021465   6.159   0.089   8.026 -0.1371  0.1099 -0.6375
  186SLPC  H10X21466   6.157   0.145   8.122 -0.9640 -0.0340 -0.5626
  186SLPC  H10Y21467   6.256   0.035   8.020 -0.2775 -0.0427 -1.6859
  186SLPC  C31121468   6.045  -0.006   8.039 -0.1590  0.0105 -0.0358
  186SLPC  H11X21469   6.050  -0.082   7.958  1.1496 -0.4365  0.4460
  186SLPC  H11Y21470   5.957   0.060   8.023  0.6069  0.8769 -0.7393
  186SLPC  C31221471   6.045  -0.090   8.174 -0.2363 -0.5012 -0.1805
  186SLPC  H12X21472   5.942  -0.123   8.198 -0.2197 -0.2712  0.2131
  186SLPC  H12Y21473   6.076  -0.024   8.258 -0.0259 -1.4372  0.4865
  186SLPC  C31321474   6.145  -0.203   8.161 -0.3345  0.3239  0.2575
  186SLPC  H13X21475   6.249  -0.167   8.146 -0.4933  0.5927 -0.1963
  186SLPC  H13Y21476   6.127  -0.266   8.072 -1.6171 -1.7530  1.8737
  186SLPC  C31421477   6.150  -0.296   8.282 -0.2816 -1.0988 -0.0116
  186SLPC  H14X21478   6.050  -0.343   8.293 -0.5511 -0.3890  0.6525
  186SLPC  H14Y21479   6.158  -0.229   8.371 -1.9011 -0.8310 -0.0260
  186SLPC  C31521480   6.261  -0.403   8.284  0.4951  0.9354 -0.3218
  186SLPC  H15X21481   6.362  -0.356   8.271  0.3618  1.6832  1.1556
  186SLPC  H15Y21482   6.258  -0.470   8.195 -3.0136  0.4072  0.0601
  186SLPC  C31621483   6.271  -0.477   8.420 -1.0095  0.2749  0.6845
  186SLPC  H16X21484   6.166  -0.486   8.457 -1.1141  0.2541  0.3892
  186SLPC  H16Y21485   6.330  -0.414   8.489  0.0211  0.1944 -0.0962
  186SLPC  C31721486   6.334  -0.613   8.398  0.0671 -0.0540 -0.3207
  186SLPC  H17X21487   6.432  -0.617   8.346  0.0860 -2.5941 -0.2135
  186SLPC  H17Y21488   6.263  -0.674   8.339  1.0343  0.8635 -2.5542
  186SLPC  C31821489   6.360  -0.687   8.528 -0.3723  0.3901 -0.6616
  186SLPC  H18X21490   6.447  -0.650   8.586 -1.2651  1.6828 -0.1172
  186SLPC  H18Y21491   6.370  -0.797   8.512 -1.1739 -0.1549  2.1437
  186SLPC  H18Z21492   6.269  -0.675   8.590  0.1608  0.1550  0.1882
  187SLPC     N21493   5.606   2.934   6.443 -0.3661 -0.8818 -0.0497
  187SLPC   C1321494   5.596   2.855   6.318  0.1173 -0.5862 -0.0296
  187SLPC  H13A21495   5.494   2.827   6.296 -0.0138 -1.6386  1.7659
  187SLPC  H13B21496   5.635   2.917   6.238 -1.9637 -0.5518 -1.0864
  187SLPC  H13C21497   5.659   2.767   6.317  1.3583  0.2115  1.9641
  187SLPC   C1421498   5.564   2.850   6.560 -0.2546 -0.5857  0.1758
  187SLPC  H14A21499   5.580   2.886   6.660 -0.6854  0.5739 -0.1609
  187SLPC  H14B21500   5.459   2.833   6.543 -0.0790 -0.5352 -1.0685
  187SLPC  H14C21501   5.609   2.751   6.560 -0.8933 -0.8857  1.1848
  187SLPC   C1521502   5.505   3.054   6.440 -0.7701  0.0025  0.3225
  187SLPC  H15A21503   5.539   3.129   6.370 -1.5519  0.0420 -0.0269
  187SLPC  H15B21504   5.405   3.024   6.414 -0.6095  0.4663 -0.9097
  187SLPC  H15C21505   5.508   3.112   6.532 -0.7465  1.2971 -0.4681
  187SLPC   C1221506   5.752   2.980   6.455  0.7017 -0.6309 -0.4853
  187SLPC  H12A21507   5.817   2.894   6.459  3.2422  1.0996  4.1600
  187SLPC  H12B21508   5.766   3.031   6.550  2.1910 -0.1186 -0.9466
  187SLPC   C1121509   5.808   3.072   6.342 -0.2792  0.8656  0.9219
  187SLPC  H11A21510   5.740   3.156   6.315 -1.0904 -1.0221 -3.8816
  187SLPC  H11B21511   5.812   3.020   6.244 -1.2500 -1.0125  1.8168
  187SLPC     P21512   5.992   3.204   6.476 -0.0616 -0.1188 -0.4583
  187SLPC   O1321513   6.085   3.307   6.424 -0.0995  0.5680  0.1222
  187SLPC   O1421514   5.872   3.246   6.553  0.5422  0.0592 -0.1069
  187SLPC   O1221515   5.946   3.105   6.365  0.8194 -0.6020  0.2283
  187SLPC   O1121516   6.078   3.103   6.566  0.1538  0.2082  0.7162
  187SLPC    C121517   6.210   3.073   6.533 -0.2778  0.1693  0.4289
  187SLPC    HA21518   6.235   2.966   6.546  1.5393  0.5699  0.5369
  187SLPC    HB21519   6.243   3.110   6.434  1.3022  1.5057  1.3871
  187SLPC    C221520   6.308   3.139   6.634 -0.3112 -0.4409  0.0980
  187SLPC    HS21521   6.399   3.076   6.627  0.5324  0.9582 -2.3069
  187SLPC   O2121522   6.253   3.136   6.764 -0.3007  0.5161 -0.0997
  187SLPC   C2121523   6.323   3.100   6.860 -0.7411  0.6019 -0.4532
  187SLPC   O2221524   6.433   3.049   6.858 -0.5885  0.2013 -0.2581
  187SLPC   C2221525   6.261   3.132   6.993  0.2005 -0.0358 -0.1262
  187SLPC   H2R21526   6.248   3.241   7.008  1.4160  0.3671 -1.7974
  187SLPC   H2S21527   6.163   3.080   7.006  1.0879 -1.9183 -0.5628
  187SLPC    C321528   6.343   3.283   6.586 -0.5741 -0.1632  0.1447
  187SLPC    HX21529   6.259   3.357   6.584  0.0070  0.5389  1.0696
  187SLPC    HY21530   6.376   3.277   6.480 -0.4040  0.1729  0.1791
  187SLPC   O3121531   6.448   3.351   6.665  0.1312  0.1367  0.4519
  187SLPC   C3121532   6.567   3.318   6.638 -0.5329  0.0733 -0.2345
  187SLPC   O3221533   6.607   3.238   6.555 -0.7747  0.1898  0.4147
  187SLPC   C3221534   6.659   3.416   6.718 -0.1937  0.8989  0.2364
  187SLPC   H2X21535   6.597   3.508   6.729 -1.6752  0.0298 -0.5868
  187SLPC   H2Y21536   6.745   3.437   6.650  1.9135 -0.1949  2.3966
  187SLPC   C2321537   6.343   3.095   7.119  0.1150  0.3428 -0.4547
  187SLPC   H3R21538   6.448   3.133   7.111  0.0633  0.7148  0.5544
  187SLPC   H3S21539   6.349   2.984   7.119 -1.0950  0.2582  0.4722
  187SLPC   C2421540   6.291   3.144   7.250 -0.4972  0.5495  0.6719
  187SLPC   H4R21541   6.191   3.099   7.266 -0.7145  0.8779  0.2506
  187SLPC   H4S21542   6.290   3.255   7.244  2.5906  0.7889  2.5263
  187SLPC   C2521543   6.387   3.099   7.369  0.9655  0.1776 -0.2240
  187SLPC   H5R21544   6.483   3.153   7.361  1.7960 -1.3364 -1.0571
  187SLPC   H5S21545   6.411   2.990   7.376  1.1300  0.2901  1.1850
  187SLPC   C2621546   6.320   3.129   7.504  0.0604 -0.7859  0.6376
  187SLPC   H6R21547   6.222   3.082   7.525 -0.7212  1.0493  1.3768
  187SLPC   H6S21548   6.303   3.239   7.506  1.0624 -0.5848 -0.5115
  187SLPC   C2721549   6.421   3.121   7.616  0.0323  0.0699  0.3678
  187SLPC   H7R21550   6.516   3.174   7.593 -0.4304  1.0660  0.7237
  187SLPC   H7S21551   6.448   3.015   7.637 -0.1792  0.1946  1.2866
  187SLPC   C2821552   6.355   3.189   7.739 -0.5747  0.1479  0.7433
  187SLPC   H8R21553   6.250   3.153   7.741 -0.0047 -1.9117 -1.4508
  187SLPC   H8S21554   6.357   3.298   7.719 -3.6080  0.2352  0.4335
  187SLPC   C2921555   6.433   3.159   7.861 -0.1786 -0.1312  0.4472
  187SLPC   H9R21556   6.540   3.184   7.856  0.0952 -1.4556 -1.1489
  187SLPC  C21021557   6.378   3.129   7.985  0.1463  0.0465  0.2165
  187SLPC  H10R21558   6.441   3.117   8.074  1.6638  0.3180 -0.7768
  187SLPC  C21121559   6.228   3.117   8.013  0.1689 -0.1586 -0.2221
  187SLPC  H11R21560   6.221   3.061   8.109  0.4000 -3.2222 -1.8798
  187SLPC  H11S21561   6.170   3.063   7.936 -0.7534  1.0333 -0.4052
  187SLPC  C21221562   6.162   3.253   8.024 -0.3328 -0.2200 -0.1622
  187SLPC  H12R21563   6.172   3.304   7.927  2.0710 -0.6835 -0.2177
  187SLPC  C21321564   6.105   3.316   8.128  0.3924  0.1677 -0.1627
  187SLPC  H13R21565   6.074   3.419   8.109  0.2055  1.3945  5.2338
  187SLPC  C21421566   6.075   3.265   8.266 -0.5346 -0.3959 -0.5206
  187SLPC  H14R21567   6.140   3.181   8.296 -0.8202 -0.1525  0.8514
  187SLPC  H14S21568   5.970   3.228   8.276  0.0924 -1.5246  3.3449
  187SLPC  C21521569   6.091   3.369   8.371  0.4281 -1.0799  0.7937
  187SLPC  H15R21570   6.049   3.468   8.341 -2.1196 -1.9136  1.3171
  187SLPC  H15S21571   6.200   3.378   8.387  0.2178  5.1020  1.1241
  187SLPC  C21621572   6.019   3.348   8.498  0.0023  0.0397  0.1048
  187SLPC  H16R21573   6.043   3.250   8.545  1.5959  0.3625  0.0009
  187SLPC  H16S21574   5.909   3.336   8.484  0.2263  0.8892 -3.2173
  187SLPC  C21721575   6.045   3.460   8.599 -0.0983 -0.0758  0.1490
  187SLPC  H17R21576   6.070   3.558   8.554 -4.0761  1.2981  0.5063
  187SLPC  H17S21577   6.133   3.435   8.662 -1.0354 -2.1568  0.7132
  187SLPC  C21821578   5.939   3.488   8.703  0.6570 -0.0839  0.2166
  187SLPC  H18R21579   5.852   3.534   8.652  1.4809 -0.9984 -2.1533
  187SLPC  H18S21580   5.982   3.549   8.785  1.4110 -0.6826  0.2771
  187SLPC  H18T21581   5.895   3.398   8.751 -0.0933  1.1194  1.8700
  187SLPC   C3321582   6.726   3.371   6.848 -0.2929 -0.3918 -0.1637
  187SLPC   H3X21583   6.812   3.437   6.874  1.1472 -1.2361 -2.4556
  187SLPC   H3Y21584   6.773   3.271   6.840 -0.4748 -0.6569  1.6870
  187SLPC   C3421585   6.631   3.363   6.965 -0.0694  0.2575  0.3066
  187SLPC   H4X21586   6.673   3.323   7.060  0.9118  1.1758  0.2867
  187SLPC   H4Y21587   6.542   3.299   6.946 -0.8518  1.8338 -1.7101
  187SLPC   C3521588   6.579   3.511   6.998 -0.2920  0.7585  0.0813
  187SLPC   H5X21589   6.535   3.562   6.909 -0.8594 -0.5233 -0.3943
  187SLPC   H5Y21590   6.669   3.576   7.007 -1.1478  2.6231 -3.1844
  187SLPC   C3621591   6.486   3.522   7.121  0.4763  0.9364 -0.3901
  187SLPC   H6X21592   6.418   3.435   7.113  1.9084 -0.1148 -1.7914
  187SLPC   H6Y21593   6.435   3.621   7.110 -0.0789  0.7701  0.6067
  187SLPC   C3721594   6.560   3.501   7.255  0.2020  0.1877  0.1487
  187SLPC   H7X21595   6.587   3.394   7.270  3.9648  0.8730 -0.7976
  187SLPC   H7Y21596   6.656   3.555   7.259  1.2500 -1.6506  1.0560
  187SLPC   C3821597   6.486   3.547   7.378  0.6086  0.8648  1.0554
  187SLPC   H8X21598   6.380   3.517   7.362  0.6141  2.1194 -2.1934
  187SLPC   H8Y21599   6.488   3.658   7.373  1.9797  0.8978  1.9188
  187SLPC   C3921600   6.536   3.494   7.511  0.0357  0.2230 -0.5218
  187SLPC   H9X21601   6.646   3.508   7.507  0.6036 -3.4699 -1.5058
  187SLPC   H9Y21602   6.517   3.385   7.517 -0.5204  0.3816  0.9645
  187SLPC  C31021603   6.477   3.560   7.638  0.0136 -0.5940 -0.4927
  187SLPC  H10X21604   6.371   3.527   7.647  0.1759 -1.3122 -1.0388
  187SLPC  H10Y21605   6.471   3.671   7.637 -3.5373 -0.6552 -1.5407
  187SLPC  C31121606   6.549   3.517   7.755  0.0225  0.9170  0.5002
  187SLPC  H11X21607   6.644   3.575   7.761  0.3430  0.2688  1.8802
  187SLPC  H11Y21608   6.577   3.411   7.741 -0.6577  1.0907 -3.3870
  187SLPC  C31221609   6.482   3.529   7.889 -0.1532  0.1603 -0.0923
  187SLPC  H12X21610   6.391   3.466   7.886 -0.2717  0.3403 -0.2719
  187SLPC  H12Y21611   6.453   3.636   7.891 -2.4089 -0.2264 -3.7826
  187SLPC  C31321612   6.576   3.495   8.007  0.4508 -0.6403 -0.4352
  187SLPC  H13X21613   6.669   3.555   8.003 -0.0311  0.4686  2.5134
  187SLPC  H13Y21614   6.588   3.384   8.007 -0.7132 -0.7826 -0.2250
  187SLPC  C31421615   6.510   3.537   8.138  0.8933 -0.0291 -0.6290
  187SLPC  H14X21616   6.419   3.476   8.152  0.6645  0.1624 -1.2578
  187SLPC  H14Y21617   6.487   3.645   8.133 -0.5898 -0.3373 -0.7415
  187SLPC  C31521618   6.595   3.527   8.262 -0.2433 -0.9915 -0.4397
  187SLPC  H15X21619   6.693   3.580   8.261  0.8655 -2.8833  1.1228
  187SLPC  H15Y21620   6.626   3.421   8.276 -0.3816 -1.3151 -2.3127
  187SLPC  C31621621   6.521   3.581   8.391  0.1921 -0.1761 -0.2402
  187SLPC  H16X21622   6.421   3.534   8.399 -0.2226  0.5713 -0.9391
  187SLPC  H16Y21623   6.508   3.691   8.385 -2.4006 -0.3006  1.6134
  187SLPC  C31721624   6.605   3.555   8.530 -0.0736 -0.0670  0.0355
  187SLPC  H17X21625   6.706   3.598   8.512 -0.0826 -0.1726 -0.2743
  187SLPC  H17Y21626   6.635   3.448   8.536  2.6747  0.5225 -1.4656
  187SLPC  C31821627   6.550   3.606   8.662  0.2733  0.0379 -0.0989
  187SLPC  H18X21628   6.448   3.567   8.679 -0.1363  1.3829  0.6617
  187SLPC  H18Y21629   6.551   3.717   8.654  0.9698 -0.0600 -1.6949
  187SLPC  H18Z21630   6.617   3.579   8.747 -0.4794 -0.3621  0.3707
  188SLPC     N21631   6.366   5.023   6.188  0.1154 -0.7254 -0.0349
  188SLPC   C1321632   6.222   5.044   6.135 -0.0118  0.4323 -0.1937
  188SLPC  H13A21633   6.175   5.106   6.211 -1.0905 -0.6475  0.0465
  188SLPC  H13B21634   6.235   5.090   6.038  1.6681  1.0024  0.2581
  188SLPC  H13C21635   6.172   4.951   6.115  3.4595 -1.0636 -3.0238
  188SLPC   C1421636   6.437   5.155   6.169 -0.4951 -0.5331  0.6391
  188SLPC  H14A21637   6.398   5.229   6.237  0.0197  1.8492 -1.5009
  188SLPC  H14B21638   6.543   5.140   6.159 -0.6626 -1.6246  0.3667
  188SLPC  H14C21639   6.413   5.200   6.074  1.0880 -0.1564  0.3870
  188SLPC   C1521640   6.429   4.914   6.119 -0.1183 -0.8247 -0.3910
  188SLPC  H15A21641   6.373   4.822   6.135 -0.1061 -0.6773  0.6000
  188SLPC  H15B21642   6.447   4.934   6.015  2.4896  1.0054  0.3201
  188SLPC  H15C21643   6.528   4.894   6.156  0.1781 -1.2208 -1.3692
  188SLPC   C1221644   6.349   5.001   6.342 -0.4918 -0.0845  0.6931
  188SLPC  H12A21645   6.306   4.904   6.362 -1.2536 -0.0564 -0.7160
  188SLPC  H12B21646   6.272   5.066   6.381  0.5836  0.1908  2.4893
  188SLPC   C1121647   6.479   5.021   6.423  0.1777 -0.4817 -0.2478
  188SLPC  H11A21648   6.456   4.979   6.523 -2.0448  1.4397  0.1427
  188SLPC  H11B21649   6.490   5.132   6.431  3.1387 -0.8323  2.9274
  188SLPC     P21650   6.735   4.998   6.390 -0.1307 -0.5910  0.0352
  188SLPC   O1321651   6.825   4.895   6.346 -0.8692 -0.1565  0.3187
  188SLPC   O1421652   6.741   5.130   6.319  0.0097 -0.7025  0.0601
  188SLPC   O1221653   6.588   4.950   6.363  0.1110  0.0082  0.3556
  188SLPC   O1121654   6.750   5.018   6.549  0.0735  0.6407  0.0001
  188SLPC    C121655   6.780   4.918   6.637  0.5848 -0.3640  0.0531
  188SLPC    HA21656   6.722   4.826   6.617  0.7377 -0.5909  0.6160
  188SLPC    HB21657   6.888   4.891   6.640  0.7713  0.3839  0.2403
  188SLPC    C221658   6.721   4.955   6.778 -0.3355  0.1879 -0.3166
  188SLPC    HS21659   6.611   4.972   6.771 -0.6596 -1.7009 -0.3089
  188SLPC   O2121660   6.798   5.062   6.839  0.1854 -0.2383 -0.1310
  188SLPC   C2121661   6.723   5.158   6.890 -0.4135  0.2594  0.8549
  188SLPC   O2221662   6.599   5.157   6.893 -0.1739  0.2449 -0.1827
  188SLPC   C2221663   6.805   5.276   6.945 -0.0867  0.3647  1.1905
  188SLPC   H2R21664   6.905   5.240   6.976 -0.7993 -0.1457  3.0186
  188SLPC   H2S21665   6.808   5.355   6.866  1.7407 -0.1296  0.7169
  188SLPC    C321666   6.724   4.834   6.869  0.4407  0.2034  0.4999
  188SLPC    HX21667   6.828   4.799   6.885  0.5495 -0.5545 -1.5530
  188SLPC    HY21668   6.683   4.743   6.819 -1.3320  0.3960  1.5206
  188SLPC   O3121669   6.657   4.867   6.993 -0.0434  0.6943 -0.3586
  188SLPC   C3121670   6.524   4.842   7.006  0.4642  0.2718 -0.3876
  188SLPC   O3221671   6.449   4.804   6.917 -0.8581 -0.4600  0.2229
  188SLPC   C3221672   6.484   4.842   7.152 -0.2743 -0.0822 -0.4228
  188SLPC   H2X21673   6.578   4.827   7.210 -0.2075  1.1126 -0.1873
  188SLPC   H2Y21674   6.414   4.759   7.173  0.1606 -0.4773 -0.5188
  188SLPC   C2321675   6.749   5.345   7.070 -0.0673  0.4725 -0.2469
  188SLPC   H3R21676   6.722   5.263   7.140 -1.4319  1.1989  0.1011
  188SLPC   H3S21677   6.661   5.397   7.027 -0.6628 -0.9363 -0.7841
  188SLPC   C2421678   6.834   5.452   7.132  0.1731  0.2119 -0.2193
  188SLPC   H4R21679   6.881   5.523   7.060  1.9013  0.1452  0.7748
  188SLPC   H4S21680   6.935   5.408   7.149  0.4963  1.1548  0.3530
  188SLPC   C2521681   6.771   5.532   7.253  0.2401 -0.1836  0.8598
  188SLPC   H5R21682   6.724   5.454   7.317 -2.1679 -0.5399 -1.1811
  188SLPC   H5S21683   6.694   5.604   7.218 -0.8666 -1.1823  1.1629
  188SLPC   C2621684   6.881   5.598   7.337 -0.2329 -0.0356 -0.2242
  188SLPC   H6R21685   6.953   5.668   7.291  2.3201 -0.9893  2.0579
  188SLPC   H6S21686   6.948   5.518   7.376 -0.8992 -1.0517 -1.1020
  188SLPC   C2721687   6.825   5.675   7.460 -0.0353 -0.8492  0.7027
  188SLPC   H7R21688   6.775   5.605   7.531  1.5425 -1.4560  1.2529
  188SLPC   H7S21689   6.747   5.746   7.425  0.0623 -0.4697  1.2536
  188SLPC   C2821690   6.946   5.756   7.525  0.5726 -0.5786 -0.1667
  188SLPC   H8R21691   6.889   5.829   7.587  0.9642 -0.9851  0.6877
  188SLPC   H8S21692   7.004   5.808   7.446 -1.7149  0.1704 -1.4459
  188SLPC   C2921693   7.028   5.667   7.607 -0.1925  0.3277  1.0237
  188SLPC   H9R21694   7.078   5.584   7.555 -1.1642  0.1919  0.2573
  188SLPC  C21021695   7.055   5.667   7.733 -0.2587  1.3300 -0.3021
  188SLPC  H10R21696   7.116   5.584   7.772 -1.5158  0.6191  0.1956
  188SLPC  C21121697   7.001   5.759   7.839  0.0691 -0.0209  0.0074
  188SLPC  H11R21698   6.955   5.703   7.923 -0.9919  1.3440  0.3778
  188SLPC  H11S21699   6.915   5.814   7.794  1.4819  0.0644 -2.8415
  188SLPC  C21221700   7.100   5.858   7.887  0.3606  0.2367 -0.2685
  188SLPC  H12R21701   7.086   5.963   7.855  2.6303  0.9278  0.8250
  188SLPC  C21321702   7.192   5.839   7.979 -0.7254 -0.3872 -0.4273
  188SLPC  H13R21703   7.253   5.923   8.018  0.5889 -1.3669 -0.3136
  188SLPC  C21421704   7.223   5.706   8.040 -0.7744  0.1406 -0.4725
  188SLPC  H14R21705   7.310   5.654   7.994  0.0864  1.4999 -0.4415
  188SLPC  H14S21706   7.140   5.633   8.045  1.3578 -2.3781  1.0619
  188SLPC  C21521707   7.257   5.714   8.193 -0.6209 -0.4041 -0.2222
  188SLPC  H15R21708   7.174   5.751   8.257  2.3484  0.9201  3.2102
  188SLPC  H15S21709   7.343   5.781   8.212 -1.6201  1.0863 -0.7899
  188SLPC  C21621710   7.280   5.566   8.246 -0.2024 -0.4945  0.1979
  188SLPC  H16R21711   7.344   5.509   8.175  1.1022  0.3466  0.6539
  188SLPC  H16S21712   7.178   5.522   8.248 -0.8498  0.8585 -1.2934
  188SLPC  C21721713   7.342   5.569   8.388 -0.0590 -0.3747  0.3738
  188SLPC  H17R21714   7.439   5.623   8.389 -0.4573  0.4508 -1.2783
  188SLPC  H17S21715   7.363   5.466   8.425  1.2092 -0.1873  0.2198
  188SLPC  C21821716   7.254   5.638   8.497  0.1865  0.2637  0.3815
  188SLPC  H18R21717   7.322   5.660   8.582  1.2862 -0.0216 -0.3949
  188SLPC  H18S21718   7.160   5.582   8.515  0.3378  0.5192  2.1603
  188SLPC  H18T21719   7.232   5.741   8.462 -0.1797  0.3614  0.8945
  188SLPC   C3321720   6.441   4.978   7.207  0.0795  0.1022  0.5082
  188SLPC   H3X21721   6.376   5.030   7.133 -2.3171 -2.1706  0.8981
  188SLPC   H3Y21722   6.533   5.040   7.211 -0.2445  0.7439 -1.0176
  188SLPC   C3421723   6.376   4.982   7.346  0.9420 -0.6549 -0.4600
  188SLPC   H4X21724   6.440   4.932   7.422 -1.2977 -4.7500 -0.9544
  188SLPC   H4Y21725   6.285   4.919   7.344  1.6292 -1.8611  2.0101
  188SLPC   C3521726   6.333   5.126   7.388 -0.1309 -0.7043  0.5022
  188SLPC   H5X21727   6.283   5.169   7.298  2.1472 -1.3488 -1.1704
  188SLPC   H5Y21728   6.417   5.199   7.393 -0.1272 -0.5891 -0.8150
  188SLPC   C3621729   6.230   5.135   7.497 -0.1055 -0.0039 -1.2124
  188SLPC   H6X21730   6.252   5.082   7.592 -2.8915  0.5191 -0.1713
  188SLPC   H6Y21731   6.136   5.084   7.468  0.4426 -0.8305 -1.5627
  188SLPC   C3721732   6.192   5.278   7.535  0.6919 -0.0982 -0.2900
  188SLPC   H7X21733   6.133   5.334   7.459  2.2348  0.6705 -0.9797
  188SLPC   H7Y21734   6.292   5.327   7.542  1.6608 -2.0880  0.4592
  188SLPC   C3821735   6.131   5.295   7.670  0.5385  0.0511 -0.1975
  188SLPC   H8X21736   6.180   5.245   7.757 -0.5071 -2.1465 -0.7809
  188SLPC   H8Y21737   6.032   5.245   7.656 -0.1116  1.3859 -0.4940
  188SLPC   C3921738   6.100   5.442   7.689 -0.2795 -0.0736 -0.0360
  188SLPC   H9X21739   6.018   5.466   7.619  0.4631  0.2468 -0.8047
  188SLPC   H9Y21740   6.193   5.496   7.662  1.5853 -2.5455  0.9891
  188SLPC  C31021741   6.053   5.471   7.841 -0.5088  0.0313  0.2739
  188SLPC  H10X21742   5.956   5.423   7.866 -1.2151  0.3706 -1.6409
  188SLPC  H10Y21743   6.034   5.580   7.834 -1.7220 -0.2532 -1.9436
  188SLPC  C31121744   6.156   5.454   7.946 -0.2654 -0.4556  1.0794
  188SLPC  H11X21745   6.243   5.513   7.910 -1.7745  0.9453 -0.4308
  188SLPC  H11Y21746   6.182   5.349   7.973  1.3581 -0.1024  0.9853
  188SLPC  C31221747   6.095   5.512   8.079 -0.4207  0.1130  0.4688
  188SLPC  H12X21748   5.998   5.469   8.112 -0.6937  0.7242  0.4773
  188SLPC  H12Y21749   6.080   5.622   8.074 -2.1094 -0.0964  0.3314
  188SLPC  C31321750   6.193   5.482   8.186 -0.7870  0.4475 -0.4763
  188SLPC  H13X21751   6.290   5.496   8.134  0.0902 -3.1524 -0.1025
  188SLPC  H13Y21752   6.199   5.372   8.205  1.1238  0.7244  0.7923
  188SLPC  C31421753   6.191   5.546   8.326  0.2138  0.5078  0.0157
  188SLPC  H14X21754   6.092   5.515   8.366 -0.6797  0.7378 -1.8945
  188SLPC  H14Y21755   6.184   5.652   8.293  0.7590  0.3875 -0.5066
  188SLPC  C31521756   6.312   5.526   8.414 -0.1292  0.2846 -0.8772
  188SLPC  H15X21757   6.290   5.568   8.515  1.2350 -0.2040 -0.3493
  188SLPC  H15Y21758   6.393   5.586   8.368  0.0780  1.0249  0.3983
  188SLPC  C31621759   6.354   5.379   8.429  0.3989 -0.4281 -0.3630
  188SLPC  H16X21760   6.400   5.331   8.340  0.6836 -0.8881  0.0282
  188SLPC  H16Y21761   6.255   5.334   8.449  0.0124  0.2070 -0.8189
  188SLPC  C31721762   6.456   5.362   8.544  0.0602  0.3765 -0.0013
  188SLPC  H17X21763   6.551   5.420   8.533  3.2741 -4.3777 -0.1714
  188SLPC  H17Y21764   6.490   5.257   8.535  2.9137  1.0889  1.3666
  188SLPC  C31821765   6.403   5.388   8.685  0.6731  0.2514 -1.2154
  188SLPC  H18X21766   6.389   5.498   8.689 -2.5610 -0.0800 -0.8929
  188SLPC  H18Y21767   6.465   5.361   8.772  1.2520  1.0213 -1.3773
  188SLPC  H18Z21768   6.307   5.337   8.709  1.3024 -0.0832  0.7367
  189SLPC     N21769   0.882   5.278   6.044 -0.2055  0.0431 -0.0200
  189SLPC   C1321770   0.882   5.253   5.899  0.4667 -1.0061 -0.3442
  189SLPC  H13A21771   0.802   5.183   5.880  2.2368 -3.6553  1.2970
  189SLPC  H13B21772   0.874   5.345   5.843  0.8443 -1.1042 -0.5700
  189SLPC  H13C21773   0.970   5.198   5.871  0.4267 -0.2111 -2.1958
  189SLPC   C1421774   0.899   5.152   6.116 -0.2164  0.4220  0.6725
  189SLPC  H14A21775   0.843   5.066   6.082  0.9666  0.4335 -1.4795
  189SLPC  H14B21776   1.004   5.130   6.116  0.1337  1.6027  3.9351
  189SLPC  H14C21777   0.879   5.161   6.222  0.8282 -2.9223  1.2562
  189SLPC   C1521778   0.741   5.328   6.066  0.4639 -0.3969  1.1064
  189SLPC  H15A21779   0.705   5.341   6.167 -0.5342  3.3154  0.4422
  189SLPC  H15B21780   0.738   5.420   6.008  0.5999 -1.3674 -0.5153
  189SLPC  H15C21781   0.679   5.257   6.014  2.6679 -1.4725 -0.2297
  189SLPC   C1221782   0.982   5.381   6.094 -0.5541  0.0819  0.4079
  189SLPC  H12A21783   0.951   5.471   6.043 -0.4529  0.2771  0.6929
  189SLPC  H12B21784   1.080   5.345   6.067 -0.6444 -0.3082  0.6003
  189SLPC   C1121785   0.992   5.402   6.251  0.2527 -0.4390 -0.8956
  189SLPC  H11A21786   0.891   5.391   6.296  0.3860  1.8809  0.1122
  189SLPC  H11B21787   1.032   5.498   6.288  0.1199 -1.8482  3.5284
  189SLPC     P21788   1.230   5.304   6.285 -0.4918 -0.4140 -0.4632
  189SLPC   O1321789   1.286   5.201   6.378 -0.2055 -0.2474  0.1417
  189SLPC   O1421790   1.263   5.295   6.144  0.5388 -0.3088  0.1764
  189SLPC   O1221791   1.079   5.305   6.301  0.9370  0.1697  0.3116
  189SLPC   O1121792   1.283   5.445   6.338  0.1880  0.0896 -0.2704
  189SLPC    C121793   1.214   5.495   6.463 -0.1566  0.2053 -0.3897
  189SLPC    HA21794   1.156   5.585   6.431  1.0539  0.6775 -1.3553
  189SLPC    HB21795   1.144   5.429   6.518 -2.2511  4.3075  2.3811
  189SLPC    C221796   1.323   5.551   6.563  0.4720 -0.3359  0.7990
  189SLPC    HS21797   1.390   5.607   6.494  1.0353 -0.7147  1.0383
  189SLPC   O2121798   1.382   5.442   6.625  0.0148 -0.0604 -0.1059
  189SLPC   C2121799   1.490   5.468   6.691  0.3635  0.0500  0.1971
  189SLPC   O2221800   1.562   5.569   6.683 -1.0510 -0.0911  0.4435
  189SLPC   C2221801   1.527   5.355   6.782  0.3719 -0.1894  0.1542
  189SLPC   H2R21802   1.449   5.277   6.768  0.2808 -0.0016 -0.3978
  189SLPC   H2S21803   1.625   5.308   6.758  1.3641  2.1510 -0.7046
  189SLPC    C321804   1.243   5.636   6.664 -0.8897 -0.5191 -0.2007
  189SLPC    HX21805   1.188   5.562   6.726 -0.5347 -0.5846  0.0430
  189SLPC    HY21806   1.161   5.688   6.610 -0.9178 -1.1994 -0.8256
  189SLPC   O3121807   1.323   5.715   6.759  0.5135 -0.4708 -0.2907
  189SLPC   C3121808   1.362   5.834   6.702  0.2529  0.2708 -0.2125
  189SLPC   O3221809   1.337   5.857   6.587 -0.1299  0.2040  0.2023
  189SLPC   C3221810   1.437   5.919   6.805  0.0585 -0.6434  0.1919
  189SLPC   H2X21811   1.546   5.902   6.799  0.7800  3.2139 -0.2919
  189SLPC   H2Y21812   1.404   5.896   6.909  0.2898 -0.8863  0.2122
  189SLPC   C2321813   1.532   5.408   6.931  0.3612  0.6961  0.0926
  189SLPC   H3R21814   1.618   5.478   6.928 -0.5502  1.7965 -1.1597
  189SLPC   H3S21815   1.556   5.321   6.996  2.8829 -0.2951 -1.9834
  189SLPC   C2421816   1.417   5.485   6.983 -0.8581 -0.1372  0.4877
  189SLPC   H4R21817   1.326   5.421   6.990  0.2345 -1.9036 -0.8421
  189SLPC   H4S21818   1.394   5.566   6.911 -1.9040  0.9143  1.9219
  189SLPC   C2521819   1.446   5.548   7.117 -0.3657  0.4181  0.2280
  189SLPC   H5R21820   1.367   5.624   7.137 -1.1814  0.2852 -2.2026
  189SLPC   H5S21821   1.548   5.590   7.115 -0.1160 -0.1569 -1.8708
  189SLPC   C2621822   1.442   5.452   7.240 -0.0404 -0.0372 -0.1530
  189SLPC   H6R21823   1.532   5.387   7.241 -0.1802 -0.2428  1.1064
  189SLPC   H6S21824   1.354   5.385   7.225  0.3008 -0.5516  0.1511
  189SLPC   C2721825   1.418   5.517   7.372  0.4210  0.5060  0.0654
  189SLPC   H7R21826   1.419   5.438   7.450 -0.0160 -0.1004 -0.5310
  189SLPC   H7S21827   1.316   5.559   7.364 -0.4430 -1.4260  0.3573
  189SLPC   C2821828   1.519   5.623   7.425 -0.0516 -0.5279  0.2107
  189SLPC   H8R21829   1.514   5.714   7.363  0.6704 -0.9088 -0.4103
  189SLPC   H8S21830   1.617   5.572   7.417  0.7753  0.8008  1.3799
  189SLPC   C2921831   1.478   5.651   7.572  0.6437 -0.2540  0.0014
  189SLPC   H9R21832   1.432   5.566   7.623  0.1322  0.1882  0.2818
  189SLPC  C21021833   1.499   5.765   7.643  0.2966 -0.5448 -0.1932
  189SLPC  H10R21834   1.453   5.775   7.742 -0.3803 -2.4241 -0.2670
  189SLPC  C21121835   1.561   5.887   7.588  0.3135  0.1366  0.3513
  189SLPC  H11R21836   1.500   5.976   7.610  0.1411 -0.3682  2.0466
  189SLPC  H11S21837   1.575   5.881   7.478 -1.3931 -0.9236  0.1649
  189SLPC  C21221838   1.689   5.912   7.667  0.9491 -0.1309  0.4193
  189SLPC  H12R21839   1.677   5.940   7.773 -1.1030  2.8480 -0.4522
  189SLPC  C21321840   1.805   5.926   7.609 -0.0237  0.8456  0.4093
  189SLPC  H13R21841   1.886   5.959   7.676  0.6499 -1.0266  0.5762
  189SLPC  C21421842   1.831   5.903   7.464  0.2062  0.3225  0.0914
  189SLPC  H14R21843   1.779   5.810   7.431  0.6131 -0.7287  2.2309
  189SLPC  H14S21844   1.941   5.885   7.467  0.0103 -0.8887  2.7165
  189SLPC  C21521845   1.813   6.023   7.377  0.3543 -0.0005  0.2226
  189SLPC  H15R21846   1.842   6.118   7.426  2.1722  0.6530 -1.9336
  189SLPC  H15S21847   1.710   6.043   7.342  1.1837  2.1902 -1.1905
  189SLPC  C21621848   1.899   6.008   7.245 -0.4005  0.1270  0.1664
  189SLPC  H16R21849   2.007   6.007   7.269 -0.0892 -0.6366 -1.2000
  189SLPC  H16S21850   1.882   6.103   7.190 -1.3286  0.2957  0.7171
  189SLPC  C21721851   1.870   5.883   7.159  0.5129 -0.2626 -0.0479
  189SLPC  H17R21852   1.888   5.784   7.205 -1.5197 -0.0646  1.3020
  189SLPC  H17S21853   1.939   5.885   7.071  0.0848  1.6502 -0.3793
  189SLPC  C21821854   1.729   5.870   7.096  0.7353 -0.1659  0.6284
  189SLPC  H18R21855   1.710   5.953   7.025 -2.0053 -1.1722  0.0889
  189SLPC  H18S21856   1.654   5.877   7.177 -1.0964  1.6445 -1.1141
  189SLPC  H18T21857   1.720   5.780   7.032  0.9661  1.8262 -2.4542
  189SLPC   C3321858   1.412   6.071   6.769 -0.0874  0.4598  0.3682
  189SLPC   H3X21859   1.309   6.110   6.784 -0.4676 -1.1218  2.1654
  189SLPC   H3Y21860   1.444   6.095   6.665  1.8425  0.5859  0.9610
  189SLPC   C3421861   1.498   6.172   6.850 -0.6482  0.3067  0.0634
  189SLPC   H4X21862   1.504   6.273   6.803 -2.6150 -0.1132 -1.1676
  189SLPC   H4Y21863   1.599   6.129   6.831  0.3302  2.0259  1.1157
  189SLPC   C3521864   1.450   6.188   6.994  0.7970 -0.4105 -0.4527
  189SLPC   H5X21865   1.425   6.091   7.042 -1.2731 -0.0263 -0.6255
  189SLPC   H5Y21866   1.352   6.241   6.997  0.5427 -0.8941 -0.0667
  189SLPC   C3621867   1.542   6.271   7.084  0.1789  0.4946 -0.5084
  189SLPC   H6X21868   1.542   6.379   7.055  0.4716  0.6985  0.2340
  189SLPC   H6Y21869   1.645   6.234   7.069  1.0117  2.1718  0.7002
  189SLPC   C3721870   1.508   6.270   7.240 -0.1411 -0.2916  0.4000
  189SLPC   H7X21871   1.503   6.165   7.275  0.1595  0.0063  1.3866
  189SLPC   H7Y21872   1.408   6.315   7.258  0.3050  1.9997 -2.0737
  189SLPC   C3821873   1.609   6.339   7.340 -0.5588 -0.2661 -0.8680
  189SLPC   H8X21874   1.619   6.449   7.322  0.0004 -0.0637  0.5167
  189SLPC   H8Y21875   1.709   6.297   7.315  0.7961  2.0310  0.2831
  189SLPC   C3921876   1.583   6.319   7.493 -0.4531 -0.5469  0.1598
  189SLPC   H9X21877   1.589   6.210   7.513  0.8770 -0.9552 -2.2035
  189SLPC   H9Y21878   1.481   6.361   7.512  0.7084  2.7747 -0.3035
  189SLPC  C31021879   1.689   6.398   7.574  0.0814 -0.2341 -0.3665
  189SLPC  H10X21880   1.667   6.504   7.549 -0.0390 -0.4891 -1.3640
  189SLPC  H10Y21881   1.795   6.379   7.547  0.2155  2.0243 -1.6676
  189SLPC  C31121882   1.678   6.373   7.724 -0.2480 -0.1162 -0.1874
  189SLPC  H11X21883   1.728   6.279   7.754 -0.0178  0.1899  0.4224
  189SLPC  H11Y21884   1.572   6.353   7.752 -0.2229 -1.1744 -0.8200
  189SLPC  C31221885   1.740   6.487   7.810  0.1658 -0.2926 -0.2920
  189SLPC  H12X21886   1.844   6.497   7.773  1.0639 -1.6558  1.6374
  189SLPC  H12Y21887   1.752   6.442   7.911 -1.6065  1.7611  0.9004
  189SLPC  C31321888   1.652   6.617   7.812  0.5261  0.0254 -0.5557
  189SLPC  H13X21889   1.554   6.566   7.829  0.4449 -0.1376 -1.4170
  189SLPC  H13Y21890   1.666   6.658   7.709  2.8462 -1.4287 -0.9036
  189SLPC  C31421891   1.685   6.719   7.921 -0.3771  0.9355 -0.7486
  189SLPC  H14X21892   1.616   6.803   7.897  0.8858  2.1428 -0.3019
  189SLPC  H14Y21893   1.789   6.755   7.907 -0.4935  1.8491  0.5582
  189SLPC  C31521894   1.649   6.675   8.059 -0.5959 -0.0017  0.3692
  189SLPC  H15X21895   1.698   6.581   8.092 -0.0238  0.1342 -0.0895
  189SLPC  H15Y21896   1.538   6.663   8.059 -1.0128  3.1429  0.2927
  189SLPC  C31621897   1.687   6.775   8.164 -0.2899 -0.5268 -0.6456
  189SLPC  H16X21898   1.660   6.875   8.125  0.6710 -1.4346 -3.9718
  189SLPC  H16Y21899   1.797   6.774   8.178 -0.5585 -0.0830  2.0334
  189SLPC  C31721900   1.629   6.739   8.300  0.0696 -0.3449 -0.5334
  189SLPC  H17X21901   1.668   6.643   8.341 -0.9603 -1.1956 -1.4669
  189SLPC  H17Y21902   1.523   6.706   8.297 -0.1509 -0.0614  1.9679
  189SLPC  C31821903   1.630   6.856   8.404  0.1032 -0.2577 -0.0216
  189SLPC  H18X21904   1.584   6.949   8.364 -1.5225 -0.4699  1.2125
  189SLPC  H18Y21905   1.728   6.878   8.451  1.0194 -2.2477 -0.9000
  189SLPC  H18Z21906   1.569   6.824   8.492  0.7547 -2.9091 -0.4580
  190SLPC     N21907   3.635   5.807   6.052  0.1989  0.5108 -0.0295
  190SLPC   C1321908   3.604   5.955   6.072 -0.0320  0.0700  0.5042
  190SLPC  H13A21909   3.635   5.990   6.170 -0.3754 -0.3194  0.7601
  190SLPC  H13B21910   3.648   6.027   6.005 -0.1351  0.1714  0.5434
  190SLPC  H13C21911   3.497   5.969   6.069 -0.1905 -1.1634 -0.7479
  190SLPC   C1421912   3.780   5.793   6.049 -0.1502 -0.0533  0.6219
  190SLPC  H14A21913   3.828   5.870   5.990  1.0095 -0.0698  1.5015
  190SLPC  H14B21914   3.814   5.815   6.149 -0.1976  2.0263  0.2179
  190SLPC  H14C21915   3.814   5.696   6.017 -0.0526 -0.1405  0.9908
  190SLPC   C1521916   3.583   5.771   5.917 -0.0721 -0.3385  0.0851
  190SLPC  H15A21917   3.479   5.790   5.896 -0.3052 -1.0193  0.6070
  190SLPC  H15B21918   3.631   5.831   5.840 -2.9449  2.0541 -0.0121
  190SLPC  H15C21919   3.599   5.668   5.890 -2.2649 -0.2999 -1.6781
  190SLPC   C1221920   3.571   5.716   6.148  0.2608 -0.0669  0.0683
  190SLPC  H12A21921   3.558   5.614   6.117 -2.1490  0.5231 -1.1188
  190SLPC  H12B21922   3.471   5.755   6.162  0.8923  1.5948  0.2671
  190SLPC   C1121923   3.622   5.721   6.296  0.6427 -0.3861  0.0864
  190SLPC  H11A21924   3.732   5.705   6.307  1.2581  2.4655 -1.0852
  190SLPC  H11B21925   3.574   5.643   6.359  1.9607  0.3731  2.1399
  190SLPC     P21926   3.452   5.893   6.394  0.1892 -0.0432 -0.2174
  190SLPC   O1321927   3.469   5.988   6.506 -0.7823 -0.2801  0.4380
  190SLPC   O1421928   3.378   5.942   6.272  0.8074  0.1299  0.0636
  190SLPC   O1221929   3.594   5.847   6.342  0.2589 -0.5675 -0.4068
  190SLPC   O1121930   3.380   5.759   6.444 -0.2568 -0.4019 -0.6136
  190SLPC    C121931   3.259   5.767   6.519  0.2040  0.3734  0.0242
  190SLPC    HA21932   3.195   5.857   6.508 -1.1936 -0.7760 -2.0035
  190SLPC    HB21933   3.198   5.677   6.494  0.1140 -0.1614  1.9556
  190SLPC    C221934   3.297   5.754   6.670  0.4818  0.7429  0.2118
  190SLPC    HS21935   3.387   5.810   6.704  2.3590 -2.1989  0.4251
  190SLPC   O2121936   3.326   5.611   6.696 -0.1877  0.6002 -0.3926
  190SLPC   C2121937   3.455   5.580   6.714  0.4101  0.0296  0.2855
  190SLPC   O2221938   3.553   5.652   6.705  0.2613  0.0250 -0.3863
  190SLPC   C2221939   3.465   5.430   6.733  0.4289  0.5336 -0.6456
  190SLPC   H2R21940   3.369   5.384   6.701  0.8916 -0.4755 -0.6120
  190SLPC   H2S21941   3.537   5.382   6.664 -0.8486 -2.5626  0.0032
  190SLPC    C321942   3.170   5.793   6.748 -0.2855  0.5464  0.0629
  190SLPC    HX21943   3.081   5.747   6.699  0.9790 -0.6405 -1.1789
  190SLPC    HY21944   3.156   5.902   6.733 -0.7802  0.3284 -1.2533
  190SLPC   O3121945   3.168   5.757   6.892 -0.2356 -0.6367  0.2355
  190SLPC   C3121946   3.217   5.843   6.971  0.1473 -0.1188  0.1034
  190SLPC   O3221947   3.263   5.947   6.937  0.2601 -0.1599  0.0870
  190SLPC   C3221948   3.200   5.807   7.115  0.4849 -0.2649 -0.5070
  190SLPC   H2X21949   3.090   5.814   7.134  0.3990  0.4191 -1.1924
  190SLPC   H2Y21950   3.248   5.885   7.177 -1.5778  0.5188  0.1853
  190SLPC   C2321951   3.500   5.377   6.874 -0.4030  0.3646  0.2956
  190SLPC   H3R21952   3.443   5.422   6.959 -1.1217  0.3854 -0.1932
  190SLPC   H3S21953   3.604   5.406   6.899 -0.4461  1.0222 -0.2703
  190SLPC   C2421954   3.485   5.221   6.865 -0.1571  0.4820  0.1102
  190SLPC   H4R21955   3.548   5.189   6.780 -0.6897 -1.5450  0.4429
  190SLPC   H4S21956   3.382   5.188   6.839  0.0309 -1.1068  1.2353
  190SLPC   C2521957   3.532   5.148   6.996  0.5483  0.4191  0.1196
  190SLPC   H5R21958   3.639   5.175   7.006  0.7600  1.2723 -3.1634
  190SLPC   H5S21959   3.512   5.042   6.969  0.8819  0.8501 -1.9431
  190SLPC   C2621960   3.455   5.178   7.125  0.2499 -0.1700  0.8555
  190SLPC   H6R21961   3.345   5.171   7.112  0.1402  1.3056  0.7851
  190SLPC   H6S21962   3.471   5.281   7.165 -2.3032  1.2352 -1.3789
  190SLPC   C2721963   3.490   5.095   7.241 -0.8332  0.6900 -0.1611
  190SLPC   H7R21964   3.599   5.077   7.253 -1.0636 -0.1661  0.8291
  190SLPC   H7S21965   3.444   4.997   7.217 -1.8677  0.2676  3.0130
  190SLPC   C2821966   3.434   5.120   7.383 -0.0257 -0.3295 -0.7747
  190SLPC   H8R21967   3.458   5.036   7.451 -3.3476 -0.5668  0.3145
  190SLPC   H8S21968   3.323   5.126   7.376 -0.2200 -0.0334  1.7813
  190SLPC   C2921969   3.490   5.250   7.443 -0.3954 -0.4377 -0.0098
  190SLPC   H9R21970   3.492   5.332   7.369  0.0439 -0.1307  0.3352
  190SLPC  C21021971   3.525   5.270   7.573 -0.1338 -0.5351  0.0170
  190SLPC  H10R21972   3.563   5.371   7.596  0.2943 -0.6036 -0.3659
  190SLPC  C21121973   3.525   5.169   7.691  0.6470 -0.3126  0.7404
  190SLPC  H11R21974   3.489   5.068   7.663  2.4478 -1.4792  2.4049
  190SLPC  H11S21975   3.450   5.206   7.765 -1.4708 -1.6556 -0.6385
  190SLPC  C21221976   3.656   5.165   7.769  0.1736 -0.3436 -0.0482
  190SLPC  H12R21977   3.747   5.182   7.711  0.5725 -0.1167  0.6302
  190SLPC  C21321978   3.666   5.150   7.902  0.2051 -0.5089 -0.5961
  190SLPC  H13R21979   3.766   5.161   7.947 -2.2763  0.7349  5.6306
  190SLPC  C21421980   3.543   5.130   7.988  0.0564 -0.0833  0.2797
  190SLPC  H14R21981   3.469   5.063   7.939  0.0274  1.1122 -1.4129
  190SLPC  H14S21982   3.488   5.227   7.992 -1.4470 -0.8294 -1.0952
  190SLPC  C21521983   3.593   5.080   8.126 -0.0026  0.3326  0.2852
  190SLPC  H15R21984   3.685   5.130   8.163 -0.9215  3.0939 -0.8819
  190SLPC  H15S21985   3.610   4.971   8.122 -0.4610  0.2977 -1.0469
  190SLPC  C21621986   3.483   5.110   8.227 -0.0168 -0.7946 -0.9161
  190SLPC  H16R21987   3.397   5.042   8.214 -1.4179 -0.2475  3.5960
  190SLPC  H16S21988   3.449   5.215   8.212  1.6463 -0.0196  0.3636
  190SLPC  C21721989   3.516   5.085   8.377 -0.2208  0.3934  0.0765
  190SLPC  H17R21990   3.429   5.099   8.444 -0.8081  1.7148 -0.9219
  190SLPC  H17S21991   3.595   5.158   8.407  0.4794 -0.0111 -0.7391
  190SLPC  C21821992   3.569   4.941   8.398 -0.5170 -0.4479  0.4994
  190SLPC  H18R21993   3.650   4.921   8.325 -1.0952 -1.0460  0.0053
  190SLPC  H18S21994   3.492   4.863   8.378 -0.4381 -0.1238 -1.2325
  190SLPC  H18T21995   3.612   4.931   8.499 -1.8546 -1.2606  1.0112
  190SLPC   C3321996   3.239   5.668   7.164  0.4184 -0.1635  0.2072
  190SLPC   H3X21997   3.346   5.654   7.137  0.5472  1.4977 -0.2580
  190SLPC   H3Y21998   3.178   5.591   7.113  1.8894 -1.6453  0.5854
  190SLPC   C3421999   3.223   5.663   7.316 -0.1773  0.0906  0.0249
  190SLPC   H4X22000   3.122   5.689   7.353 -0.6684 -1.7873  0.1230
  190SLPC   H4Y22001   3.279   5.752   7.352 -0.1669  0.3258 -0.5578
  190SLPC   C3522002   3.256   5.525   7.383  1.3468 -0.4055  0.7563
  190SLPC   H5X22003   3.354   5.498   7.339  0.9001  2.0264 -2.0758
  190SLPC   H5Y22004   3.181   5.448   7.356 -0.5436  1.2202  1.0937
  190SLPC   C3622005   3.250   5.538   7.534  0.3376  0.4054 -0.7883
  190SLPC   H6X22006   3.235   5.439   7.582  0.0738  0.5880 -0.4942
  190SLPC   H6Y22007   3.155   5.591   7.557 -0.0184 -0.2915 -0.6273
  190SLPC   C3722008   3.370   5.610   7.593 -0.1627 -0.3647 -0.2265
  190SLPC   H7X22009   3.394   5.702   7.535  4.0117  1.0892  3.3036
  190SLPC   H7Y22010   3.458   5.543   7.599 -1.2851 -1.7745  1.0788
  190SLPC   C3822011   3.357   5.664   7.735 -0.1993 -0.7470  0.5982
  190SLPC   H8X22012   3.277   5.740   7.749 -0.9266 -1.0776 -1.5122
  190SLPC   H8Y22013   3.454   5.714   7.753 -0.1759  0.3822 -2.1832
  190SLPC   C3922014   3.367   5.546   7.830  0.0456  0.2587 -0.0493
  190SLPC   H9X22015   3.430   5.463   7.793 -0.3292  0.4378 -1.1141
  190SLPC   H9Y22016   3.263   5.507   7.829  0.0818  0.1493  0.3701
  190SLPC  C31022017   3.412   5.584   7.969  0.0975  0.3342 -0.0401
  190SLPC  H10X22018   3.505   5.642   7.949  2.7002 -2.8772  1.7075
  190SLPC  H10Y22019   3.434   5.483   8.010 -3.8087 -0.2514  0.9613
  190SLPC  C31122020   3.296   5.655   8.046  0.2485 -0.1959 -0.0653
  190SLPC  H11X22021   3.198   5.611   8.020 -0.6855  1.5658  0.3255
  190SLPC  H11Y22022   3.290   5.760   8.009  0.8903  0.1782  0.8551
  190SLPC  C31222023   3.328   5.668   8.195  0.0985 -0.1337 -0.0912
  190SLPC  H12X22024   3.251   5.731   8.244 -0.5614 -1.0959  0.1499
  190SLPC  H12Y22025   3.429   5.708   8.215 -0.0539 -0.0430  0.5246
  190SLPC  C31322026   3.319   5.529   8.263  0.2202  0.4097  0.4518
  190SLPC  H13X22027   3.397   5.468   8.214  0.5063  0.5689  0.7066
  190SLPC  H13Y22028   3.222   5.489   8.227  0.6938 -0.2172 -0.1474
  190SLPC  C31422029   3.320   5.541   8.417  0.5234  0.5826 -0.4356
  190SLPC  H14X22030   3.243   5.611   8.455  0.8763  0.9222 -0.3413
  190SLPC  H14Y22031   3.419   5.576   8.453  0.6086  0.5972 -0.6786
  190SLPC  C31522032   3.290   5.403   8.490  0.5912 -0.0029 -0.2631
  190SLPC  H15X22033   3.359   5.327   8.449  1.3622 -0.0072  0.9804
  190SLPC  H15Y22034   3.190   5.366   8.461  1.6629 -1.9761 -1.7402
  190SLPC  C31622035   3.298   5.411   8.648  0.1224 -0.6901  0.4064
  190SLPC  H16X22036   3.406   5.409   8.675  0.1830 -0.3782  0.1920
  190SLPC  H16Y22037   3.260   5.319   8.698  1.0177 -0.7250  1.0502
  190SLPC  C31722038   3.235   5.540   8.710 -0.6847 -0.0057  0.7689
  190SLPC  H17X22039   3.283   5.632   8.671 -0.9347  1.0631  2.8746
  190SLPC  H17Y22040   3.263   5.539   8.817  2.9627  1.2574 -0.0200
  190SLPC  C31822041   3.084   5.536   8.695  0.2527  0.4008 -0.0622
  190SLPC  H18X22042   3.031   5.601   8.768 -0.4400 -2.0312  1.7184
  190SLPC  H18Y22043   3.032   5.438   8.704  0.0403  0.5172  0.0023
  190SLPC  H18Z22044   3.058   5.567   8.591  0.6250  0.3367 -0.1777
  191SLPC     N22045   2.360   0.480   5.436 -0.3853 -0.4197  0.0152
  191SLPC   C1322046   2.209   0.490   5.409  0.1368 -0.2909 -0.3904
  191SLPC  H13A22047   2.168   0.558   5.482 -2.1286 -1.2113 -0.7098
  191SLPC  H13B22048   2.191   0.496   5.302  1.7442  0.2316 -0.6551
  191SLPC  H13C22049   2.170   0.393   5.438  1.3365 -0.5373  0.4637
  191SLPC   C1422050   2.440   0.589   5.368 -0.2296  0.5292  0.5015
  191SLPC  H14A22051   2.408   0.689   5.394 -1.3779  0.1136  0.7554
  191SLPC  H14B22052   2.547   0.584   5.382 -0.2152  0.6472  0.4364
  191SLPC  H14C22053   2.415   0.586   5.263 -2.2407  0.6400  0.9363
  191SLPC   C1522054   2.406   0.339   5.395  0.2564  0.3152  0.2113
  191SLPC  H15A22055   2.393   0.316   5.291  0.1803 -2.1148  0.6943
  191SLPC  H15B22056   2.506   0.322   5.433 -0.5274  0.0356  2.3300
  191SLPC  H15C22057   2.337   0.271   5.443  0.2635  1.1535  1.4408
  191SLPC   C1222058   2.380   0.485   5.584  0.1792  0.0696  0.4015
  191SLPC  H12A22059   2.354   0.586   5.613 -0.5350  1.1465 -3.4374
  191SLPC  H12B22060   2.478   0.448   5.612  0.0140 -0.0390  0.8430
  191SLPC   C1122061   2.281   0.403   5.671 -0.6861  0.0952 -0.6115
  191SLPC  H11A22062   2.185   0.458   5.680 -1.2902 -0.9898 -0.1342
  191SLPC  H11B22063   2.323   0.410   5.774  0.2336 -0.6571 -0.9209
  191SLPC     P22064   2.120   0.206   5.680  0.9964 -0.1238  0.1692
  191SLPC   O1322065   2.020   0.284   5.606  0.0534  0.4064 -0.1539
  191SLPC   O1422066   2.123   0.058   5.666  0.4123 -0.6577  0.5962
  191SLPC   O1222067   2.259   0.268   5.637 -0.1764 -0.0031 -0.0493
  191SLPC   O1122068   2.122   0.251   5.832  0.3497  0.4458  0.3084
  191SLPC    C122069   2.182   0.168   5.921 -0.4799 -0.0949 -0.3948
  191SLPC    HA22070   2.137   0.066   5.915 -0.7457 -0.0983  1.1764
  191SLPC    HB22071   2.290   0.154   5.903 -0.3653 -0.6485  0.6400
  191SLPC    C222072   2.169   0.225   6.067  0.3471  0.3261  0.1609
  191SLPC    HS22073   2.240   0.175   6.135 -0.1859 -1.9627 -0.8910
  191SLPC   O2122074   2.043   0.212   6.130  0.4652 -0.1483  0.0226
  191SLPC   C2122075   1.999   0.090   6.156  0.2080 -0.2678 -0.0871
  191SLPC   O2222076   2.058  -0.016   6.138  0.3551 -0.4562  0.8253
  191SLPC   C2222077   1.863   0.105   6.230  0.2027  0.4505 -0.3227
  191SLPC   H2R22078   1.875   0.185   6.307  0.8839 -0.9397  1.0654
  191SLPC   H2S22079   1.787   0.148   6.162  0.3039  2.4456  0.7258
  191SLPC    C322080   2.216   0.376   6.053 -0.6895 -0.1321 -0.0899
  191SLPC    HX22081   2.128   0.435   6.020  0.5961  3.1217  1.7665
  191SLPC    HY22082   2.293   0.396   5.976 -0.1858 -0.1877  0.3903
  191SLPC   O3122083   2.243   0.439   6.176 -0.0509  0.7073 -0.1892
  191SLPC   C3122084   2.362   0.424   6.219 -0.5095 -0.0357  0.0026
  191SLPC   O3222085   2.449   0.354   6.161  0.6474  0.6718  0.0289
  191SLPC   C3222086   2.390   0.504   6.350 -0.2795  0.0572 -0.1744
  191SLPC   H2X22087   2.314   0.584   6.364  0.4026  1.0881 -2.0077
  191SLPC   H2Y22088   2.489   0.551   6.332 -1.3945  2.6529  0.1572
  191SLPC   C2322089   1.784  -0.023   6.279 -0.5350 -0.6688 -0.1950
  191SLPC   H3R22090   1.824  -0.073   6.370 -0.7697 -0.5458 -0.0247
  191SLPC   H3S22091   1.790  -0.102   6.201  1.7030 -1.6147  0.8502
  191SLPC   C2422092   1.635  -0.002   6.311 -0.0730 -0.8792  0.0171
  191SLPC   H4R22093   1.605  -0.099   6.357 -0.7499 -0.5687  0.2335
  191SLPC   H4S22094   1.566   0.014   6.225 -2.0801 -0.2247  1.6754
  191SLPC   C2522095   1.598   0.100   6.423 -0.2503 -0.1350  0.3736
  191SLPC   H5R22096   1.638   0.200   6.396 -0.0543 -0.4481 -0.5369
  191SLPC   H5S22097   1.639   0.070   6.522 -0.3473  0.3043  0.5455
  191SLPC   C2622098   1.447   0.102   6.435  0.7952  0.8146  0.4940
  191SLPC   H6R22099   1.419  -0.005   6.424 -1.9976  1.4277  0.9565
  191SLPC   H6S22100   1.396   0.157   6.353 -0.4699 -1.8134 -0.6256
  191SLPC   C2722101   1.391   0.149   6.572  0.0343  0.3855  0.3332
  191SLPC   H7R22102   1.425   0.253   6.590 -0.0662  0.0499  2.9433
  191SLPC   H7S22103   1.437   0.077   6.643  0.1116 -0.6151 -0.6991
  191SLPC   C2822104   1.240   0.142   6.569  0.3116  0.1648 -0.3245
  191SLPC   H8R22105   1.198   0.190   6.478  1.0278 -0.7054 -1.1360
  191SLPC   H8S22106   1.196   0.211   6.644 -0.8343 -0.2365 -0.6043
  191SLPC   C2922107   1.179   0.012   6.600 -0.4007 -0.0696 -0.2698
  191SLPC   H9R22108   1.204  -0.052   6.515  0.2502  1.5198 -1.3100
  191SLPC  C21022109   1.132  -0.034   6.717 -0.1562 -0.6339 -0.4617
  191SLPC  H10R22110   1.106  -0.141   6.714  0.4133 -0.7733 -0.6629
  191SLPC  C21122111   1.130   0.052   6.840 -0.3914  0.4987  0.0634
  191SLPC  H11R22112   1.039   0.116   6.834  1.7180  3.6127 -3.5394
  191SLPC  H11S22113   1.217   0.121   6.841  1.1335 -1.3446  1.1707
  191SLPC  C21222114   1.125  -0.032   6.970  1.3239 -0.3009  0.7285
  191SLPC  H12R22115   1.037  -0.097   6.979  0.4251  1.0391  2.1324
  191SLPC  C21322116   1.214  -0.034   7.068 -0.8425  0.5563  0.3372
  191SLPC  H13R22117   1.184  -0.094   7.155  0.0181 -1.3681 -0.6486
  191SLPC  C21422118   1.346   0.043   7.066 -0.2461 -0.2215  0.0483
  191SLPC  H14R22119   1.336   0.151   7.043  0.5951  0.6701  3.2956
  191SLPC  H14S22120   1.400   0.002   6.978 -2.5075 -2.8757 -0.2329
  191SLPC  C21522121   1.430   0.035   7.194  0.2454  0.3583 -0.1249
  191SLPC  H15R22122   1.437  -0.068   7.236 -2.4045 -0.5934 -1.8265
  191SLPC  H15S22123   1.376   0.102   7.265 -1.2932 -1.3644  0.4176
  191SLPC  C21622124   1.569   0.082   7.168 -0.0466 -0.1906  0.2507
  191SLPC  H16R22125   1.565   0.169   7.099 -1.1886 -1.9790 -2.0682
  191SLPC  H16S22126   1.621   0.003   7.110  0.2558  0.7182 -0.7441
  191SLPC  C21722127   1.655   0.108   7.302  0.5280 -0.6132  0.1963
  191SLPC  H17R22128   1.594   0.179   7.363  1.2436 -0.2405  0.4899
  191SLPC  H17S22129   1.749   0.164   7.282  0.5297 -0.7604 -0.2064
  191SLPC  C21822130   1.684  -0.010   7.391 -0.5708  0.4771 -0.2663
  191SLPC  H18R22131   1.758  -0.076   7.342  0.2983  1.2648 -0.0523
  191SLPC  H18S22132   1.589  -0.065   7.407 -0.8177  0.5938 -1.2620
  191SLPC  H18T22133   1.724   0.022   7.490 -0.4327  0.7924 -0.4198
  191SLPC   C3322134   2.383   0.411   6.478  0.6732  0.3255  0.4632
  191SLPC   H3X22135   2.459   0.330   6.484 -0.1224 -0.3483  2.1066
  191SLPC   H3Y22136   2.284   0.360   6.467  0.6900  0.5259 -0.8853
  191SLPC   C3422137   2.374   0.495   6.608 -0.5333  0.2806  0.4371
  191SLPC   H4X22138   2.369   0.435   6.701  0.0072 -0.1268  0.2155
  191SLPC   H4Y22139   2.289   0.565   6.616 -1.2117 -0.5457  0.5725
  191SLPC   C3522140   2.501   0.585   6.628  0.4477  0.3770  0.3069
  191SLPC   H5X22141   2.506   0.654   6.542  0.1728 -0.9355 -0.8101
  191SLPC   H5Y22142   2.591   0.522   6.643 -0.3820 -0.5696  1.6117
  191SLPC   C3622143   2.493   0.682   6.744 -0.5051  0.4089  0.0460
  191SLPC   H6X22144   2.441   0.774   6.710 -3.6045 -0.8179  1.0734
  191SLPC   H6Y22145   2.597   0.698   6.780 -0.4522 -1.5958  0.8921
  191SLPC   C3722146   2.423   0.628   6.877 -0.1083 -0.3314 -0.0975
  191SLPC   H7X22147   2.472   0.534   6.912  0.4442 -0.2410 -0.5959
  191SLPC   H7Y22148   2.318   0.594   6.862  0.7044 -2.3765 -1.7262
  191SLPC   C3822149   2.430   0.735   6.990 -0.0940 -0.4236  0.4078
  191SLPC   H8X22150   2.390   0.830   6.950 -2.7388 -2.1308 -1.3576
  191SLPC   H8Y22151   2.536   0.767   6.998 -1.1236  3.6599  0.0228
  191SLPC   C3922152   2.360   0.696   7.116  0.2290  0.1923 -0.1640
  191SLPC   H9X22153   2.424   0.618   7.164  0.6116 -1.0114 -2.4426
  191SLPC   H9Y22154   2.256   0.663   7.094 -0.3316  0.8126  1.4145
  191SLPC  C31022155   2.353   0.799   7.232 -0.1477  0.5585 -0.3975
  191SLPC  H10X22156   2.290   0.880   7.188  3.1345  3.2455 -0.6365
  191SLPC  H10Y22157   2.451   0.843   7.261  1.4536 -2.5638 -0.6270
  191SLPC  C31122158   2.280   0.747   7.361  0.3503 -0.2367 -0.4013
  191SLPC  H11X22159   2.301   0.639   7.377  0.3466 -0.0679  0.8212
  191SLPC  H11Y22160   2.173   0.763   7.335  0.4974  0.2153 -0.7381
  191SLPC  C31222161   2.301   0.825   7.491  1.0530  0.2955  0.4302
  191SLPC  H12X22162   2.217   0.802   7.561 -0.1331  0.8999 -0.7608
  191SLPC  H12Y22163   2.315   0.933   7.471 -2.8062  0.6357 -1.2080
  191SLPC  C31322164   2.433   0.787   7.556 -0.3386 -0.0562 -0.8089
  191SLPC  H13X22165   2.516   0.796   7.482  2.8596  2.2876  2.7088
  191SLPC  H13Y22166   2.435   0.682   7.592  1.3883  0.3709  0.4715
  191SLPC  C31422167   2.453   0.873   7.678  0.5229  0.5937 -0.1416
  191SLPC  H14X22168   2.353   0.920   7.694  0.0581  0.2832 -1.9342
  191SLPC  H14Y22169   2.532   0.943   7.644  0.4984 -0.0487 -1.6203
  191SLPC  C31522170   2.497   0.790   7.806  0.1940  0.3936  0.0926
  191SLPC  H15X22171   2.591   0.739   7.779 -1.2435 -1.4859 -1.7222
  191SLPC  H15Y22172   2.433   0.699   7.819  2.4346 -1.5430 -1.6456
  191SLPC  C31622173   2.527   0.880   7.920 -0.0321  0.5352 -0.2120
  191SLPC  H16X22174   2.574   0.969   7.873 -2.0638  2.4343  1.1806
  191SLPC  H16Y22175   2.595   0.837   7.997 -0.7150  1.8842  1.1883
  191SLPC  C31722176   2.402   0.930   8.000 -0.4992  0.5057  0.4374
  191SLPC  H17X22177   2.361   0.851   8.066 -0.3940 -0.9080 -1.1307
  191SLPC  H17Y22178   2.325   0.961   7.927  1.1797  1.6348 -0.9565
  191SLPC  C31822179   2.430   1.041   8.094 -0.2822 -0.2655 -0.9091
  191SLPC  H18X22180   2.474   1.130   8.045  2.4562 -1.5390 -0.9078
  191SLPC  H18Y22181   2.512   1.009   8.161  1.1618 -0.3650 -2.6724
  191SLPC  H18Z22182   2.339   1.069   8.151  1.1732  1.4772  0.6913
  192SLPC     N22183   3.327   0.060   6.434  0.8274 -0.3096 -0.3374
  192SLPC   C1322184   3.254   0.165   6.353 -0.1274  0.3596 -0.2157
  192SLPC  H13A22185   3.176   0.131   6.287 -1.1735 -3.0320  2.4353
  192SLPC  H13B22186   3.200   0.228   6.422 -1.3811 -1.4912  0.5796
  192SLPC  H13C22187   3.309   0.230   6.287 -2.0837 -0.7472 -3.1194
  192SLPC   C1422188   3.410   0.131   6.536  0.4407  0.2571 -0.0075
  192SLPC  H14A22189   3.471   0.211   6.497  2.6973  1.4302  5.1282
  192SLPC  H14B22190   3.344   0.188   6.600  0.3139  1.5475 -1.2415
  192SLPC  H14C22191   3.460   0.057   6.596 -1.2047 -0.6995  0.2326
  192SLPC   C1522192   3.418  -0.026   6.348 -0.3307 -0.3572 -0.0537
  192SLPC  H15A22193   3.478   0.041   6.288 -1.6329  2.4518  1.5755
  192SLPC  H15B22194   3.485  -0.088   6.406  1.6133  2.8585  1.4550
  192SLPC  H15C22195   3.368  -0.099   6.287  1.2349 -1.0007 -0.6255
  192SLPC   C1222196   3.227  -0.033   6.513 -0.7445 -0.6485  0.1798
  192SLPC  H12A22197   3.166   0.030   6.576 -0.8441 -1.5271  0.9742
  192SLPC  H12B22198   3.287  -0.085   6.585 -0.4331 -1.4304 -0.6287
  192SLPC   C1122199   3.145  -0.137   6.430 -0.5357 -0.5530 -0.2766
  192SLPC  H11A22200   3.093  -0.183   6.517  0.2546 -2.2341 -0.6602
  192SLPC  H11B22201   3.223  -0.203   6.388  1.8520  1.1927  1.1283
  192SLPC     P22202   2.929  -0.003   6.360  0.3239  0.4102  0.1225
  192SLPC   O1322203   2.941   0.134   6.298  0.3237  0.4295 -0.1430
  192SLPC   O1422204   2.811  -0.083   6.306 -0.5540 -0.0948  0.0552
  192SLPC   O1222205   3.062  -0.077   6.333 -0.4972 -0.6186 -0.0953
  192SLPC   O1122206   2.930   0.007   6.517  0.5007 -0.1723 -0.0320
  192SLPC    C122207   2.840  -0.089   6.582  0.1558  0.1424  0.4442
  192SLPC    HA22208   2.847  -0.190   6.537 -0.3557  0.1900  0.2490
  192SLPC    HB22209   2.861  -0.106   6.689  0.5009  1.4907  0.6154
  192SLPC    C222210   2.693  -0.036   6.592  0.3090  0.2216  0.1651
  192SLPC    HS22211   2.667   0.010   6.494  2.0440 -1.5960 -1.2234
  192SLPC   O2122212   2.675   0.051   6.703 -0.5856 -0.1027 -0.2982
  192SLPC   C2122213   2.699   0.177   6.678 -0.0569  0.3129  0.6938
  192SLPC   O2222214   2.757   0.220   6.577  0.0284  0.0398 -0.5815
  192SLPC   C2222215   2.635   0.261   6.795 -0.8978 -0.0454 -0.1800
  192SLPC   H2R22216   2.586   0.345   6.743  1.2942  0.6471 -1.2335
  192SLPC   H2S22217   2.557   0.203   6.849 -0.6662  1.0367  1.3923
  192SLPC    C322218   2.595  -0.158   6.600 -0.0910  0.1624  0.0232
  192SLPC    HX22219   2.621  -0.201   6.699 -1.0923 -0.5926 -0.0159
  192SLPC    HY22220   2.619  -0.227   6.516  1.1443  1.6982 -0.9392
  192SLPC   O3122221   2.458  -0.127   6.610 -0.0461  0.5173 -0.8734
  192SLPC   C3122222   2.397  -0.074   6.510  0.5716  0.2369  0.4380
  192SLPC   O3222223   2.446  -0.030   6.403  0.1221  0.0435 -0.4868
  192SLPC   C3222224   2.248  -0.089   6.543  0.5352 -0.5857  0.7757
  192SLPC   H2X22225   2.229  -0.174   6.612 -0.9974 -1.0738 -0.1904
  192SLPC   H2Y22226   2.207  -0.111   6.442  0.7643 -2.5335  1.0729
  192SLPC   C2322227   2.743   0.307   6.896  0.2605 -0.2795  0.2105
  192SLPC   H3R22228   2.702   0.404   6.931  0.6527 -0.2939  0.7317
  192SLPC   H3S22229   2.833   0.346   6.843  1.0424 -1.3190  0.7500
  192SLPC   C2422230   2.764   0.219   7.021 -0.6092 -0.5501  0.4714
  192SLPC   H4R22231   2.831   0.284   7.081  1.3198 -0.2865 -1.8258
  192SLPC   H4S22232   2.834   0.137   6.992  0.3066  0.5599 -0.5806
  192SLPC   C2522233   2.645   0.189   7.096  0.1349 -0.7266  0.0535
  192SLPC   H5R22234   2.578   0.138   7.023 -3.2235 -0.2952  2.5859
  192SLPC   H5S22235   2.590   0.278   7.134 -0.3411 -0.2055 -1.7825
  192SLPC   C2622236   2.663   0.085   7.203 -0.6483 -0.2473  0.0987
  192SLPC   H6R22237   2.724   0.004   7.158 -1.0501  0.2369 -1.3778
  192SLPC   H6S22238   2.569   0.051   7.252 -0.0609 -1.7419  0.2322
  192SLPC   C2722239   2.740   0.148   7.318  0.3291 -0.2780 -0.2796
  192SLPC   H7R22240   2.669   0.223   7.357 -0.9103 -0.6331 -1.7594
  192SLPC   H7S22241   2.838   0.189   7.283 -0.2940 -0.2986 -2.2035
  192SLPC   C2822242   2.765   0.040   7.423 -0.3849  0.2619 -0.7516
  192SLPC   H8R22243   2.831  -0.037   7.380 -0.7184 -0.8321  0.6211
  192SLPC   H8S22244   2.669  -0.009   7.451  0.2254  0.8702  3.0448
  192SLPC   C2922245   2.835   0.100   7.542  0.0927 -0.2374  0.0698
  192SLPC   H9R22246   2.938   0.129   7.516 -0.5053  1.2445 -0.7930
  192SLPC  C21022247   2.780   0.120   7.666  0.7242 -0.2636  0.4605
  192SLPC  H10R22248   2.837   0.189   7.730  2.7766  1.9419 -3.4281
  192SLPC  C21122249   2.641   0.077   7.713 -1.2155 -0.0416 -0.4124
  192SLPC  H11R22250   2.582   0.039   7.626 -1.0903  0.7411 -0.8512
  192SLPC  H11S22251   2.586   0.164   7.755 -1.4283 -0.6332  0.5734
  192SLPC  C21222252   2.663  -0.024   7.824  0.5895 -0.6348 -0.0344
  192SLPC  H12R22253   2.695  -0.129   7.814 -0.0684 -1.1222  2.4296
  192SLPC  C21322254   2.631   0.008   7.958  0.4372  0.2289  0.1328
  192SLPC  H13R22255   2.654  -0.072   8.029 -0.5418 -0.3657 -0.2050
  192SLPC  C21422256   2.581   0.140   8.011  1.0843 -0.6775  0.3132
  192SLPC  H14R22257   2.498   0.173   7.946  1.8147 -1.2951 -0.9621
  192SLPC  H14S22258   2.659   0.213   7.981 -0.0094 -0.3758 -1.9867
  192SLPC  C21522259   2.547   0.135   8.164  0.1994  0.1916  0.9953
  192SLPC  H15R22260   2.565   0.042   8.223  2.2648  0.0047  0.1232
  192SLPC  H15S22261   2.438   0.158   8.172  0.6497  3.1833 -0.2442
  192SLPC  C21622262   2.613   0.248   8.234 -0.7067 -0.1769 -0.8228
  192SLPC  H16R22263   2.590   0.344   8.183 -2.2284 -1.1400 -2.0432
  192SLPC  H16S22264   2.722   0.232   8.223 -0.5690 -0.1434  0.3521
  192SLPC  C21722265   2.574   0.269   8.384 -0.0352  0.4256 -0.1405
  192SLPC  H17R22266   2.567   0.171   8.437  0.8645  0.8525  0.7916
  192SLPC  H17S22267   2.655   0.329   8.429 -0.8340  0.8158  0.8125
  192SLPC  C21822268   2.460   0.362   8.410  0.3745 -0.8536  0.7011
  192SLPC  H18R22269   2.363   0.342   8.361 -0.0648 -0.8697  1.5557
  192SLPC  H18S22270   2.491   0.455   8.358  2.9289 -2.3623 -0.7366
  192SLPC  H18T22271   2.441   0.383   8.517 -0.9527  1.6757  0.0425
  192SLPC   C3322272   2.203   0.042   6.604 -0.1813 -0.3623 -0.4477
  192SLPC   H3X22273   2.093   0.043   6.617  0.0213 -1.0755  1.8351
  192SLPC   H3Y22274   2.218   0.130   6.538  0.9456 -2.6549 -3.4989
  192SLPC   C3422275   2.257   0.062   6.747  0.4008 -0.2970  0.1133
  192SLPC   H4X22276   2.364   0.092   6.743  0.8031 -1.3542  1.7234
  192SLPC   H4Y22277   2.269  -0.035   6.801 -0.1617  0.5375  1.7995
  192SLPC   C3522278   2.184   0.163   6.835 -0.9462 -0.6086  0.5481
  192SLPC   H5X22279   2.076   0.138   6.837 -0.8358 -1.2343 -0.5182
  192SLPC   H5Y22280   2.190   0.264   6.789 -0.1859  0.6071  3.1459
  192SLPC   C3622281   2.252   0.181   6.972  0.1498 -0.4109  0.0941
  192SLPC   H6X22282   2.354   0.224   6.965  1.3349 -3.1471 -0.3493
  192SLPC   H6Y22283   2.263   0.080   7.016 -2.3144  0.0054  1.9309
  192SLPC   C3722284   2.174   0.267   7.075 -0.3108  0.1021  0.4507
  192SLPC   H7X22285   2.097   0.205   7.127 -0.0596 -0.1572  0.5138
  192SLPC   H7Y22286   2.131   0.359   7.030 -0.6991 -0.6955 -0.8354
  192SLPC   C3822287   2.262   0.340   7.182  0.1599  0.3894 -0.5562
  192SLPC   H8X22288   2.193   0.414   7.228  1.2362  0.9112  0.2526
  192SLPC   H8Y22289   2.345   0.388   7.126  1.7816 -3.1955 -1.5667
  192SLPC   C3922290   2.322   0.247   7.283  0.0917 -0.2702 -0.1332
  192SLPC   H9X22291   2.412   0.201   7.236  0.7456 -1.1680  1.9017
  192SLPC   H9Y22292   2.243   0.171   7.304 -0.7740 -0.0207 -2.2305
  192SLPC  C31022293   2.370   0.304   7.417  0.3104  0.1128  0.9059
  192SLPC  H10X22294   2.435   0.393   7.406  1.6326 -0.9935 -0.6189
  192SLPC  H10Y22295   2.438   0.235   7.472  1.6171  1.9159  1.6585
  192SLPC  C31122296   2.261   0.343   7.513  0.0683  0.4304  0.6666
  192SLPC  H11X22297   2.185   0.263   7.523 -0.7677  0.8105 -1.9435
  192SLPC  H11Y22298   2.214   0.427   7.458 -0.5588 -0.5984 -0.4007
  192SLPC  C31222299   2.315   0.380   7.648 -0.2792 -0.4326 -0.2761
  192SLPC  H12X22300   2.362   0.481   7.647  0.1920 -0.6463  0.0213
  192SLPC  H12Y22301   2.391   0.305   7.680 -1.0090 -1.1808 -0.2728
  192SLPC  C31322302   2.197   0.381   7.756  0.3218  0.6958 -0.0312
  192SLPC  H13X22303   2.146   0.282   7.757 -1.2533  1.4770 -0.7255
  192SLPC  H13Y22304   2.121   0.452   7.718 -0.4042  0.1292  0.3373
  192SLPC  C31422305   2.241   0.415   7.898 -0.5798 -0.4315 -0.7694
  192SLPC  H14X22306   2.278   0.519   7.907 -1.2727 -0.3600  2.9024
  192SLPC  H14Y22307   2.314   0.340   7.937 -1.3973  0.3987  2.6198
  192SLPC  C31522308   2.118   0.413   7.998  0.3526 -0.7064 -0.3537
  192SLPC  H15X22309   2.055   0.322   7.989 -0.7458 -0.2965  2.3427
  192SLPC  H15Y22310   2.048   0.495   7.970 -2.7781 -3.3674 -0.8512
  192SLPC  C31622311   2.160   0.438   8.146 -0.5621 -0.5274  1.2069
  192SLPC  H16X22312   2.196   0.543   8.147 -0.7711 -0.4076 -0.4359
  192SLPC  H16Y22313   2.255   0.389   8.175  0.8164  0.7409 -0.9140
  192SLPC  C31722314   2.045   0.442   8.253  0.4622  0.0310  0.5247
  192SLPC  H17X22315   1.974   0.523   8.224 -0.2948  0.9366  4.3196
  192SLPC  H17Y22316   2.082   0.472   8.353  2.2912 -1.9205  0.4885
  192SLPC  C31822317   1.979   0.306   8.262  0.3308  0.4251 -0.7631
  192SLPC  H18X22318   2.059   0.231   8.277 -0.8721 -1.0053 -1.2340
  192SLPC  H18Y22319   1.938   0.271   8.164  0.7535 -3.1546  0.2069
  192SLPC  H18Z22320   1.909   0.302   8.348  2.7263  1.6482  1.3749
  193SOD    SOD22321   1.957   5.911  13.295  0.1199  0.3680 -0.0767
  194SOD    SOD22322   3.223   5.240  16.231 -0.2074  0.0413  0.0947
  195SOD    SOD22323   6.568   6.267  11.237 -0.0714 -0.2926 -0.2976
  196SOD    SOD22324   0.558   0.235   5.811 -0.3232 -0.4202 -0.3903
  197SOD    SOD22325   1.462   2.650  16.462 -0.0530 -0.0581  0.4281
  198SOD    SOD22326   5.165   6.570  11.211  0.0652 -0.2043  0.2021
  199SOD    SOD22327   2.382   6.551   4.492  0.6182  0.0422  0.2547
  200SOD    SOD22328   3.455   4.220   3.080 -0.5586  0.1408 -0.4013
  201SOD    SOD22329   2.631   3.966   4.495 -0.4015 -0.0877 -0.4420
  202SOD    SOD22330   3.644   5.300   2.211  0.4497 -0.6086  0.6669
  203SOD    SOD22331   2.451   3.891  12.833  0.6043 -0.4947 -0.0408
  204SOD    SOD22332   0.833   3.360   0.418  0.4594  0.2781 -0.2564
  205SOD    SOD22333   4.582   3.602  12.791  0.1431  0.3276  0.3469
  206SOD    SOD22334   1.182   6.026  12.302  0.0031  0.1656 -0.0961
  207SOD    SOD22335   4.913   1.539  12.286  0.3490  0.2960 -0.0528
  208SOD    SOD22336   3.042   5.535   6.195 -0.0496  0.2871  0.2064
  209SOD    SOD22337   2.647   0.254   6.088  0.0794  0.9347  0.4312
  210SOD    SOD22338   6.004   0.027   0.520 -0.0824  0.2520  0.3954
  211SOD    SOD22339   2.557   6.553  10.920 -0.3692 -0.2069  0.4025
  212SOD    SOD22340   4.569   4.116   4.728  0.4488  0.4697 -0.0513
  213SOD    SOD22341   5.759   0.158  16.921  0.0932  0.0769  0.1819
  214SOD    SOD22342   5.416   1.605   3.408  0.2785 -0.8660  0.2167
  215SOD    SOD22343   5.329   0.496   0.585 -0.2020  0.0205  0.4837
  216SOD    SOD22344   2.590   0.548   0.773  0.0025 -0.1119 -0.0079
  217SOD    SOD22345   0.816   1.801   6.159  0.5824 -0.0939 -0.4989
  218SOD    SOD22346   6.711   0.423  11.167  0.2800 -0.0500  0.2961
  219SOD    SOD22347   0.213   4.584   5.557 -0.7155 -0.2608 -0.5423
  220SOD    SOD22348   4.650   5.124  11.382 -0.2414 -0.1993  0.8621
  221SOD    SOD22349   0.046   3.581  11.452 -0.1256 -0.3108  0.1052
  222SOD    SOD22350   0.158   6.552   2.532  0.2419 -0.0881 -0.2248
  223SOD    SOD22351   3.374   1.282   4.015 -0.3553  0.2627 -0.0906
  224SOD    SOD22352   5.785   4.001   6.009  0.1050  0.6852  0.4540
  225SOD    SOD22353   4.505   5.191  14.319  0.5179  0.0508  0.1500
  226SOD    SOD22354   6.539   4.358   2.518  0.4707 -0.0614  0.0603
  227SOD    SOD22355   1.602   5.082  14.271 -0.4620  0.3943 -0.4353
  228SOD    SOD22356   0.582   3.949  14.608 -0.0332 -0.2558  0.4871
  229SOD    SOD22357   2.196   2.592  11.138 -0.0546 -0.5644  0.2788
  230SOD    SOD22358   6.491   5.378   1.889 -0.7990  0.1109  0.0573
  231SOD    SOD22359   0.253   1.367   1.095 -0.4167  0.4962 -0.1589
  232SOD    SOD22360   4.893   3.342   3.589 -0.2162 -0.2369  0.2120
  233SOD    SOD22361   1.967   4.202   0.439 -0.4824  0.0096 -0.2773
  234SOD    SOD22362   3.649   2.325   6.724  0.2350  0.1850  0.2199
  235SOD    SOD22363   0.829   4.945   3.810  0.0550  0.0522  0.3283
  236SOD    SOD22364   5.542   6.315   6.081 -0.1539  0.1022  0.0880
  237SOD    SOD22365   1.346   5.990   6.376  0.2971 -0.2037  0.7122
  238SOD    SOD22366   3.249   2.176   0.453  0.5738  0.1017  0.4583
  239SOD    SOD22367   2.047   5.376  11.345 -0.0361 -0.0081 -0.3791
  240SOD    SOD22368   5.222   2.716   6.143  0.3133  0.2601  0.3285
  241SOD    SOD22369   2.064   5.273   3.543  0.2725  0.4126 -0.1822
  242SOD    SOD22370   1.576   0.109   3.836  0.3671 -0.1120 -0.4200
  243SOD    SOD22371   0.835   3.230   5.245  0.5302  0.7415 -0.4660
  244SOD    SOD22372   4.620   6.344   3.389 -0.9408 -0.2198 -0.2898
  245SOD    SOD22373   3.303   4.859  16.720 -0.3745 -0.4654 -0.1485
  246SOD    SOD22374   3.736   0.912  14.535 -0.3642  0.2115 -0.1049
  247SOD    SOD22375   1.080   2.237  11.396  0.1880  0.0640  0.3304
  248SOD    SOD22376   3.436   1.542  11.979 -0.1083 -0.0541 -0.1100
  249SOD    SOD22377   5.152   1.878  15.694 -0.2637 -0.0430  0.0184
  250SOD    SOD22378   6.045   0.649  11.822 -0.1251 -0.8907 -0.1040
  251SOD    SOD22379   4.855   1.640   4.282 -0.1148 -0.2986 -0.5515
  252SOD    SOD22380   6.719   1.843  11.605 -0.1318 -0.0865 -0.3796
  253SOD    SOD22381   4.461   3.306   5.787 -0.2241 -0.1476  0.1257
  254SOD    SOD22382   6.083   2.486  14.500 -0.0634  0.2385  0.4469
  255SOD    SOD22383   4.057   6.327   6.261 -0.0170 -0.0568  0.1149
  256SOD    SOD22384   2.257   3.293   5.508  0.4037  0.6290 -0.1526
  257SOD    SOD22385   4.046   2.082  16.161  0.6283  0.1654  0.1034
  258SOD    SOD22386   2.543   3.624  14.452 -0.0556  0.2840  0.0368
  259SOD    SOD22387   4.012   4.963   4.924 -0.6061  0.0620  0.0915
  260SOD    SOD22388   3.025   0.792   1.500 -0.5013 -0.0767  0.0946
  261SOD    SOD22389   1.185   5.415  10.684 -0.0922  0.3266  0.3862
  262SOD    SOD22390   4.225   6.551  11.228 -0.5314 -0.2983  0.1537
  263SOD    SOD22391   0.160   4.243   0.112  0.4280 -0.4857 -0.4431
  264SOD    SOD22392   1.782   1.608  16.251 -0.2782  0.0754  0.0140
  265SOD    SOD22393   1.404   2.611   1.671 -0.2719 -0.1524  0.3466
  266CLA    CLA22394   3.332   4.632   3.612 -0.1348  0.0883  0.0807
  267CLA    CLA22395   2.004   3.634   5.164 -0.0778 -0.3130  0.1212
  268CLA    CLA22396   5.868   0.548  17.111 -0.2795 -0.3784 -0.1918
  269CLA    CLA22397   3.721   4.458   2.251 -0.0027 -0.6751 -0.1323
  270CLA    CLA22398   2.524   6.221   0.197 -0.4812  0.2135  0.2479
  271CLA    CLA22399   5.292   3.780   1.873  0.1228 -0.1887 -0.1235
  272CLA    CLA22400   6.373   3.539   1.030  0.1376 -0.2444  0.3479
  273CLA    CLA22401   3.774   6.556   3.477 -0.2733 -0.1988  0.2103
  274CLA    CLA22402   6.683   3.857  14.822 -0.1676 -0.4259 -0.0474
  275CLA    CLA22403   5.865   2.382   6.306  0.1545 -0.1350  0.0697
  276CLA    CLA22404   3.936   4.640   4.630  0.0605  0.1315  0.2747
  277CLA    CLA22405   6.312   6.702  13.650  0.0180 -0.0379  0.1525
  278CLA    CLA22406   1.881   2.099  16.640 -0.0571 -0.5101 -0.0740
  279CLA    CLA22407   1.282   2.347  16.119 -0.4454 -0.1203 -0.2542
  280CLA    CLA22408   6.112   4.755  13.183 -0.1265  0.0065  0.1454
  281CLA    CLA22409   0.407   2.333   3.620  0.2760 -0.5944 -0.2159
  282CLA    CLA22410   3.089   0.195   1.683 -0.2102 -0.0887 -0.0703
  283CLA    CLA22411   1.254   0.456   0.828 -0.1009  0.1846  0.0162
  284CLA    CLA22412   5.181   2.105  14.353 -0.4318  0.5092 -0.2608
  285CLA    CLA22413   1.320   4.465  17.188  0.4751 -0.3160  0.5554
  286CLA    CLA22414   1.790   3.634  12.064  0.3357  0.2441 -0.1830
  287CLA    CLA22415   3.810   1.305   3.870 -0.4211  0.1624 -0.1299
  288CLA    CLA22416   3.379   3.187   1.618  0.2093 -0.5253 -0.0911
  289CLA    CLA22417   4.681   4.877   1.730 -0.0714 -0.5518  0.3423
  290CLA    CLA22418   0.533   0.087   2.691  0.5134  0.0085  0.4761
  291CLA    CLA22419   1.690   4.621   0.948  0.0180  0.1601 -0.4253
  292CLA    CLA22420   5.860   2.972   4.708 -0.4526 -0.1519  0.2257
  293CLA    CLA22421   2.508   5.643  12.983  0.1096 -0.3564  0.1097
  294CLA    CLA22422   3.555   4.227  14.807  0.0609 -0.0463 -0.4498
  295CLA    CLA22423   2.654   1.931  15.268  0.4705  0.0982  0.0835
  296CLA    CLA22424   0.633   4.628   2.676 -0.0367 -0.6560  0.1858
  297CLA    CLA22425   4.838   0.715   2.498 -0.1323 -0.5594  0.1524
  298CLA    CLA22426   3.214   6.672  17.055  0.2732  0.5999  0.0791
  299CLA    CLA22427   4.925   6.562  17.189 -0.0856 -0.0714 -0.0174
  300CLA    CLA22428   6.464   0.362  11.756 -0.1406 -0.0653  0.0861
  301CLA    CLA22429   0.138   2.883  16.831 -0.2608 -0.0225  0.0513
  302CLA    CLA22430   3.693   5.757  12.383 -0.0350 -0.0639 -0.1073
  303CLA    CLA22431   0.251   4.706   0.327  0.0532  0.3730 -0.2445
  304CLA    CLA22432   3.976   2.096  12.034 -0.5534  0.4172 -0.3199
  305CLA    CLA22433   4.387   2.723  13.815  0.2416  0.0352  0.0521
  306CLA    CLA22434   4.504   4.803  16.523 -0.2287 -0.0495 -0.1368
  307CLA    CLA22435   5.997   5.944   0.066 -0.1490 -0.2656  0.1106
  308CLA    CLA22436   0.669   4.525   4.517  0.2375 -0.1275  0.1609
  309CLA    CLA22437   4.908   4.051   5.156  0.4044  0.5703  0.1223
  310CLA    CLA22438   0.586   2.351  11.880 -0.0453  0.4201 -0.0689
  311CLA    CLA22439   1.493   2.307   2.428  0.1035  0.5757 -0.3681
  312CLA    CLA22440   3.870   2.712   3.310  0.0402  0.6729  0.4988
  313CLA    CLA22441   1.776   5.701  15.645  0.3523  0.4056 -0.1681
  314CLA    CLA22442   2.850   5.189  11.931 -0.0157  0.0518  0.0689
  315CLA    CLA22443   1.728   0.286   4.583  0.0709  0.3898  0.0199
  316CLA    CLA22444   4.923   6.757   1.920  0.0469 -0.0062  0.4688
  317CLA    CLA22445   3.772   3.955  13.209 -0.2171  0.2565 -0.5605
  318CLA    CLA22446   4.509   6.292  11.989  0.0164 -0.0098 -0.0968
  319TIP3   OH222447   4.442   5.132   0.594  0.0927 -0.8934 -1.0874
  319TIP3    H122448   4.465   5.065   0.658 -0.4428 -0.1088 -0.0425
  319TIP3    H222449   4.525   5.178   0.578 -0.1509  0.3156  0.7610
  320TIP3   OH222450   0.916   0.422  11.831  0.0965  0.0991  0.3235
  320TIP3    H122451   0.897   0.329  11.846  1.7122 -0.3291 -0.0556
  320TIP3    H222452   0.834   0.458  11.797 -0.2913 -1.4001 -0.4391
  321TIP3   OH222453   5.942   2.989   0.071  0.2063  0.6538  0.4876
  321TIP3    H122454   5.916   3.027  -0.013  0.1286 -0.4664 -0.0141
  321TIP3    H222455   6.012   2.927   0.049 -0.0091  0.1428  1.2024
  322TIP3   OH222456   4.012   6.121   5.333  0.2658  0.1658 -0.0277
  322TIP3    H122457   4.086   6.065   5.311  0.1258 -0.0930  0.1515
  322TIP3    H222458   4.051   6.206   5.352  0.6129 -0.1718  0.8517
  323TIP3   OH222459   5.927   2.997   6.794 -0.4166  0.4550 -0.0041
  323TIP3    H122460   5.975   3.043   6.725 -0.8977  0.2449 -0.4791
  323TIP3    H222461   5.944   2.904   6.777 -1.2192  0.3622 -0.3526
  324TIP3   OH222462   4.222   3.679  15.796  0.1612 -0.0369 -0.1097
  324TIP3    H122463   4.238   3.713  15.884  0.4632 -0.3214 -0.0541
  324TIP3    H222464   4.192   3.589  15.810  0.6493 -0.2327 -0.3190
  325TIP3   OH222465   5.550   0.357   5.617 -0.7449 -0.0146  0.2102
  325TIP3    H122466   5.501   0.371   5.537 -0.8050 -0.0132  0.2471
  325TIP3    H222467   5.632   0.405   5.604 -1.2480  1.0030  0.6208
  326TIP3   OH222468   2.583   1.125   3.784  0.1404  0.0489  0.2183
  326TIP3    H122469   2.638   1.100   3.710 -1.3069 -1.9835 -0.2388
  326TIP3    H222470   2.507   1.067   3.779 -1.1588  1.4752  1.9180
  327TIP3   OH222471   5.045   1.317   4.386  0.3432 -0.0076  0.6658
  327TIP3    H122472   5.018   1.312   4.294 -0.7702 -1.0966  1.0205
  327TIP3    H222473   5.036   1.227   4.418 -1.1149  0.6855  2.3300
  328TIP3   OH222474   2.562   1.932   4.891  0.6935  0.1327 -0.0322
  328TIP3    H122475   2.496   1.938   4.821 -0.8473 -0.6702  1.2769
  328TIP3    H222476   2.513   1.950   4.971  1.6972 -2.0583  1.1657
  329TIP3   OH222477   1.151   4.839  13.792  0.4817 -0.2439 -0.1581
  329TIP3    H122478   1.058   4.861  13.778 -0.0428 -2.6099 -0.8660
  329TIP3    H222479   1.198   4.902  13.737 -0.8166 -0.1607 -1.2492
  330TIP3   OH222480   5.410   3.348  12.175  0.0072 -0.6734  0.3732
  330TIP3    H122481   5.491   3.298  12.177  0.5268  0.0220 -1.3495
  330TIP3    H222482   5.346   3.292  12.219  0.9802 -2.0392  0.1066
  331TIP3   OH222483   1.679   3.431  11.866  0.5375  0.2070 -0.0022
  331TIP3    H122484   1.615   3.384  11.920  1.5336  0.4273  1.4314
  331TIP3    H222485   1.699   3.510  11.916 -1.0592  2.2308 -2.3184
  332TIP3   OH222486   1.866   4.916   1.684 -0.0244  0.0982  0.3394
  332TIP3    H122487   1.931   4.935   1.616 -0.5105 -0.3426 -0.2572
  332TIP3    H222488   1.905   4.845   1.736 -0.6869 -1.2870 -0.9954
  333TIP3   OH222489   5.071   2.431   5.262  0.6267  0.0095 -1.0304
  333TIP3    H122490   5.095   2.341   5.242  1.2561  0.1996 -1.1627
  333TIP3    H222491   5.125   2.484   5.204  0.1351  0.4685 -1.0805
  334TIP3   OH222492   2.666   2.345  13.886  0.2085  0.2499  0.0206
  334TIP3    H122493   2.752   2.318  13.917  0.6358 -0.2104 -1.4876
  334TIP3    H222494   2.625   2.264  13.855 -0.6578  0.5142  0.4189
  335TIP3   OH222495   5.557   4.006  16.484  0.2608 -0.1099 -1.0302
  335TIP3    H122496   5.518   3.924  16.454 -2.0919  1.2343 -1.9552
  335TIP3    H222497   5.499   4.074  16.449  1.2490  1.8896  0.9707
  336TIP3   OH222498   1.936   0.767   3.828 -0.0455  0.5081  0.4050
  336TIP3    H122499   1.995   0.776   3.902 -0.9900  1.3799  1.0772
  336TIP3    H222500   1.875   0.840   3.837 -1.8092 -0.8834  0.2648
  337TIP3   OH222501   1.116   4.777   1.186  0.0064  0.4670 -0.3454
  337TIP3    H122502   1.198   4.796   1.231  0.4084 -0.3473 -0.7092
  337TIP3    H222503   1.130   4.808   1.096 -0.5239  1.4112 -0.1145
  338TIP3   OH222504   6.485   0.793   4.606  0.1106  0.0056  0.2139
  338TIP3    H122505   6.529   0.715   4.638 -2.2239 -1.0233  1.1048
  338TIP3    H222506   6.489   0.786   4.510  3.2373  0.8313  0.1821
  339TIP3   OH222507   3.528   1.816  14.688  0.4299  0.1319 -0.4147
  339TIP3    H122508   3.498   1.883  14.749 -0.2149 -0.8794  0.4162
  339TIP3    H222509   3.586   1.863  14.627  1.3125  1.1246  1.1258
  340TIP3   OH222510   0.438   1.945  11.388 -0.4539 -0.3591  0.1830
  340TIP3    H122511   0.445   1.982  11.300 -3.8664 -0.1647 -0.1373
  340TIP3    H222512   0.465   1.854  11.378 -1.4569 -0.5391 -1.2832
  341TIP3   OH222513   4.971   0.701   5.766  0.2303  0.2767 -0.5546
  341TIP3    H122514   4.983   0.675   5.675  1.2830  0.7605 -0.5637
  341TIP3    H222515   4.962   0.796   5.763  1.2571  0.3986 -0.0697
  342TIP3   OH222516   5.320   0.643  15.931  0.1339 -0.9898  0.3712
  342TIP3    H122517   5.403   0.669  15.970 -0.0042  0.2026 -0.0991
  342TIP3    H222518   5.264   0.720  15.941 -0.6111 -1.4465 -0.1820
  343TIP3   OH222519   5.861   5.975  17.007  0.0884  0.0066  0.3559
  343TIP3    H122520   5.798   5.904  17.019 -1.7446  1.8006  2.2022
  343TIP3    H222521   5.910   5.977  17.089 -0.5375  1.4047  0.7292
  344TIP3   OH222522   4.825   6.749  11.615 -0.2534 -0.4567  0.3331
  344TIP3    H122523   4.809   6.774  11.524  0.1946  0.1653  0.4188
  344TIP3    H222524   4.857   6.829  11.657  0.5413 -0.9901  0.7829
  345TIP3   OH222525   1.408   6.628   4.795  0.2238  0.2302  0.3400
  345TIP3    H122526   1.472   6.662   4.857 -0.9198  0.1685  1.6143
  345TIP3    H222527   1.422   6.679   4.715  1.2189  0.8602  0.8945
  346TIP3   OH222528   5.704   1.196   0.503  0.2994  0.7013  0.3278
  346TIP3    H122529   5.721   1.290   0.506  0.6450  0.7618 -1.8072
  346TIP3    H222530   5.779   1.160   0.455 -0.0963 -0.5918  0.6444
  347TIP3   OH222531   6.145   6.811  12.779  0.1480  0.2081  0.1841
  347TIP3    H122532   6.077   6.829  12.714  0.2060 -1.3405 -0.3372
  347TIP3    H222533   6.227   6.819  12.730  0.2245 -0.1693  0.2461
  348TIP3   OH222534   2.869   6.793   5.060 -0.6446 -0.4857 -0.5060
  348TIP3    H122535   2.904   6.717   5.015 -0.2179 -1.1225  0.8597
  348TIP3    H222536   2.941   6.824   5.116 -1.4207 -0.2754  0.4114
  349TIP3   OH222537   5.829   0.059  13.158 -0.4026 -0.3788  0.0818
  349TIP3    H122538   5.762   0.082  13.094  1.5687  2.3051 -1.2410
  349TIP3    H222539   5.834   0.136  13.216  0.4037 -1.2004  1.1597
  350TIP3   OH222540   0.157   6.195  11.039  0.1177 -0.3911 -0.1245
  350TIP3    H122541   0.217   6.270  11.041  1.1658 -1.2037  2.2438
  350TIP3    H222542   0.190   6.139  10.970  0.1192  0.6682 -1.0148
  351TIP3   OH222543   5.334   4.013   5.753  0.4126  0.1005  0.0959
  351TIP3    H122544   5.258   4.070   5.746  1.4795  1.6869  0.8452
  351TIP3    H222545   5.387   4.052   5.822  2.3126 -0.4932 -0.9634
  352TIP3   OH222546   0.377   2.189  16.928 -0.0155 -0.0106 -0.3936
  352TIP3    H122547   0.291   2.169  16.890 -0.6973 -1.0518  1.5572
  352TIP3    H222548   0.406   2.106  16.966  0.8039  0.8475  0.9396
  353TIP3   OH222549   1.371   6.615   3.961  0.1950 -0.5531 -0.0913
  353TIP3    H122550   1.447   6.587   4.014 -0.1721 -1.9919 -0.2841
  353TIP3    H222551   1.297   6.569   3.999 -0.3892 -0.1290 -0.6916
  354TIP3   OH222552   5.987   2.883   2.829 -0.2650  0.2896 -0.2841
  354TIP3    H122553   5.968   2.887   2.923  0.0527 -0.8821 -0.1616
  354TIP3    H222554   6.064   2.939   2.817 -0.7050  0.9803  0.0304
  355TIP3   OH222555   2.834   1.500  16.821  0.4033 -0.2584 -0.1218
  355TIP3    H122556   2.862   1.474  16.909  1.8939 -1.1933 -0.8430
  355TIP3    H222557   2.901   1.562  16.792  0.5687 -0.8561 -1.0507
  356TIP3   OH222558   2.284   3.640  10.940 -0.4218  0.2489  0.3809
  356TIP3    H122559   2.290   3.595  10.856 -0.2276 -0.1912  0.6267
  356TIP3    H222560   2.357   3.606  10.991 -0.5894  0.4484  0.7600
  357TIP3   OH222561   3.331   0.838   5.348 -0.5684  0.0645 -0.9258
  357TIP3    H122562   3.328   0.860   5.441  0.2539 -1.1784 -0.5756
  357TIP3    H222563   3.410   0.881   5.316 -0.1009 -0.6227 -0.7198
  358TIP3   OH222564   4.420   3.079  14.836  1.0033  0.1419  0.4198
  358TIP3    H122565   4.454   3.144  14.774 -0.2027 -0.5707 -1.0489
  358TIP3    H222566   4.495   3.057  14.891  2.0554  1.0076 -0.6152
  359TIP3   OH222567   4.777   0.702   4.440  0.0743 -0.3427 -0.1037
  359TIP3    H122568   4.710   0.647   4.401  1.8211 -2.1412 -0.7863
  359TIP3    H222569   4.813   0.752   4.367  0.4753 -0.5206 -0.0320
  360TIP3   OH222570   2.196   0.308  12.291  0.0281  0.4487  0.3524
  360TIP3    H122571   2.156   0.227  12.322 -2.9788  1.8717  0.6004
  360TIP3    H222572   2.185   0.306  12.196  1.7024 -0.2379  0.1490
  361TIP3   OH222573   2.160   4.463   2.284 -0.3764 -0.3296  0.4897
  361TIP3    H122574   2.202   4.380   2.305 -0.5398 -0.4054  0.5168
  361TIP3    H222575   2.218   4.529   2.322  0.2420 -0.3835 -0.3465
  362TIP3   OH222576   3.633   3.420   4.493 -0.1750 -0.1436 -0.0455
  362TIP3    H122577   3.698   3.488   4.513 -0.0033 -0.2196 -0.3355
  362TIP3    H222578   3.659   3.345   4.547  0.1642 -0.2787 -0.3921
  363TIP3   OH222579   0.764   0.007   0.294  0.2771 -0.3512 -0.3290
  363TIP3    H122580   0.709   0.001   0.216  2.8077 -1.0452 -2.2209
  363TIP3    H222581   0.729   0.080   0.344 -0.4756  1.2208 -2.9872
  364TIP3   OH222582   4.051   2.225  15.606  0.0451  0.8071  0.4982
  364TIP3    H122583   4.062   2.264  15.519  0.3326  0.4644  0.3820
  364TIP3    H222584   3.981   2.161  15.594  2.0569 -1.3885 -0.2011
  365TIP3   OH222585   4.391   0.634  10.978  0.1499 -0.3113  0.5473
  365TIP3    H122586   4.423   0.585  10.901  1.0594  0.1291  0.6338
  365TIP3    H222587   4.389   0.725  10.949 -0.4621 -0.2665  0.7367
  366TIP3   OH222588   0.286   5.678  11.837  0.0637  0.3996 -0.6124
  366TIP3    H122589   0.205   5.651  11.880  0.4224  2.1430  1.2956
  366TIP3    H222590   0.355   5.661  11.901  0.8452  1.4194 -1.1424
  367TIP3   OH222591   2.553   2.670  13.486 -0.0158  0.1785 -0.1219
  367TIP3    H122592   2.483   2.684  13.423 -0.6744  1.9530  0.9537
  367TIP3    H222593   2.592   2.756  13.499  0.5306 -0.2706  1.4074
  368TIP3   OH222594   2.373   3.488   5.483 -0.4965  0.5660 -0.3638
  368TIP3    H122595   2.443   3.522   5.428  0.0629  1.2308  0.7210
  368TIP3    H222596   2.315   3.562   5.499 -0.9229  0.2602 -0.4530
  369TIP3   OH222597   4.319   2.953   1.505  0.5267 -0.4547 -0.1282
  369TIP3    H122598   4.400   2.975   1.551  0.7781 -0.9551 -0.3237
  369TIP3    H222599   4.249   2.991   1.559  0.5775 -3.4204  2.2247
  370TIP3   OH222600   4.274   5.210  10.969 -0.2576 -0.6653 -0.1818
  370TIP3    H122601   4.347   5.243  10.918 -0.5998 -0.0882 -0.3030
  370TIP3    H222602   4.297   5.119  10.988  1.4584  0.0476  1.5121
  371TIP3   OH222603   3.964   5.533   5.853  0.3273  0.5354 -0.6577
  371TIP3    H122604   3.964   5.469   5.782 -0.1668 -0.3288  0.0872
  371TIP3    H222605   4.034   5.504   5.912 -1.4594 -0.8167  0.9257
  372TIP3   OH222606   5.526   4.113  12.262  1.2708 -0.1716  0.0102
  372TIP3    H122607   5.478   4.071  12.190 -3.0040  3.1507  0.5625
  372TIP3    H222608   5.569   4.188  12.222  0.1048  0.8326  0.5632
  373TIP3   OH222609   2.037   2.969   2.728  0.1392 -0.3035 -0.2523
  373TIP3    H122610   2.015   2.940   2.639 -1.5098  0.9609 -0.2928
  373TIP3    H222611   1.980   2.917   2.785 -0.6539  0.6612 -0.1327
  374TIP3   OH222612   4.837   1.174  14.442 -0.0084  0.5415  0.0652
  374TIP3    H122613   4.927   1.148  14.423 -0.7298 -1.7937 -0.5866
  374TIP3    H222614   4.814   1.124  14.520 -1.2087 -0.1737 -0.7121
  375TIP3   OH222615   2.612   1.137   2.398  0.0394 -0.1778  0.1344
  375TIP3    H122616   2.622   1.069   2.465 -1.8564 -0.9304 -0.2896
  375TIP3    H222617   2.688   1.194   2.411  1.4303 -2.0735  0.8286
  376TIP3   OH222618   2.018   4.880   2.948  0.0877  0.5172 -0.2436
  376TIP3    H122619   1.986   4.790   2.958  0.6727  0.4612  1.2914
  376TIP3    H222620   2.112   4.873   2.958  0.0940  1.3663  0.3317
  377TIP3   OH222621   2.271   5.494  15.698  0.0827 -0.1799  0.2941
  377TIP3    H122622   2.199   5.433  15.680  0.0050 -0.2926  0.9653
  377TIP3    H222623   2.350   5.443  15.683  0.0429  0.0847 -0.9337
  378TIP3   OH222624   0.760   1.623   3.406 -0.2963 -0.0816  0.8192
  378TIP3    H122625   0.727   1.679   3.336  3.0741  3.0241  1.4124
  378TIP3    H222626   0.810   1.555   3.361 -0.5317  0.1875  0.1486
  379TIP3   OH222627   6.768   3.382   2.258  0.3873  0.4023 -0.4574
  379TIP3    H122628   6.732   3.448   2.198  0.7707  0.0187 -1.1190
  379TIP3    H222629   6.797   3.311   2.201 -0.7288 -0.6976  0.2910
  380TIP3   OH222630   6.084   5.515   1.936  0.5875  0.1950 -0.2411
  380TIP3    H122631   6.025   5.506   2.011  0.0001 -2.1938 -0.8786
  380TIP3    H222632   6.056   5.596   1.893 -0.8733  0.2021  0.6341
  381TIP3   OH222633   0.871   4.280   4.495  0.0547 -0.1339  0.2082
  381TIP3    H122634   0.808   4.237   4.437 -0.9412 -0.7811  1.6964
  381TIP3    H222635   0.825   4.358   4.526 -0.8882 -1.6170  2.8353
  382TIP3   OH222636   2.167   1.948  15.752  0.0802  0.7359  0.1147
  382TIP3    H122637   2.114   1.878  15.714 -1.3416  1.6810  0.3112
  382TIP3    H222638   2.203   1.909  15.832 -1.7811  0.5983  0.9466
  383TIP3   OH222639   5.044   1.874  14.126  0.6969 -0.2025 -0.1927
  383TIP3    H122640   5.096   1.822  14.188  0.6473 -0.3692 -0.2899
  383TIP3    H222641   4.988   1.928  14.181 -0.3216 -1.3300 -0.0863
  384TIP3   OH222642   5.819   3.748   1.710 -0.0729 -0.1759  0.1665
  384TIP3    H122643   5.779   3.735   1.624 -0.1761  0.9363  0.0322
  384TIP3    H222644   5.816   3.843   1.723  0.3297 -0.3023  1.2119
  385TIP3   OH222645   4.861   2.194   2.002  0.1323  0.6794 -0.0539
  385TIP3    H122646   4.811   2.119   2.031  1.2945 -0.2027 -0.2397
  385TIP3    H222647   4.849   2.197   1.907  0.9235  0.0661 -0.1864
  386TIP3   OH222648   3.243   5.673   2.269  0.0316  0.0617 -0.2094
  386TIP3    H122649   3.225   5.752   2.218 -1.0635  0.3294  0.5542
  386TIP3    H222650   3.194   5.604   2.224 -0.1989  0.1119 -0.0334
  387TIP3   OH222651   0.667   1.538  15.528  0.3232 -0.4739 -0.3010
  387TIP3    H122652   0.759   1.520  15.511  0.2981  0.9953 -2.3694
  387TIP3    H222653   0.620   1.467  15.485  0.4477 -0.0520 -1.1467
  388TIP3   OH222654   3.457   0.259   0.802 -0.2096 -0.2067  0.2440
  388TIP3    H122655   3.482   0.257   0.894  0.1480  1.5593  0.2222
  388TIP3    H222656   3.424   0.171   0.784  0.9950 -1.0016  1.6853
  389TIP3   OH222657   2.071   2.361  17.174 -0.0306 -0.1118  0.1329
  389TIP3    H122658   1.986   2.391  17.141 -2.3812 -3.3302  2.5052
  389TIP3    H222659   2.086   2.278  17.129  1.1883 -0.2214  0.7048
  390TIP3   OH222660   6.014   1.647  16.502 -0.3632 -0.1887 -0.0872
  390TIP3    H122661   5.956   1.615  16.433 -0.5393  0.3770 -0.2104
  390TIP3    H222662   6.073   1.574  16.520  0.2296 -0.0663 -1.4349
  391TIP3   OH222663   6.660   3.285   5.017 -0.1769 -0.0587  0.3816
  391TIP3    H122664   6.610   3.324   4.945  0.7105  1.6804  0.6555
  391TIP3    H222665   6.713   3.217   4.976 -1.6183 -0.8950 -0.1573
  392TIP3   OH222666   5.436   1.282  14.357  0.0812  0.0743  0.6209
  392TIP3    H122667   5.448   1.192  14.326  0.0649 -0.0734  1.0368
  392TIP3    H222668   5.374   1.321  14.295 -1.2132 -0.7121  1.3818
  393TIP3   OH222669   2.029   2.243   5.208 -0.2739 -0.2483  0.9440
  393TIP3    H122670   1.936   2.220   5.195 -0.5049  0.4631  1.3005
  393TIP3    H222671   2.031   2.285   5.294  0.2478  0.4668  0.5864
  394TIP3   OH222672   4.539   3.939   3.620 -0.5663 -0.5979 -0.6197
  394TIP3    H122673   4.445   3.954   3.630 -0.6106  0.4475 -2.2553
  394TIP3    H222674   4.548   3.844   3.622 -1.2461 -0.7061  2.4474
  395TIP3   OH222675   2.419   0.336  13.781 -0.0922 -0.0072 -0.6389
  395TIP3    H122676   2.402   0.419  13.825  1.3219  1.3463 -2.5096
  395TIP3    H222677   2.354   0.333  13.710 -1.5359 -1.5828  0.6363
  396TIP3   OH222678   4.118   5.409  11.338  0.3783 -0.2741 -0.3023
  396TIP3    H122679   4.067   5.414  11.419 -0.3821 -0.9888 -0.7242
  396TIP3    H222680   4.076   5.339  11.288  0.6904  0.3275 -1.4276
  397TIP3   OH222681   2.466   2.664  12.980 -0.0309 -0.2192 -0.3551
  397TIP3    H122682   2.538   2.676  12.919 -2.6238 -0.2504 -3.7267
  397TIP3    H222683   2.417   2.589  12.946 -1.9576  0.1029  1.4530
  398TIP3   OH222684   2.924   3.461   3.854  0.0103 -0.3500  0.6649
  398TIP3    H122685   3.008   3.431   3.889  0.1639 -0.0407  0.5634
  398TIP3    H222686   2.947   3.524   3.787 -0.2949 -0.7463  0.1811
  399TIP3   OH222687   3.576   6.343   1.414 -0.0802 -0.3097 -0.1005
  399TIP3    H122688   3.627   6.268   1.445  0.6313  0.1981 -0.0485
  399TIP3    H222689   3.567   6.328   1.319  1.0926  0.1561 -0.2914
  400TIP3   OH222690   0.324   5.208  11.035 -0.2917  0.1655  0.6925
  400TIP3    H122691   0.357   5.233  11.122 -1.4437  1.6915  0.7307
  400TIP3    H222692   0.276   5.284  11.005  1.5394  0.3579 -2.0972
  401TIP3   OH222693   5.260   6.753   2.756  0.3645  0.4146  0.5645
  401TIP3    H122694   5.215   6.691   2.814 -0.2040  1.0578  0.8225
  401TIP3    H222695   5.204   6.831   2.756 -0.1549  0.1230 -1.5634
  402TIP3   OH222696   5.531   1.468  16.449  1.1519 -0.4658 -0.6083
  402TIP3    H122697   5.581   1.545  16.423  1.5306  0.2595  1.9606
  402TIP3    H222698   5.597   1.401  16.468  1.0610 -0.2145  0.6755
  403TIP3   OH222699   1.779   4.949   0.481  0.1086 -0.4038 -0.6236
  403TIP3    H122700   1.695   4.962   0.525  1.1787  2.0340  0.9391
  403TIP3    H222701   1.785   5.020   0.418  1.7228  0.6204  0.6046
  404TIP3   OH222702   3.375   0.317   1.780  0.2473  0.0349 -0.4208
  404TIP3    H122703   3.289   0.311   1.738  0.9910 -0.2469 -1.9746
  404TIP3    H222704   3.412   0.399   1.747  0.4466  0.3400  0.5198
  405TIP3   OH222705   6.748   2.131   6.301  0.0657 -0.1053  0.0988
  405TIP3    H122706   6.806   2.070   6.347 -0.4969 -0.0720  0.8599
  405TIP3    H222707   6.692   2.168   6.369 -0.1137  0.6914 -0.4734
  406TIP3   OH222708   6.793   1.943   0.356  0.3711  0.3112  0.0302
  406TIP3    H122709   6.770   1.948   0.449 -0.9978  1.4746 -0.3257
  406TIP3    H222710   6.758   2.024   0.319  0.0267 -0.5795 -1.6805
  407TIP3   OH222711   5.607   2.449   4.508 -0.0506  0.3175  0.0769
  407TIP3    H122712   5.554   2.523   4.477 -0.4831  0.1088  0.3082
  407TIP3    H222713   5.694   2.465   4.471  0.4857  2.1387  1.9550
  408TIP3   OH222714   3.020   5.441   4.660 -0.6476  0.1556  0.1467
  408TIP3    H122715   3.050   5.369   4.715 -1.8610 -0.0510  0.5780
  408TIP3    H222716   2.981   5.398   4.583 -0.4186  0.3877 -0.0997
  409TIP3   OH222717   2.162   4.093  16.476 -0.5622 -0.1229 -0.4222
  409TIP3    H122718   2.200   4.072  16.562  0.0887  1.0107 -0.4108
  409TIP3    H222719   2.095   4.158  16.495  0.9031  1.6302 -0.9196
  410TIP3   OH222720   4.791   3.803  16.321  0.3166 -0.1493  0.5275
  410TIP3    H122721   4.780   3.754  16.403 -2.7584 -1.6401 -0.5855
  410TIP3    H222722   4.864   3.760  16.277  0.5586 -0.7960  1.5276
  411TIP3   OH222723   6.141   3.855   3.097  0.3423  0.0958 -1.2738
  411TIP3    H122724   6.062   3.800   3.099 -0.0540  0.6717 -0.3128
  411TIP3    H222725   6.195   3.817   3.027  0.4813 -2.0994 -0.0869
  412TIP3   OH222726   3.089   5.324   3.517 -0.3145 -0.5280  0.1138
  412TIP3    H122727   3.006   5.339   3.472 -0.0387  0.9172  0.0263
  412TIP3    H222728   3.070   5.343   3.609 -0.7401 -2.9374  0.6061
  413TIP3   OH222729   2.012   3.725   3.528 -0.2843  0.3262 -0.4751
  413TIP3    H122730   2.027   3.715   3.434 -1.4476 -0.6190 -0.5860
  413TIP3    H222731   1.921   3.699   3.540 -0.5534  1.6953  0.7331
  414TIP3   OH222732   0.205   1.022  14.927 -0.7862  0.0306 -0.2756
  414TIP3    H122733   0.185   1.083  14.998 -2.6322  0.6070 -1.2307
  414TIP3    H222734   0.289   0.984  14.952 -0.2181  1.9561  1.0408
  415TIP3   OH222735   4.681   5.601   3.986 -0.2704 -0.2345  1.0084
  415TIP3    H122736   4.746   5.632   3.923 -0.1577 -0.2160  1.1327
  415TIP3    H222737   4.601   5.589   3.935 -0.3267  0.3011  0.9639
  416TIP3   OH222738   5.621   1.867  14.896 -0.3931 -0.2951  0.0213
  416TIP3    H122739   5.632   1.773  14.902 -0.5945 -0.2425  1.4357
  416TIP3    H222740   5.705   1.903  14.926 -0.5466 -0.0204  0.1240
  417TIP3   OH222741   0.196   0.087  12.778  0.3440 -0.2667  0.3440
  417TIP3    H122742   0.111   0.125  12.798 -0.0896 -1.0188 -0.0257
  417TIP3    H222743   0.242   0.156  12.730  0.4482  0.6212  1.6520
  418TIP3   OH222744   0.972   0.784   2.702  0.3573 -0.0474 -0.3392
  418TIP3    H122745   0.951   0.873   2.673 -0.1186 -0.4687 -1.3482
  418TIP3    H222746   1.008   0.795   2.789 -0.9608  1.0202  0.1024
  419TIP3   OH222747   2.968   5.284  13.777  0.2940 -0.1100  0.0632
  419TIP3    H122748   2.919   5.321  13.703 -0.1104  0.9942  0.8527
  419TIP3    H222749   2.903   5.238  13.829  0.3128  0.3003  0.4583
  420TIP3   OH222750   1.391   5.261  17.199  0.0171  0.1181  0.0028
  420TIP3    H122751   1.479   5.300  17.197  0.1938 -0.3034 -1.3724
  420TIP3    H222752   1.331   5.335  17.196  0.2772  0.4913  2.3997
  421TIP3   OH222753   1.291   2.045   5.983 -0.6483 -0.0684 -0.1487
  421TIP3    H122754   1.259   2.135   5.974 -3.7234 -0.8796  1.2847
  421TIP3    H222755   1.302   2.033   6.077  0.2311 -1.0576 -0.3615
  422TIP3   OH222756   1.361   2.800   5.346 -0.3143  0.1470 -0.0470
  422TIP3    H122757   1.432   2.775   5.287  1.4112  1.4364  1.3610
  422TIP3    H222758   1.315   2.870   5.299 -0.4614 -0.4723 -0.8410
  423TIP3   OH222759   1.914   3.502   3.080  0.2925  0.1866 -0.4016
  423TIP3    H122760   1.907   3.573   3.144 -3.0615  1.2202 -1.6962
  423TIP3    H222761   1.862   3.430   3.117 -0.2433  0.1687 -1.1510
  424TIP3   OH222762   6.630   4.978  17.135  0.4901  0.3685  0.0622
  424TIP3    H122763   6.569   4.905  17.142  2.7736 -1.7251 -0.2716
  424TIP3    H222764   6.678   4.977  17.218  0.3092  1.7655  0.2057
  425TIP3   OH222765   4.326   2.997   3.779 -0.2627 -0.3030 -0.1016
  425TIP3    H122766   4.409   2.979   3.735 -0.8540 -0.3901 -1.2047
  425TIP3    H222767   4.314   3.091   3.770  0.4677 -0.0249  1.4521
  426TIP3   OH222768   2.592   2.416   4.399 -0.0305 -0.4727 -0.2216
  426TIP3    H122769   2.631   2.387   4.317  1.5912 -2.9633  1.3033
  426TIP3    H222770   2.535   2.344   4.426 -0.9785  0.5371  0.6108
  427TIP3   OH222771   0.792   0.474  11.197  0.3971 -0.2470 -0.2039
  427TIP3    H122772   0.798   0.493  11.104  1.2911  0.1100 -0.0768
  427TIP3    H222773   0.737   0.395  11.201 -0.1237  0.0646 -0.9840
  428TIP3   OH222774   1.323   2.131   0.638 -0.6589 -0.2140  0.1944
  428TIP3    H122775   1.351   2.042   0.614 -2.1535 -1.5346  2.8128
  428TIP3    H222776   1.256   2.153   0.574  0.0778 -0.7544 -0.7870
  429TIP3   OH222777   3.208   1.728  13.537 -0.1402 -0.3029  0.1536
  429TIP3    H122778   3.284   1.669  13.541  0.1421 -0.2197 -2.4223
  429TIP3    H222779   3.232   1.793  13.471 -1.3335  1.4649  1.3695
  430TIP3   OH222780   4.508   4.692   0.681  0.1858  0.1686 -0.1563
  430TIP3    H122781   4.477   4.630   0.615 -0.0809 -0.3981  0.4917
  430TIP3    H222782   4.584   4.734   0.641 -1.5727  1.8866 -1.9729
  431TIP3   OH222783   1.356   5.753   4.125  0.8859  0.5151 -0.7770
  431TIP3    H122784   1.361   5.663   4.157  1.6046  1.0621  0.7563
  431TIP3    H222785   1.278   5.755   4.070 -1.3004 -0.1797  2.1056
  432TIP3   OH222786   3.849   3.537   2.199  0.3643 -0.3590  0.6616
  432TIP3    H122787   3.807   3.466   2.151 -0.0781  0.7977 -0.7341
  432TIP3    H222788   3.925   3.560   2.146  0.6724  0.0205  1.2575
  433TIP3   OH222789   4.690   4.408  11.531 -0.1356  0.5001  0.1350
  433TIP3    H122790   4.691   4.457  11.449  0.2591 -2.3742 -1.7042
  433TIP3    H222791   4.614   4.351  11.525  0.9073 -1.0417  0.9427
  434TIP3   OH222792   3.275   1.215   4.574 -0.4515  0.2685  0.0726
  434TIP3    H122793   3.200   1.256   4.617  0.1151  1.2689  0.1525
  434TIP3    H222794   3.290   1.269   4.496  1.4581  1.4034  1.1360
  435TIP3   OH222795   5.251   2.910   6.555 -0.4148  0.3270 -0.1673
  435TIP3    H122796   5.170   2.860   6.566  0.5002 -1.0944  0.2800
  435TIP3    H222797   5.264   2.952   6.640  0.9784 -2.0539  0.8874
  436TIP3   OH222798   2.173   1.326  14.316  0.4200 -0.4063  0.2159
  436TIP3    H122799   2.196   1.404  14.265  0.4301 -1.9537 -2.2990
  436TIP3    H222800   2.099   1.354  14.370  0.0727  1.2080 -1.0166
  437TIP3   OH222801   0.020   4.613  10.625 -0.1891 -0.3852 -0.3689
  437TIP3    H122802  -0.005   4.528  10.662 -0.7230 -0.8392 -1.7173
  437TIP3    H222803   0.114   4.619  10.641 -0.2448 -0.9665  0.2340
  438TIP3   OH222804   4.197   0.181  14.234 -0.3408 -0.0005 -0.6581
  438TIP3    H122805   4.240   0.251  14.184  1.1009  0.6358  1.3538
  438TIP3    H222806   4.182   0.112  14.169  0.0375  1.3668 -2.2881
  439TIP3   OH222807   6.372   4.631   2.830 -0.2724  0.2132  0.2733
  439TIP3    H122808   6.310   4.563   2.806 -0.6437 -1.2898  4.5254
  439TIP3    H222809   6.363   4.698   2.762 -2.4438 -2.3749 -2.2379
  440TIP3   OH222810   3.717   4.575   3.131  0.2597 -0.1910 -0.1313
  440TIP3    H122811   3.708   4.653   3.186  0.4547 -0.4269  0.2401
  440TIP3    H222812   3.806   4.544   3.148 -0.5078 -1.7547  1.4180
  441TIP3   OH222813   0.864   6.385   2.946 -0.1460  0.5884  0.5160
  441TIP3    H122814   0.929   6.374   3.016  0.0415  0.3034  0.3024
  441TIP3    H222815   0.792   6.327   2.971  1.1215 -1.7835 -0.9432
  442TIP3   OH222816   2.363   1.223  12.777  0.0281  0.1520  0.7935
  442TIP3    H122817   2.343   1.150  12.717  1.5477  0.4240 -0.1140
  442TIP3    H222818   2.455   1.243  12.759 -0.4705  2.6181  0.6739
  443TIP3   OH222819   3.673   1.894  16.006  0.5499  0.3706  0.8474
  443TIP3    H122820   3.632   1.902  15.920  0.3747  0.1588  0.9090
  443TIP3    H222821   3.667   1.800  16.027  0.8017  0.3839  0.9881
  444TIP3   OH222822   5.601   2.615  14.159  0.5377 -0.3703 -0.2228
  444TIP3    H122823   5.515   2.575  14.145 -0.2633  1.0875  0.3215
  444TIP3    H222824   5.642   2.560  14.226 -0.2118 -0.7513 -0.0657
  445TIP3   OH222825   3.070   1.864  13.062  0.0744 -0.4914 -0.3559
  445TIP3    H122826   3.159   1.881  13.094  0.6597 -0.7746 -1.7619
  445TIP3    H222827   3.081   1.796  12.996 -1.2142 -0.5973 -0.4866
  446TIP3   OH222828   1.626   0.296  15.196 -0.2846 -0.3505 -0.1547
  446TIP3    H122829   1.543   0.302  15.242 -0.0787 -1.0860  0.3389
  446TIP3    H222830   1.648   0.203  15.198  0.6074 -0.1556 -0.1659
  447TIP3   OH222831   6.481   2.748   4.521 -0.2348  0.0184 -0.0237
  447TIP3    H122832   6.502   2.815   4.457  1.0107 -0.2773  0.0482
  447TIP3    H222833   6.487   2.665   4.473  2.1565 -0.3231  0.7487
  448TIP3   OH222834   0.492   1.961   6.115 -0.2113 -0.7704  0.1193
  448TIP3    H122835   0.507   1.984   6.023 -1.7646  0.0122  0.0230
  448TIP3    H222836   0.494   2.045   6.161 -2.6533 -0.7320  0.2791
  449TIP3   OH222837   1.717   6.243  11.271  0.4962 -0.1535 -0.3367
  449TIP3    H122838   1.627   6.213  11.275  0.8296 -1.5036 -2.0633
  449TIP3    H222839   1.737   6.271  11.361 -1.4857 -0.2066  0.1504
  450TIP3   OH222840   1.156   2.985  12.458  0.4571 -0.6033 -0.1464
  450TIP3    H122841   1.159   2.936  12.540 -0.1610  1.6228  1.2889
  450TIP3    H222842   1.069   2.967  12.422  0.1354 -0.3563  0.4984
  451TIP3   OH222843   3.476   0.853   3.456 -0.2833  0.0444 -0.6323
  451TIP3    H122844   3.495   0.872   3.364  0.0747 -2.2572 -1.0791
  451TIP3    H222845   3.383   0.829   3.456 -0.5482  1.0148 -0.1969
  452TIP3   OH222846   4.171   0.233  12.986 -0.3792  0.1709 -0.1963
  452TIP3    H122847   4.226   0.209  12.911 -0.7811  1.1984 -0.8417
  452TIP3    H222848   4.082   0.209  12.959 -0.4093 -0.3076  0.3276
  453TIP3   OH222849   0.937   4.969  13.649  0.1997  0.0312 -0.1573
  453TIP3    H122850   0.980   4.992  13.566 -0.4517 -1.1941 -0.8670
  453TIP3    H222851   0.867   4.909  13.624 -0.0813 -0.2845  1.2829
  454TIP3   OH222852   1.373   0.705   4.186  0.4545 -0.3608 -0.2759
  454TIP3    H122853   1.278   0.716   4.181  0.6546  2.5118  0.6048
  454TIP3    H222854   1.396   0.659   4.106 -1.5350  0.0388 -1.1329
  455TIP3   OH222855   2.986   3.213   5.995  0.2949 -0.0045  0.4486
  455TIP3    H122856   3.018   3.255   6.075 -0.6354  1.2900  0.1720
  455TIP3    H222857   2.954   3.128   6.024  0.3099  0.3015  1.3892
  456TIP3   OH222858   3.637   4.696  12.174 -0.3650 -0.3691  0.0902
  456TIP3    H122859   3.680   4.717  12.092 -2.1871  0.3808 -0.7271
  456TIP3    H222860   3.551   4.661  12.149 -0.0070 -2.5628  1.6213
  457TIP3   OH222861   3.718   6.803   1.776 -0.1219 -0.1556 -0.9032
  457TIP3    H122862   3.680   6.715   1.786 -0.0179  0.0210  2.4237
  457TIP3    H222863   3.812   6.789   1.785 -0.2144  0.3747  2.3703
  458TIP3   OH222864   3.115   3.059  10.489 -0.5524  0.2796 -0.1662
  458TIP3    H122865   3.105   3.026  10.400 -1.2186  0.5731 -0.2020
  458TIP3    H222866   3.162   3.142  10.480 -0.8846  0.4582 -0.2752
  459TIP3   OH222867   5.007   2.495  16.136  0.0849 -0.1998 -0.7579
  459TIP3    H122868   4.969   2.441  16.067 -0.3153 -0.3487 -0.4274
  459TIP3    H222869   4.953   2.477  16.213 -0.1864  0.8264 -0.6919
  460TIP3   OH222870   0.043   0.966  13.363  0.1594  0.3096 -0.4516
  460TIP3    H122871   0.082   0.981  13.449 -2.0499 -0.5172  0.7917
  460TIP3    H222872   0.087   0.888  13.330 -1.4143 -1.6420  1.6774
  461TIP3   OH222873   2.964   1.100   4.534  0.0686 -0.0503  0.1124
  461TIP3    H122874   3.028   1.152   4.583  0.7748 -1.4079  0.6781
  461TIP3    H222875   2.885   1.101   4.588  0.3168 -0.1612  0.4835
  462TIP3   OH222876   5.480   4.336   2.303  0.6184 -0.0395 -0.3259
  462TIP3    H122877   5.495   4.430   2.318  0.8102 -0.0831 -0.2500
  462TIP3    H222878   5.538   4.315   2.229  0.0006  0.0787 -0.8536
  463TIP3   OH222879   5.478   2.522  14.567  0.4651 -0.1015  0.4225
  463TIP3    H122880   5.567   2.513  14.533 -0.1531 -0.5469 -1.1945
  463TIP3    H222881   5.441   2.434  14.561 -0.8064  0.4768 -1.1940
  464TIP3   OH222882   3.811   5.927  15.158 -0.3636 -0.0251 -0.1283
  464TIP3    H122883   3.726   5.883  15.160 -1.4637  2.0116 -0.1300
  464TIP3    H222884   3.872   5.863  15.195 -2.1748 -0.9370  1.4263
  465TIP3   OH222885   2.108   1.034   5.168 -0.0932 -0.1708  0.1619
  465TIP3    H122886   2.111   0.959   5.227 -0.0311 -0.1085  0.2368
  465TIP3    H222887   2.058   1.002   5.092  0.6927 -0.5708 -0.2011
  466TIP3   OH222888   0.780   1.762   2.169 -0.2312 -0.7367 -0.0635
  466TIP3    H122889   0.827   1.804   2.097 -0.4442 -0.5104 -0.0682
  466TIP3    H222890   0.789   1.668   2.151  0.5190 -0.7070  0.1228
  467TIP3   OH222891   4.838   3.192  12.642  0.3082 -0.5622  0.7295
  467TIP3    H122892   4.799   3.144  12.716  0.0109 -1.5700 -0.0592
  467TIP3    H222893   4.925   3.217  12.673 -0.1761 -0.1157  1.7667
  468TIP3   OH222894   0.416   0.354  12.753  1.1474 -0.0805 -0.0647
  468TIP3    H122895   0.432   0.372  12.845  0.0094  1.2257 -0.0974
  468TIP3    H222896   0.501   0.365  12.710  0.8948  4.0369  0.1347
  469TIP3   OH222897   5.845   6.620   3.770 -0.8564  0.3938  0.3264
  469TIP3    H122898   5.867   6.534   3.807 -0.9001  0.5799  0.7880
  469TIP3    H222899   5.920   6.641   3.714 -0.0851  0.7768  1.4695
  470TIP3   OH222900   1.371   2.416   0.594  0.1259  0.6196  0.3062
  470TIP3    H122901   1.325   2.425   0.510 -2.0498  0.1579  1.3536
  470TIP3    H222902   1.365   2.323   0.615  0.8188  0.6950  0.8815
  471TIP3   OH222903   5.154   1.905  13.014  0.0278  0.6175 -0.4806
  471TIP3    H122904   5.058   1.900  13.016  0.0836 -1.6625 -0.6785
  471TIP3    H222905   5.172   1.970  12.945 -1.3490  1.4317 -0.1278
  472TIP3   OH222906   0.074   3.113   0.942  0.1039  0.2328 -0.3036
  472TIP3    H122907   0.075   3.204   0.915  2.7976  0.4504  0.3055
  472TIP3    H222908   0.067   3.117   1.038  1.2418 -0.1317 -0.1926
  473TIP3   OH222909   3.660   3.193   5.223 -0.2558  0.6000  0.2439
  473TIP3    H122910   3.742   3.197   5.272  0.6741  0.8886 -1.2570
  473TIP3    H222911   3.671   3.119   5.163 -1.2685  0.3802  0.3039
  474TIP3   OH222912   1.812   6.193  15.185 -0.2359 -0.0104 -0.7376
  474TIP3    H122913   1.818   6.247  15.264  0.4395 -2.9016  1.3665
  474TIP3    H222914   1.898   6.203  15.143  0.7523 -1.1750  0.9094
  475TIP3   OH222915   2.417   0.153  11.602  0.2673  0.3262  0.5734
  475TIP3    H122916   2.468   0.073  11.617 -1.2394 -0.5084  1.5284
  475TIP3    H222917   2.373   0.137  11.519  1.3863  0.9713 -0.1620
  476TIP3   OH222918   6.733   1.919  15.787  0.4518  0.3287  0.4082
  476TIP3    H122919   6.816   1.876  15.769  0.6925  0.1826  1.7414
  476TIP3    H222920   6.666   1.857  15.757  0.8025 -0.7652  1.7571
  477TIP3   OH222921   6.485   2.109  12.487 -0.1013  0.4870 -0.1080
  477TIP3    H122922   6.419   2.176  12.505 -1.3884 -0.1934 -1.9022
  477TIP3    H222923   6.437   2.042  12.437  1.2866 -1.4655  1.0528
  478TIP3   OH222924   2.129   1.635   6.219 -0.5131 -0.7280 -0.1835
  478TIP3    H122925   2.070   1.695   6.265 -0.0834  0.1023 -0.6928
  478TIP3    H222926   2.160   1.685   6.143 -0.1501 -1.6002 -0.6259
  479TIP3   OH222927   0.533   4.411  11.783  0.3946 -0.7934  0.1932
  479TIP3    H122928   0.501   4.428  11.694  0.6675 -0.0064  0.2348
  479TIP3    H222929   0.469   4.350  11.820 -0.5404  0.0028 -0.0546
  480TIP3   OH222930   3.106   3.136  11.667  0.0044 -0.2642 -0.0579
  480TIP3    H122931   3.111   3.171  11.578  0.3227 -3.1579 -1.2818
  480TIP3    H222932   3.098   3.214  11.723 -1.8563  1.6127 -2.6787
  481TIP3   OH222933   6.206   0.114  15.333  0.3345  0.2462  0.2135
  481TIP3    H122934   6.168   0.185  15.282 -0.1617  0.0408  0.2980
  481TIP3    H222935   6.300   0.131  15.330  0.4914 -0.6711 -2.1666
  482TIP3   OH222936   4.560   1.981   4.945 -0.4570 -0.1946  0.1534
  482TIP3    H122937   4.582   1.919   4.875  0.0267  0.3431 -0.1778
  482TIP3    H222938   4.640   2.032   4.958 -0.5760 -0.2206  1.0287
  483TIP3   OH222939   4.819   0.692   1.198  0.2915  0.1728 -0.9841
  483TIP3    H122940   4.809   0.701   1.103  0.9023 -0.1422 -1.0855
  483TIP3    H222941   4.733   0.714   1.234 -0.3393 -1.0630 -1.6854
  484TIP3   OH222942   2.432   3.685  12.717  0.6751  0.2183  0.2111
  484TIP3    H122943   2.371   3.732  12.660  1.9585  0.9531 -0.6341
  484TIP3    H222944   2.425   3.594  12.690  1.3794  0.5725 -1.3038
  485TIP3   OH222945   5.246   4.194  12.408  0.4053 -0.0075  0.5234
  485TIP3    H122946   5.198   4.209  12.327 -1.4653 -0.5151  1.4639
  485TIP3    H222947   5.292   4.111  12.395 -1.0048 -0.8057  0.4371
  486TIP3   OH222948   6.751   1.704   0.589 -0.5038 -0.4927 -0.6493
  486TIP3    H122949   6.695   1.634   0.625 -0.6510  0.6024  1.3891
  486TIP3    H222950   6.692   1.778   0.577 -0.2484 -0.5212 -2.3420
  487TIP3   OH222951   1.345   3.437   2.750 -0.4108 -0.1851 -0.5117
  487TIP3    H122952   1.314   3.495   2.680  2.2225  2.6884  0.5162
  487TIP3    H222953   1.383   3.495   2.815 -0.2143 -2.9420  2.0558
  488TIP3   OH222954   2.036   2.647  16.677 -0.2562 -0.0491  0.0070
  488TIP3    H122955   1.953   2.602  16.663  0.1350 -0.7286 -0.1525
  488TIP3    H222956   2.062   2.677  16.589  0.0968 -0.6027 -0.0804
  489TIP3   OH222957   1.563   1.791   5.333 -0.0439 -0.3273  0.0124
  489TIP3    H122958   1.626   1.726   5.300 -2.2211 -2.9021  0.5699
  489TIP3    H222959   1.481   1.768   5.288 -1.0258  1.7423  0.6728
  490TIP3   OH222960   2.205   3.141  11.246 -0.2038  0.3418  0.4734
  490TIP3    H122961   2.189   3.235  11.242  0.3883  0.4486  0.4926
  490TIP3    H222962   2.119   3.102  11.261 -0.6723  0.7724 -0.9570
  491TIP3   OH222963   4.034   1.518   0.794 -0.3731  0.1213 -0.0076
  491TIP3    H122964   3.996   1.450   0.738  0.9283  0.5681 -1.4953
  491TIP3    H222965   4.128   1.509   0.783 -0.1416  1.4473  0.6406
  492TIP3   OH222966   2.436   1.195   0.149  0.1155  0.2203  0.5945
  492TIP3    H122967   2.513   1.166   0.101  1.0537 -1.0769  2.7411
  492TIP3    H222968   2.371   1.214   0.081  2.2922  1.3958 -1.2715
  493TIP3   OH222969   5.427   6.696   2.065 -0.1907 -0.1276 -0.6623
  493TIP3    H122970   5.408   6.724   2.154  0.5637 -1.4859 -0.0311
  493TIP3    H222971   5.346   6.658   2.033 -0.3105 -0.1274 -0.3558
  494TIP3   OH222972   2.553   4.736  17.202 -0.1372 -0.3210 -0.1037
  494TIP3    H122973   2.511   4.657  17.169 -1.9277 -0.8262  2.9940
  494TIP3    H222974   2.481   4.790  17.235  1.1478  2.0822 -0.9380
  495TIP3   OH222975   6.689   3.935   2.137 -0.3992  0.2022 -0.3660
  495TIP3    H122976   6.640   3.899   2.063 -0.2132  2.7450 -1.8599
  495TIP3    H222977   6.778   3.945   2.105 -0.0150  0.2130  0.6492
  496TIP3   OH222978   4.109   4.757   4.154  0.5186  0.2594  0.2060
  496TIP3    H122979   4.029   4.710   4.132  2.7647 -2.5391 -3.2481
  496TIP3    H222980   4.136   4.721   4.239 -0.9036 -0.0856  0.5352
  497TIP3   OH222981   4.370   0.849  15.630  0.3607 -0.1070 -0.6481
  497TIP3    H122982   4.411   0.796  15.698 -0.7561 -1.2649 -0.8448
  497TIP3    H222983   4.443   0.879  15.575  1.2560  0.6638  0.8944
  498TIP3   OH222984   6.533   0.665  14.950  0.1627  0.8139  0.4317
  498TIP3    H122985   6.626   0.658  14.969  0.0489  1.6923  1.4313
  498TIP3    H222986   6.497   0.578  14.968  0.7395  0.5526  0.3184
  499TIP3   OH222987   4.893   0.610   1.979 -0.4519 -0.2978 -0.6228
  499TIP3    H122988   4.832   0.577   2.045  0.4436  4.1002  2.8184
  499TIP3    H222989   4.836   0.646   1.910 -1.5076 -1.3086 -0.3198
  500TIP3   OH222990   0.904   5.219  15.650  0.6165 -0.6179  0.0846
  500TIP3    H122991   0.905   5.298  15.596  2.5296 -0.4939  0.2184
  500TIP3    H222992   0.948   5.153  15.596  2.3900 -0.5406  1.3714
  501TIP3   OH222993   4.626   0.318  12.207  0.0811  0.2903  0.0545
  501TIP3    H122994   4.625   0.222  12.209 -0.2816  0.2203 -1.6778
  501TIP3    H222995   4.678   0.340  12.130 -1.6533  1.4108 -0.8590
  502TIP3   OH222996   2.909   1.360   5.441 -0.0683 -0.1773 -0.1131
  502TIP3    H122997   2.969   1.294   5.475  1.0353  0.5740 -0.5581
  502TIP3    H222998   2.879   1.407   5.519  0.3816 -0.1775  0.0618
  503TIP3   OH222999   0.383   4.333  10.752 -0.4007 -0.3506 -0.1900
  503TIP3    H123000   0.337   4.250  10.739 -1.0031 -0.3859  1.9017
  503TIP3    H223001   0.457   4.311  10.807  1.8288 -0.1454 -2.8755
  504TIP3   OH223002   3.681   2.596   5.413 -0.4660  0.6552  0.9380
  504TIP3    H123003   3.592   2.626   5.397 -0.5078  1.3353  2.3185
  504TIP3    H223004   3.671   2.522   5.472 -0.1424  0.3919  0.6659
  505TIP3   OH223005   0.665   5.037  13.232  0.1856  0.8621  0.4415
  505TIP3    H123006   0.579   5.006  13.261  0.4695 -1.4840 -0.9572
  505TIP3    H223007   0.649   5.073  13.145  0.6487  0.2401  0.0998
  506TIP3   OH223008   3.758   2.947  12.110 -0.3433 -0.4147 -0.0644
  506TIP3    H123009   3.828   2.926  12.048 -0.8778 -0.5264 -0.6446
  506TIP3    H223010   3.679   2.907  12.072 -0.9953  0.8946 -0.1609
  507TIP3   OH223011   1.510   2.565  15.336  0.3179  0.2485 -0.0224
  507TIP3    H123012   1.515   2.634  15.402  0.7711 -0.1177  0.3314
  507TIP3    H223013   1.587   2.511  15.352 -0.1411 -0.4552 -0.1676
  508TIP3   OH223014   5.355   5.468   0.537 -0.2106  0.5378 -0.0873
  508TIP3    H123015   5.376   5.458   0.630 -0.2735  1.5692  0.0534
  508TIP3    H223016   5.263   5.496   0.536 -0.5580 -0.5409 -0.5282
  509TIP3   OH223017   6.528   5.274  13.057 -0.4960 -0.3662  0.0052
  509TIP3    H123018   6.469   5.304  12.988 -1.2191 -1.5396  0.0894
  509TIP3    H223019   6.592   5.219  13.011 -2.2482 -2.9430  0.4924
  510TIP3   OH223020   4.580   4.124   5.999  0.3913  0.0768  0.1035
  510TIP3    H123021   4.593   4.106   6.092  1.5038  3.2445  0.6848
  510TIP3    H223022   4.530   4.049   5.967 -0.4082 -0.9354  3.3239
  511TIP3   OH223023   3.565   1.024  13.947  1.0341 -0.2717 -0.2540
  511TIP3    H123024   3.499   1.020  13.878  0.1858 -0.9401  0.5746
  511TIP3    H223025   3.648   1.037  13.900  0.5331 -1.1361 -1.4249
  512TIP3   OH223026   6.265   5.148   5.613 -0.0930  0.6274  0.1783
  512TIP3    H123027   6.224   5.068   5.580  0.4579  0.5670 -0.3652
  512TIP3    H223028   6.338   5.164   5.554 -1.2912  2.5855 -0.9170
  513TIP3   OH223029   2.513   4.093   2.046 -0.0835 -0.4235 -0.1375
  513TIP3    H123030   2.551   4.179   2.062 -1.2178  0.0395  0.1815
  513TIP3    H223031   2.588   4.036   2.032  0.8727 -0.0387  2.7583
  514TIP3   OH223032   3.682   0.663   0.861 -0.2815  0.2475  0.1409
  514TIP3    H123033   3.768   0.635   0.894 -0.5410 -1.6193 -0.6392
  514TIP3    H223034   3.701   0.704   0.777  0.0516  2.1577  1.0799
  515TIP3   OH223035   5.194   4.216  12.996  0.2125 -0.3602  0.1390
  515TIP3    H123036   5.173   4.299  12.955 -0.0891 -0.5226 -0.0362
  515TIP3    H223037   5.192   4.235  13.090  0.9841  0.0279  0.0815
  516TIP3   OH223038   4.863   3.131   0.205 -0.2943 -0.4223  0.3590
  516TIP3    H123039   4.921   3.207   0.196 -0.5905 -0.3013 -0.7927
  516TIP3    H223040   4.922   3.057   0.218  0.0506 -0.1266  0.4864
  517TIP3   OH223041   2.978   2.686  16.082  0.1129 -0.2933 -0.2119
  517TIP3    H123042   2.884   2.691  16.094  0.0575  0.1961 -0.8082
  517TIP3    H223043   3.009   2.776  16.097  0.7939 -0.8766  2.3888
  518TIP3   OH223044   1.141   6.016   3.755  0.6123  0.0330  0.1106
  518TIP3    H123045   1.194   5.985   3.682  0.0234  0.5408 -0.5425
  518TIP3    H223046   1.162   6.109   3.763  0.9357 -0.0916  0.8263
  519TIP3   OH223047   2.568   6.624  13.332 -0.7188 -0.0927 -0.6662
  519TIP3    H123048   2.617   6.694  13.375 -1.6872 -0.3272  0.8918
  519TIP3    H223049   2.635   6.559  13.308 -0.0812  0.2976  0.0130
  520TIP3   OH223050   3.103   1.943   4.401 -0.0144 -0.3793  0.0426
  520TIP3    H123051   3.111   1.854   4.435  1.5577 -0.2450  0.0895
  520TIP3    H223052   3.192   1.978   4.403 -0.5484  1.0876 -0.2904
  521TIP3   OH223053   2.283   2.927   0.062 -0.2484 -0.1849 -0.0243
  521TIP3    H123054   2.304   2.892  -0.024 -1.0950 -0.1023 -0.2685
  521TIP3    H223055   2.211   2.988   0.047 -1.6903 -1.5738  0.9807
  522TIP3   OH223056   3.515   2.161  14.904 -0.1244  0.1095 -0.5689
  522TIP3    H123057   3.457   2.128  14.835 -0.1937  2.0376 -1.5020
  522TIP3    H223058   3.461   2.161  14.983 -0.4296 -0.9689 -0.7629
  523TIP3   OH223059   6.423   4.118  11.993  0.0037 -0.1796 -0.3679
  523TIP3    H123060   6.442   4.114  12.087  0.4460 -2.4754 -0.5136
  523TIP3    H223061   6.340   4.073  11.983 -1.4473  2.4167 -0.8109
  524TIP3   OH223062   4.932   4.683   4.908 -0.2919 -0.1571 -0.0979
  524TIP3    H123063   5.021   4.692   4.943 -0.2933 -0.6791  0.0442
  524TIP3    H223064   4.940   4.707   4.816 -0.2781  1.1941  0.2326
  525TIP3   OH223065   2.288   2.712  15.028  0.7377 -0.1913 -0.3545
  525TIP3    H123066   2.339   2.788  15.001  2.2265 -1.4201 -1.0701
  525TIP3    H223067   2.199   2.732  14.998  0.9639  1.4802 -0.0556
  526TIP3   OH223068   5.016   2.742  12.435 -0.4957  0.3920  0.2926
  526TIP3    H123069   5.016   2.691  12.517  3.7748  0.0137  0.2509
  526TIP3    H223070   5.068   2.819  12.455 -0.7333  1.1045 -1.6779
  527TIP3   OH223071   3.841   0.462  10.965 -0.1366  0.4413 -0.2866
  527TIP3    H123072   3.822   0.446  10.873  1.0033  0.9091 -0.6224
  527TIP3    H223073   3.932   0.492  10.966 -0.0090  0.0757  1.0318
  528TIP3   OH223074   6.461   2.269   4.175 -0.5338 -0.6629 -0.2293
  528TIP3    H123075   6.399   2.241   4.242  0.3348  2.2738  2.0169
  528TIP3    H223076   6.546   2.236   4.204 -0.2312  0.1484 -0.1636
  529TIP3   OH223077   1.204   4.370   2.179  0.2713  0.2873  0.4352
  529TIP3    H123078   1.257   4.338   2.252 -2.0742 -0.9377  1.7270
  529TIP3    H223079   1.184   4.291   2.128 -0.0406  0.7866 -0.2299
  530TIP3   OH223080   1.450   2.912   6.179 -0.1202 -0.6282  0.3417
  530TIP3    H123081   1.542   2.931   6.163 -0.6281  1.1414 -0.7627
  530TIP3    H223082   1.442   2.818   6.166  1.2811 -0.5975 -0.9587
  531TIP3   OH223083   4.992   4.057   3.973 -0.3650  0.1285 -0.4185
  531TIP3    H123084   4.987   4.135   3.917 -0.4121 -0.6190 -1.4973
  531TIP3    H223085   4.984   4.090   4.062 -1.6681  1.2526 -0.9107
  532TIP3   OH223086   3.888   0.054   2.560  0.3398  0.1182 -0.3184
  532TIP3    H123087   3.879   0.049   2.465  0.2878  0.6138 -0.3438
  532TIP3    H223088   3.937  -0.024   2.584 -1.2640 -1.0061 -0.5399
  533TIP3   OH223089   3.176   0.982  17.066  0.3046 -0.8544  0.4513
  533TIP3    H123090   3.120   1.040  17.014  1.4514 -1.1116 -1.1549
  533TIP3    H223091   3.115   0.920  17.106 -0.5744 -1.7163 -2.0026
  534TIP3   OH223092   6.652   2.000   5.323  0.0042  0.1518 -0.2143
  534TIP3    H123093   6.689   2.043   5.246 -1.3615  1.5299 -0.1420
  534TIP3    H223094   6.581   1.945   5.288 -0.2948  0.3986 -0.0028
  535TIP3   OH223095   4.349   3.728  14.440 -0.6396  0.1119  0.7670
  535TIP3    H123096   4.298   3.795  14.485 -0.8116  0.0090  0.7239
  535TIP3    H223097   4.422   3.777  14.400 -1.0270  0.3445  0.3342
  536TIP3   OH223098   1.214   4.926  17.027  0.3884  0.1945  0.0784
  536TIP3    H123099   1.156   4.854  17.001  1.0488  0.3277 -1.9237
  536TIP3    H223100   1.261   4.893  17.103 -0.0987 -1.0735 -0.1511
  537TIP3   OH223101   0.704   3.553   1.397 -0.0392  0.6448 -0.1530
  537TIP3    H123102   0.782   3.502   1.375  0.5749  0.5257  2.0392
  537TIP3    H223103   0.719   3.639   1.358  1.8312  1.0311  1.2767
  538TIP3   OH223104   6.119   4.497  11.941 -0.6458  0.0021 -0.4107
  538TIP3    H123105   6.064   4.486  11.864  0.6480 -1.2377 -1.2057
  538TIP3    H223106   6.062   4.475  12.015 -1.7855  0.8320 -1.0181
  539TIP3   OH223107   3.858   6.164  12.769  0.2919 -0.3579 -0.0448
  539TIP3    H123108   3.931   6.133  12.824  0.3040 -1.1076 -0.4647
  539TIP3    H223109   3.784   6.110  12.796 -0.2094  0.6299  0.6145
  540TIP3   OH223110   2.996   3.408  16.898 -0.1914 -0.3691 -0.2533
  540TIP3    H123111   3.013   3.501  16.908 -1.1695 -0.2303  0.2161
  540TIP3    H223112   3.032   3.368  16.978 -2.0435 -0.0644  0.7833
  541TIP3   OH223113   4.065   3.469  15.028 -0.1834 -0.3476  0.0192
  541TIP3    H123114   4.092   3.390  14.981  1.7709 -0.3351  1.0054
  541TIP3    H223115   4.098   3.541  14.974 -2.6995 -0.0972 -1.3217
  542TIP3   OH223116   0.342   2.015   1.315  0.0318  0.5194 -0.0171
  542TIP3    H123117   0.433   2.000   1.343  0.2287  0.6678 -0.5739
  542TIP3    H223118   0.289   1.984   1.389  0.4613 -1.4444 -0.4869
  543TIP3   OH223119   2.197   4.000  11.545 -0.5864 -0.9711  0.2275
  543TIP3    H123120   2.286   3.965  11.544 -0.8503 -1.7019  1.3714
  543TIP3    H223121   2.209   4.095  11.537  0.3573 -0.9804  1.2675
  544TIP3   OH223122   1.886   2.495  10.905 -0.3965 -0.2192  0.5332
  544TIP3    H123123   1.817   2.448  10.858  0.4662  1.1789 -2.3773
  544TIP3    H223124   1.841   2.567  10.949 -1.0441 -0.5265  0.3913
  545TIP3   OH223125   5.391   1.193   4.448  0.2767 -0.9221  0.2702
  545TIP3    H123126   5.389   1.130   4.520 -0.5909 -0.4272  0.6874
  545TIP3    H223127   5.344   1.269   4.481  3.1096  0.8295  0.5716
  546TIP3   OH223128   2.519   3.649   5.313 -0.0634  0.2803  0.1768
  546TIP3    H123129   2.465   3.631   5.236  1.6077 -0.3622 -0.9023
  546TIP3    H223130   2.507   3.742   5.330 -1.1982  0.2282 -0.2631
  547TIP3   OH223131   1.896   4.674   3.239 -0.2962  0.1961  0.3180
  547TIP3    H123132   1.874   4.628   3.158 -0.6471  2.8959 -1.2433
  547TIP3    H223133   1.982   4.712   3.223 -0.1673  0.3789  1.3927
  548TIP3   OH223134   2.219   0.528   3.189  0.1580 -0.3286  0.7055
  548TIP3    H123135   2.236   0.459   3.125 -2.0562 -0.9605  0.7122
  548TIP3    H223136   2.247   0.491   3.273  0.7497 -0.4573  0.4579
  549TIP3   OH223137   1.414   0.207   0.503 -0.4775  0.1796  0.0171
  549TIP3    H123138   1.380   0.118   0.489 -0.5867  0.0440  1.0791
  549TIP3    H223139   1.502   0.194   0.536 -0.4270  0.4720 -0.0003
  550TIP3   OH223140   3.729   3.888  13.842  0.2696  0.1356  0.1616
  550TIP3    H123141   3.641   3.869  13.875 -1.0444  2.0450 -1.9291
  550TIP3    H223142   3.788   3.861  13.913 -1.7459 -3.6478  0.6672
  551TIP3   OH223143   4.847   3.065   4.818 -0.0768 -0.1231 -0.2872
  551TIP3    H123144   4.800   3.003   4.873 -2.2814  1.3637 -0.3445
  551TIP3    H223145   4.826   3.151   4.855  0.2877  0.7714 -2.0184
  552TIP3   OH223146   3.722   2.478   4.151  0.1787  0.8069  0.1593
  552TIP3    H123147   3.741   2.565   4.117  0.0475  0.1348 -1.7693
  552TIP3    H223148   3.772   2.419   4.094 -2.2626 -0.5661 -0.7322
  553TIP3   OH223149   3.707   2.666   2.204  0.4350 -0.7405 -0.1501
  553TIP3    H123150   3.627   2.636   2.162 -0.3227 -0.0529  0.7485
  553TIP3    H223151   3.777   2.638   2.146 -0.5726  0.3704 -1.9841
  554TIP3   OH223152   0.135   6.470   0.444 -0.1202 -0.0057 -0.3608
  554TIP3    H123153   0.136   6.561   0.473  1.0007 -0.1814  0.2033
  554TIP3    H223154   0.055   6.433   0.481  0.7789  0.0324  1.7295
  555TIP3   OH223155   4.152   3.119   1.081 -0.2471 -0.0884  0.6864
  555TIP3    H123156   4.188   3.197   1.122 -0.5951  1.5626 -1.8730
  555TIP3    H223157   4.215   3.050   1.101  1.3709  1.4120  1.0519
  556TIP3   OH223158   0.851   1.134  11.944  0.0410 -0.1769  0.0391
  556TIP3    H123159   0.874   1.069  12.010 -2.8578 -0.8482  0.5138
  556TIP3    H223160   0.795   1.196  11.990  1.4139  1.8089 -0.8242
  557TIP3   OH223161   5.683   6.486  15.159 -0.5408  0.4125  0.0740
  557TIP3    H123162   5.675   6.567  15.210 -1.5795  0.2545  0.1929
  557TIP3    H223163   5.659   6.511  15.069 -3.5596 -0.2289  0.5799
  558TIP3   OH223164   0.741   6.683   0.680 -0.6637 -0.4470  0.4352
  558TIP3    H123165   0.728   6.588   0.676 -0.7249 -0.4005 -0.6853
  558TIP3    H223166   0.689   6.711   0.755  1.7886 -1.6803  2.7797
  559TIP3   OH223167   3.633   4.520  11.818 -0.3702 -0.6267 -1.0941
  559TIP3    H123168   3.654   4.455  11.886 -2.4803  0.7710  1.0442
  559TIP3    H223169   3.718   4.545  11.782  0.7729 -1.9751  0.4978
  560TIP3   OH223170   1.532   5.410  16.049  0.0088 -0.0163  0.1801
  560TIP3    H123171   1.580   5.367  15.978  0.2136 -0.7924  0.7776
  560TIP3    H223172   1.547   5.354  16.125  0.7230  1.4053  1.1064
  561TIP3   OH223173   0.251   2.026  11.613 -0.0991  0.0007 -0.3027
  561TIP3    H123174   0.275   2.109  11.654 -1.0762  0.4811 -0.6578
  561TIP3    H223175   0.276   2.037  11.521 -0.0477 -0.1756 -0.3102
  562TIP3   OH223176   3.712   0.416   4.299  0.4638 -0.2575  0.0132
  562TIP3    H123177   3.683   0.448   4.385 -1.4432 -0.8403 -0.3714
  562TIP3    H223178   3.690   0.323   4.299 -1.3460  0.0831 -1.7506
  563TIP3   OH223179   3.730   2.362   2.042  0.0352  0.3795  0.6580
  563TIP3    H123180   3.654   2.315   2.076  0.2269  0.2609  0.9238
  563TIP3    H223181   3.752   2.317   1.961 -1.1731  1.4146 -0.2780
  564TIP3   OH223182   5.106   6.477  13.841 -0.7214  0.2923 -0.1581
  564TIP3    H123183   5.044   6.531  13.793  0.0970  0.9621 -0.4867
  564TIP3    H223184   5.103   6.511  13.931 -0.4865  0.6341 -0.2791
  565TIP3   OH223185   3.820   1.275   5.348 -0.3972  0.2280  0.1378
  565TIP3    H123186   3.826   1.198   5.292 -0.4958 -0.6589  1.2974
  565TIP3    H223187   3.894   1.330   5.323  1.1188 -1.3827  0.9100
  566TIP3   OH223188   2.415   0.702  13.616  0.1491 -0.4438  0.4889
  566TIP3    H123189   2.353   0.753  13.563 -0.3302 -0.6570  0.8410
  566TIP3    H223190   2.423   0.751  13.697  0.0397 -0.6886  0.6475
  567TIP3   OH223191   1.620   3.150   0.967  0.8102  0.1482 -0.2150
  567TIP3    H123192   1.695   3.121   0.914 -0.7481 -0.3025 -2.3035
  567TIP3    H223193   1.643   3.124   1.056  3.0642 -0.0836 -0.7857
  568TIP3   OH223194   0.233   6.192  12.359 -0.0157  0.2392  0.1033
  568TIP3    H123195   0.194   6.268  12.402 -1.1909 -1.0791  1.4734
  568TIP3    H223196   0.202   6.198  12.268  2.2534  2.8953 -0.6597
  569TIP3   OH223197   5.425   4.690  12.921  0.3972  0.0049  0.3369
  569TIP3    H123198   5.515   4.722  12.910 -0.0456  0.7657 -1.4864
  569TIP3    H223199   5.371   4.769  12.916 -0.4940 -0.6351 -0.7782
  570TIP3   OH223200   2.417   4.753   0.604  0.3793 -0.0916 -0.1794
  570TIP3    H123201   2.408   4.768   0.699 -3.0720  0.0235 -0.4027
  570TIP3    H223202   2.467   4.672   0.597 -0.5687 -0.9324  1.8474
  571TIP3   OH223203   3.446   3.190  16.525  0.2141  0.0259  0.3253
  571TIP3    H123204   3.374   3.218  16.582  0.4030  0.6017  0.2822
  571TIP3    H223205   3.466   3.101  16.555 -0.7781 -0.2929  0.0784
  572TIP3   OH223206   1.337   0.019   3.801 -0.0634  0.5859  0.1332
  572TIP3    H123207   1.253   0.059   3.824 -0.2930 -0.1286  0.5406
  572TIP3    H223208   1.344  -0.058   3.856 -0.8766 -1.4961 -2.4488
  573TIP3   OH223209   5.884   1.539   3.246 -0.4182  0.2178  0.0892
  573TIP3    H123210   5.874   1.623   3.201 -0.2483 -1.1344 -2.6791
  573TIP3    H223211   5.976   1.535   3.268 -0.0906  0.1566 -1.1783
  574TIP3   OH223212   1.092   1.187   1.014 -0.1980  0.1411  0.3455
  574TIP3    H123213   1.143   1.267   0.999 -0.6755  0.5585  0.9142
  574TIP3    H223214   1.018   1.215   1.068 -1.7215 -0.2182 -1.4436
  575TIP3   OH223215   1.567   4.182  16.552  0.5035 -0.1360 -0.8191
  575TIP3    H123216   1.602   4.131  16.478  0.8481 -0.6245 -0.3328
  575TIP3    H223217   1.546   4.116  16.618 -2.0957  0.0491 -1.3610
  576TIP3   OH223218   6.528   5.671   1.027 -0.0668  0.1253  0.2647
  576TIP3    H123219   6.445   5.708   0.996  1.4429  0.6395 -3.6998
  576TIP3    H223220   6.523   5.578   1.006  1.1143  0.5422 -2.2514
  577TIP3   OH223221   0.475   1.355   3.236 -0.0271 -0.5775 -0.5198
  577TIP3    H123222   0.416   1.409   3.289  1.5765  0.1033  0.6451
  577TIP3    H223223   0.485   1.274   3.287  0.8287 -0.2785 -0.2015
  578TIP3   OH223224   0.740   0.586   3.831  0.2743 -0.4502 -0.3881
  578TIP3    H123225   0.706   0.535   3.905  1.4728 -1.5296 -0.5488
  578TIP3    H223226   0.724   0.531   3.754  0.8698 -0.2422 -0.6679
  579TIP3   OH223227   0.541   0.024  16.140 -0.3471 -0.1901 -0.1579
  579TIP3    H123228   0.522  -0.062  16.177 -0.2461  0.0736  0.5259
  579TIP3    H223229   0.610   0.007  16.076  1.2365 -0.3563  1.4911
  580TIP3   OH223230   0.288   6.157   2.429 -0.0230 -0.3300 -0.1298
  580TIP3    H123231   0.374   6.122   2.405  0.1692  1.4077 -2.3585
  580TIP3    H223232   0.239   6.157   2.347  0.3141  5.1839 -0.7046
  581TIP3   OH223233   5.466   2.699   4.673 -0.1583 -0.2847  1.2105
  581TIP3    H123234   5.504   2.721   4.588  2.4576 -0.5092  2.2304
  581TIP3    H223235   5.481   2.776   4.726  1.4476 -1.3652  2.4190
  582TIP3   OH223236   6.334   5.570   3.847 -0.5367  0.1955 -0.3121
  582TIP3    H123237   6.420   5.565   3.804  0.5759  0.0306  1.7523
  582TIP3    H223238   6.284   5.631   3.794  0.9678  0.5152 -1.4441
  583TIP3   OH223239   1.445   2.996  14.986 -0.0277  0.4043 -0.2091
  583TIP3    H123240   1.499   2.941  15.043 -1.6994 -1.5707 -0.4111
  583TIP3    H223241   1.389   3.046  15.046  0.1363  0.4224 -0.0703
  584TIP3   OH223242   6.805   0.270  12.327 -0.3458 -0.5578  0.2224
  584TIP3    H123243   6.836   0.340  12.270 -0.0443  0.1064  1.1602
  584TIP3    H223244   6.871   0.265  12.396 -0.8946 -1.0582  0.7221
  585TIP3   OH223245   6.130   4.750   1.248 -0.1956  0.1041  0.1414
  585TIP3    H123246   6.147   4.656   1.252 -1.0473 -0.0457  0.3502
  585TIP3    H223247   6.098   4.765   1.159  1.5179  0.4886 -0.4574
  586TIP3   OH223248   4.890   2.112   3.742 -0.0975  0.4451  0.3747
  586TIP3    H123249   4.881   2.101   3.837  0.1006 -0.3009  0.3077
  586TIP3    H223250   4.800   2.117   3.710 -0.1648  0.7138  0.5976
  587TIP3   OH223251   0.304   6.184   2.756 -0.4792 -0.6350 -0.1300
  587TIP3    H123252   0.287   6.101   2.712  0.5728 -1.0369  0.2011
  587TIP3    H223253   0.386   6.170   2.803 -1.2621 -0.0480  1.5117
  588TIP3   OH223254   1.310   4.699  14.811  0.9432 -0.3725 -0.1463
  588TIP3    H123255   1.244   4.638  14.776  0.9787 -1.1280  1.0391
  588TIP3    H223256   1.289   4.705  14.904  2.7008 -0.8221  0.3089
  589TIP3   OH223257   4.281   0.725  10.629 -0.2678 -0.1558 -0.5015
  589TIP3    H123258   4.201   0.676  10.651  0.4406 -1.4986 -0.8163
  589TIP3    H223259   4.352   0.666  10.652  0.6204  0.6767 -1.0506
  590TIP3   OH223260   6.137   4.047  12.848  0.0840  0.1997 -0.2967
  590TIP3    H123261   6.100   4.069  12.763  1.4221  0.9618 -0.7138
  590TIP3    H223262   6.207   3.984  12.829 -1.1236 -1.4825  0.5078
  591TIP3   OH223263   0.938   6.607  11.148  0.3188 -0.3141  0.1521
  591TIP3    H123264   0.901   6.687  11.186  0.5560 -0.8198  1.4669
  591TIP3    H223265   0.896   6.601  11.062  1.2411  1.9035 -0.5392
  592TIP3   OH223266   4.271   4.846   3.361 -0.4815  0.3720 -0.5683
  592TIP3    H123267   4.240   4.821   3.274  2.1984  0.4218 -1.6640
  592TIP3    H223268   4.315   4.930   3.347 -1.7207  1.4025  1.2966
  593TIP3   OH223269   3.960   3.677  15.240  0.7314  0.2550  0.2346
  593TIP3    H123270   3.997   3.615  15.177  2.2810  0.1623  1.1873
  593TIP3    H223271   3.968   3.633  15.325 -1.7268  0.1927  0.4937
  594TIP3   OH223272   2.933   5.159   0.933 -0.3939  0.3881  0.3126
  594TIP3    H123273   3.027   5.152   0.914 -0.9621 -1.9497 -2.2171
  594TIP3    H223274   2.913   5.081   0.984 -1.0562  0.7573  0.6315
  595TIP3   OH223275   0.397   4.918   5.125  0.2818  0.0691 -0.2203
  595TIP3    H123276   0.388   4.855   5.053 -2.0935 -1.3659  1.2165
  595TIP3    H223277   0.446   4.870   5.192 -0.9890 -0.0760  0.6361
  596TIP3   OH223278   2.747   2.908  15.341  0.3398 -0.1431 -0.1618
  596TIP3    H123279   2.787   2.938  15.259 -0.0995 -0.1844 -0.3911
  596TIP3    H223280   2.687   2.979  15.366 -0.5551 -0.7272 -0.6019
  597TIP3   OH223281   3.956   3.119   2.047  0.0214 -0.2454  0.3713
  597TIP3    H123282   3.980   3.183   2.114  0.6393  0.2434 -0.3016
  597TIP3    H223283   3.979   3.034   2.086 -0.3815 -0.0425  1.0877
  598TIP3   OH223284   3.417   4.903   3.466  0.1198 -0.3610 -0.1853
  598TIP3    H123285   3.352   4.960   3.508 -1.4344 -1.3341 -1.1434
  598TIP3    H223286   3.404   4.818   3.508  2.6900 -0.0228  1.5221
  599TIP3   OH223287   0.367   5.882   2.569 -0.1637  0.3627  0.4840
  599TIP3    H123288   0.436   5.924   2.517  1.5597  0.2687  2.5197
  599TIP3    H223289   0.374   5.789   2.547  0.8330  0.2688  1.1382
  600TIP3   OH223290   2.677   3.343   2.932 -0.0963 -0.3691  0.6356
  600TIP3    H123291   2.610   3.353   3.001 -0.6588  2.2788 -0.2008
  600TIP3    H223292   2.636   3.380   2.854  1.6606 -0.4986 -0.3809
  601TIP3   OH223293   6.176   1.813   3.176  0.4373  0.7444 -0.4140
  601TIP3    H123294   6.269   1.807   3.196  0.6562 -0.3017 -1.6484
  601TIP3    H223295   6.133   1.815   3.261  1.5346  0.3232  0.1619
  602TIP3   OH223296   3.876   0.235  14.528 -0.0721  0.4074  0.2259
  602TIP3    H123297   3.922   0.156  14.502  1.1525  1.7502 -1.9668
  602TIP3    H223298   3.865   0.227  14.622  1.0505 -1.8071  0.2191
  603TIP3   OH223299   4.218   3.140   6.029  0.0664 -0.4738 -0.2461
  603TIP3    H123300   4.217   3.217   5.973  0.0099  0.4077  0.9506
  603TIP3    H223301   4.156   3.160   6.099  1.0361 -1.0585  0.7981
  604TIP3   OH223302   2.757   5.812   2.593 -0.0548 -0.3097 -0.3326
  604TIP3    H123303   2.761   5.792   2.687 -0.4129 -1.0388 -0.4649
  604TIP3    H223304   2.819   5.884   2.582  2.3399 -2.1602 -0.0205
  605TIP3   OH223305   1.181   0.577   4.678 -0.5631  0.3948 -0.0671
  605TIP3    H123306   1.105   0.531   4.713 -0.6855  0.3759 -0.3614
  605TIP3    H223307   1.253   0.551   4.736 -1.1160  1.8088  1.3247
  606TIP3   OH223308   3.743   6.614   3.855  0.0684  0.1330  0.6433
  606TIP3    H123309   3.698   6.674   3.795  0.2194 -0.2233  0.1675
  606TIP3    H223310   3.758   6.666   3.934  1.0933  1.0486 -0.1117
  607TIP3   OH223311   6.161   3.838   2.400 -0.0220 -0.0303  0.7862
  607TIP3    H123312   6.089   3.855   2.340  1.9261  2.5048 -1.0572
  607TIP3    H223313   6.194   3.752   2.373  0.1763  0.6101 -1.2026
  608TIP3   OH223314   0.345   0.891  13.947 -0.6001 -0.2504 -0.4219
  608TIP3    H123315   0.273   0.875  14.007 -0.5896 -0.7177 -0.5316
  608TIP3    H223316   0.418   0.839  13.981 -0.0232  0.9139  0.2020
  609TIP3   OH223317   1.519   3.434  13.375  0.2209  0.1198 -0.0763
  609TIP3    H123318   1.493   3.343  13.389  0.2515 -0.0089 -0.8090
  609TIP3    H223319   1.614   3.433  13.378  0.2090  0.1898  0.2881
  610TIP3   OH223320   3.825   1.717  16.555 -0.2126  0.0912 -0.5071
  610TIP3    H123321   3.760   1.756  16.497 -0.6870 -1.6334 -1.2187
  610TIP3    H223322   3.890   1.678  16.495 -0.0203 -0.6079  0.1378
  611TIP3   OH223323   4.872   4.572   0.888  0.2813 -0.6341  0.5018
  611TIP3    H123324   4.859   4.506   0.956 -1.4702  0.5825  1.4538
  611TIP3    H223325   4.807   4.640   0.909  0.5869  0.3972 -1.6427
  612TIP3   OH223326   6.115   5.606  14.822  0.1246  0.3033 -0.4909
  612TIP3    H123327   6.179   5.643  14.882 -0.7661  0.3074  0.4760
  612TIP3    H223328   6.044   5.671  14.818  0.6660  0.8697 -2.4812
  613TIP3   OH223329   3.161   1.704   0.249  0.1583 -0.1432  0.3617
  613TIP3    H123330   3.068   1.680   0.249 -0.1630  0.9212 -1.1143
  613TIP3    H223331   3.188   1.694   0.158  1.2718  0.3701  0.6202
  614TIP3   OH223332   2.228   5.788   2.592 -0.2905  0.8528 -0.6226
  614TIP3    H123333   2.293   5.850   2.559 -1.0023  0.3036 -3.2849
  614TIP3    H223334   2.153   5.799   2.534 -2.1311  0.5391  1.5568
  615TIP3   OH223335   5.046   2.244  12.692 -0.1409 -0.1391  0.7654
  615TIP3    H123336   5.012   2.275  12.608 -1.1244  0.8678  1.5014
  615TIP3    H223337   5.139   2.265  12.690 -0.4263  1.2110  0.4865
  616TIP3   OH223338   1.178   1.218   4.515 -0.2857  0.2982 -0.0014
  616TIP3    H123339   1.227   1.185   4.591  1.1470 -1.4631 -1.5892
  616TIP3    H223340   1.102   1.160   4.509 -0.1469  0.1307 -0.1677
  617TIP3   OH223341   2.501   5.204   1.567  0.4062 -0.2975 -0.2144
  617TIP3    H123342   2.464   5.240   1.486 -0.7958  1.5615  1.0837
  617TIP3    H223343   2.530   5.281   1.616  1.3999 -1.4108  1.0081
  618TIP3   OH223344   5.331   6.034   0.443 -0.1145  0.6349  0.8685
  618TIP3    H123345   5.245   6.051   0.482 -0.2187 -0.5129  1.1885
  618TIP3    H223346   5.314   5.969   0.375  0.7398 -1.0982  2.2383
  619TIP3   OH223347   0.856   6.093   2.523  0.3056  0.1608  0.2400
  619TIP3    H123348   0.900   6.163   2.571  0.6515 -0.7031  1.2145
  619TIP3    H223349   0.911   6.078   2.446  0.6094  0.4786  0.3938
  620TIP3   OH223350   2.036   1.798   5.492 -0.0468 -0.2755  0.0051
  620TIP3    H123351   1.962   1.853   5.467 -0.7032 -0.6327  1.1022
  620TIP3    H223352   2.027   1.786   5.587 -0.2007 -2.6535 -0.2388
  621TIP3   OH223353   3.637   2.533   6.846  0.0504 -0.5864 -0.5258
  621TIP3    H123354   3.600   2.512   6.932  1.0023  0.1933  0.1013
  621TIP3    H223355   3.702   2.602   6.864  0.5630 -0.7007 -1.8111
  622TIP3   OH223356   0.484   4.757  16.734 -0.0254  0.0436  0.1091
  622TIP3    H123357   0.545   4.740  16.662 -0.3027  0.4226 -0.2194
  622TIP3    H223358   0.538   4.749  16.813  0.4300  0.2759 -0.1691
  623TIP3   OH223359   1.805   2.784   0.681  0.1314 -0.5530  0.2541
  623TIP3    H123360   1.763   2.832   0.752  2.6875  0.7771  1.0035
  623TIP3    H223361   1.754   2.806   0.603 -1.2710 -0.0553  1.2790
  624TIP3   OH223362   5.176   1.238   3.277 -0.8938  0.1277 -0.3200
  624TIP3    H123363   5.212   1.174   3.339  0.8524  1.3537 -0.0002
  624TIP3    H223364   5.111   1.188   3.226  0.2354 -1.8360  0.0659
  625TIP3   OH223365   1.807   2.648   3.309 -0.5992 -0.3729  0.1115
  625TIP3    H123366   1.800   2.559   3.343  0.1870 -0.5873 -0.2673
  625TIP3    H223367   1.764   2.645   3.223  0.0650 -0.5676 -0.2172
  626TIP3   OH223368   6.143   1.385   2.708  0.7728  0.0642  0.4064
  626TIP3    H123369   6.125   1.315   2.771  1.0836 -1.3861 -1.0258
  626TIP3    H223370   6.058   1.427   2.694  0.5549 -0.1010  1.2074
  627TIP3   OH223371   2.882   6.561   4.162 -0.0770  0.6896  0.2362
  627TIP3    H123372   2.970   6.594   4.146 -0.4065  1.5217  0.0980
  627TIP3    H223373   2.824   6.620   4.113 -0.8149  0.9842  1.4307
  628TIP3   OH223374   6.786   3.323   2.533 -0.0799  0.6688 -0.3750
  628TIP3    H123375   6.871   3.279   2.524 -0.4234 -0.4255  1.3840
  628TIP3    H223376   6.766   3.353   2.444  1.2041 -0.8096 -1.2253
  629TIP3   OH223377   0.593   1.639  14.735  0.0056 -0.5075  0.6128
  629TIP3    H123378   0.616   1.632  14.828  2.1366  2.3151  0.4299
  629TIP3    H223379   0.677   1.633  14.690 -0.6072  1.3235 -0.8587
  630TIP3   OH223380   1.107   4.464   4.887  0.2976 -0.0770  0.2131
  630TIP3    H123381   1.092   4.480   4.980 -0.8251 -0.4634  0.1181
  630TIP3    H223382   1.168   4.532   4.860 -0.5597  0.9941  0.8928
  631TIP3   OH223383   6.202   3.599   2.676  0.0266  0.3039  0.5946
  631TIP3    H123384   6.146   3.661   2.723 -1.2161 -0.6924  0.4843
  631TIP3    H223385   6.277   3.651   2.648 -0.6170  1.5808  1.1577
  632TIP3   OH223386   2.733   3.771   1.318  0.9116 -0.1312  0.1128
  632TIP3    H123387   2.785   3.849   1.302 -0.4954  0.7448 -0.4101
  632TIP3    H223388   2.668   3.799   1.383  0.2584 -0.8090 -0.2393
  633TIP3   OH223389   1.579   2.930   4.424 -0.2293 -0.1626 -0.0086
  633TIP3    H123390   1.624   2.944   4.341  1.1690  0.9220  0.8990
  633TIP3    H223391   1.555   2.837   4.422 -2.0130  0.2438 -2.4452
  634TIP3   OH223392   1.566   3.344   1.523 -0.0943 -0.2948 -0.1761
  634TIP3    H123393   1.627   3.271   1.537 -0.5511 -0.3166  2.1262
  634TIP3    H223394   1.491   3.323   1.580 -0.0696  2.1424  0.8643
  635TIP3   OH223395   3.249   3.703   5.536 -0.2450 -0.1873  0.1738
  635TIP3    H123396   3.246   3.607   5.533  0.1258 -0.1851 -0.2947
  635TIP3    H223397   3.340   3.725   5.520 -0.3595  0.2521  0.1102
  636TIP3   OH223398   4.815   1.232  10.574 -0.1121 -0.2122 -0.0467
  636TIP3    H123399   4.856   1.318  10.562  0.5782  0.1478  3.6526
  636TIP3    H223400   4.849   1.179  10.502  2.2729  1.6566 -0.4384
  637TIP3   OH223401   6.536   4.048   3.958 -0.0623  0.2869  0.3320
  637TIP3    H123402   6.560   3.959   3.933  0.7245  0.1815  1.3972
  637TIP3    H223403   6.602   4.103   3.915 -0.7471  0.4048 -0.6044
  638TIP3   OH223404   6.298   0.845  15.343  0.2137 -0.1647  0.4936
  638TIP3    H123405   6.347   0.776  15.387 -0.3880 -0.6463  0.4188
  638TIP3    H223406   6.351   0.866  15.266  0.3717 -0.5806  0.4867
  639TIP3   OH223407   6.520   1.443   0.347 -0.6883 -0.1783  0.4526
  639TIP3    H123408   6.612   1.416   0.348 -0.3430  0.9168 -0.5698
  639TIP3    H223409   6.520   1.530   0.309 -2.0557  0.2826  1.4042
  640TIP3   OH223410   0.603   2.783   4.956  0.2214  0.0555  0.1202
  640TIP3    H123411   0.625   2.769   5.049 -1.0701  0.3904  0.4966
  640TIP3    H223412   0.569   2.698   4.927  2.5192 -0.6716 -0.6544
  641TIP3   OH223413   5.914   5.739   3.509 -0.3311 -0.6055  0.1138
  641TIP3    H123414   6.000   5.707   3.538 -0.0642  0.2387  0.2732
  641TIP3    H223415   5.935   5.811   3.449 -0.9282 -0.6085 -0.1035
  642TIP3   OH223416   5.156   4.794  14.352  0.6122  0.2979  0.5002
  642TIP3    H123417   5.203   4.877  14.359  1.2634 -0.0980  0.8556
  642TIP3    H223418   5.155   4.759  14.441 -3.4162  1.9159  1.3096
  643TIP3   OH223419   1.480   3.902   5.533  0.1878 -0.0581 -0.1771
  643TIP3    H123420   1.524   3.848   5.599 -0.4010 -0.8114 -0.3810
  643TIP3    H223421   1.542   3.908   5.461  0.4148 -0.1336  0.0100
  644TIP3   OH223422   4.039   4.642   5.500 -0.4686 -0.1843 -0.3096
  644TIP3    H123423   4.040   4.609   5.589 -0.0530 -0.2063 -0.3186
  644TIP3    H223424   4.131   4.644   5.474 -0.5850 -0.1978 -0.7440
  645TIP3   OH223425   4.469   2.706  14.853  0.6387 -0.1623 -0.2225
  645TIP3    H123426   4.388   2.751  14.876 -0.1278 -1.0516 -1.1237
  645TIP3    H223427   4.530   2.777  14.832 -0.3480  0.4816 -0.9985
  646TIP3   OH223428   5.716   6.661  11.121  0.0455 -0.3144 -0.2638
  646TIP3    H123429   5.708   6.646  11.026 -4.0899 -0.4813 -0.0594
  646TIP3    H223430   5.694   6.577  11.160 -0.3265  0.2714  0.8197
  647TIP3   OH223431   4.329   0.803  12.831 -0.1029 -0.0567 -0.0537
  647TIP3    H123432   4.368   0.747  12.765  0.4125  0.8685 -0.5517
  647TIP3    H223433   4.404   0.839  12.879 -0.3635  1.1472 -0.5265
  648TIP3   OH223434   4.893   6.093  13.519  0.2200 -0.6580 -0.4353
  648TIP3    H123435   4.964   6.037  13.552 -0.8467 -1.2724  0.8880
  648TIP3    H223436   4.910   6.179  13.559 -0.5981 -1.1882  1.1168
  649TIP3   OH223437   2.654   2.874  11.190 -0.0424  0.0495 -0.0899
  649TIP3    H123438   2.676   2.784  11.169 -0.1610 -0.3091  1.2238
  649TIP3    H223439   2.620   2.911  11.108 -1.3180 -1.5014 -0.2955
  650TIP3   OH223440   0.621   4.091  13.995  0.2035 -0.3524 -0.4185
  650TIP3    H123441   0.653   4.134  13.916 -0.5122 -1.3785 -1.2956
  650TIP3    H223442   0.535   4.131  14.010  1.3408  1.6873  1.3686
  651TIP3   OH223443   5.556   4.071   5.551  0.1986  0.3362 -0.5950
  651TIP3    H123444   5.505   4.043   5.627  0.9677  0.0352 -0.1708
  651TIP3    H223445   5.548   4.167   5.551  1.6788  0.5351  1.0070
  652TIP3   OH223446   1.782   0.525  15.166 -0.1458  0.4755 -0.2544
  652TIP3    H123447   1.736   0.441  15.172  1.1448 -0.2125  0.3651
  652TIP3    H223448   1.871   0.506  15.196  0.0958  2.1339  0.1860
  653TIP3   OH223449   4.161   5.162  13.592  0.1123  0.0195  0.6841
  653TIP3    H123450   4.240   5.140  13.542  0.7826 -0.2659  1.8237
  653TIP3    H223451   4.121   5.077  13.611  1.3569 -0.1317  2.9519
  654TIP3   OH223452   3.489   1.988   1.481  0.3537  0.1327  0.0557
  654TIP3    H123453   3.406   1.939   1.481 -0.7056  1.8675  0.5577
  654TIP3    H223454   3.515   1.989   1.389 -1.7599  2.0709 -0.6030
  655TIP3   OH223455   2.446   0.953   0.782 -0.2707  0.2984 -0.8126
  655TIP3    H123456   2.534   0.976   0.754 -0.6587  1.1728 -1.3555
  655TIP3    H223457   2.448   0.963   0.877  1.0939 -2.8350 -0.3895
  656TIP3   OH223458   3.559   4.001  15.536 -0.0204  0.0903  0.3619
  656TIP3    H123459   3.520   3.957  15.461  0.1986  1.7624 -0.7808
  656TIP3    H223460   3.487   4.052  15.574  0.2290  0.4752  0.3284
  657TIP3   OH223461   3.904   3.094   0.052  0.1899  0.1696 -0.0438
  657TIP3    H123462   3.975   3.116  -0.009  1.5169 -0.2939  1.2772
  657TIP3    H223463   3.949   3.077   0.135 -1.5530  0.6272  1.0306
  658TIP3   OH223464   1.431   2.589  16.240 -0.3858 -0.4886 -0.4189
  658TIP3    H123465   1.414   2.496  16.222 -0.7995 -0.0591 -2.4454
  658TIP3    H223466   1.359   2.636  16.198 -0.7977  0.7447  1.5247
  659TIP3   OH223467   0.594   6.353  12.552 -0.2263 -0.0136 -0.4616
  659TIP3    H123468   0.595   6.346  12.647 -1.6540  0.2572 -0.4074
  659TIP3    H223469   0.564   6.442  12.535  0.0097 -0.0621 -1.1688
  660TIP3   OH223470   3.974   1.380   4.117 -0.3614  0.0434  0.3409
  660TIP3    H123471   4.053   1.336   4.088 -0.7771 -1.2094  1.0326
  660TIP3    H223472   3.911   1.367   4.046  0.0785  1.1874 -0.2843
  661TIP3   OH223473   3.173   2.081   3.750  0.1265  0.4021  0.7548
  661TIP3    H123474   3.213   2.167   3.753  0.4247  0.2519  1.0801
  661TIP3    H223475   3.138   2.074   3.661  0.8408  0.5212  0.4584
  662TIP3   OH223476   1.859   6.167   5.540 -0.0589 -0.1783 -0.1678
  662TIP3    H123477   1.835   6.244   5.488  0.7394 -0.5916 -1.1739
  662TIP3    H223478   1.785   6.107   5.530 -0.1994  0.0145 -0.2818
  663TIP3   OH223479   2.658   6.192  10.698  0.4986  0.2458 -0.3680
  663TIP3    H123480   2.596   6.211  10.628  2.3220  1.2999 -1.7922
  663TIP3    H223481   2.621   6.116  10.742 -2.2153  1.3215 -0.5709
  664TIP3   OH223482   3.590   3.432  13.222  0.2301 -0.0593 -0.1452
  664TIP3    H123483   3.517   3.405  13.277  1.2222  0.4224  1.4659
  664TIP3    H223484   3.659   3.369  13.241  0.5503  0.0229 -0.9858
  665TIP3   OH223485   5.013   6.256  16.412  0.3695  0.5149 -0.3212
  665TIP3    H123486   5.010   6.169  16.373  1.9383  0.3208 -0.0903
  665TIP3    H223487   4.935   6.300  16.380 -0.8286 -1.1989  0.1290
  666TIP3   OH223488   0.298   3.114  14.710 -0.1290 -0.1540  0.1949
  666TIP3    H123489   0.209   3.082  14.724 -0.2184  0.5296  1.3019
  666TIP3    H223490   0.326   3.145  14.796  1.1025 -0.1516 -0.1890
  667TIP3   OH223491   2.007   2.660  13.025 -0.3979  0.1485 -0.0841
  667TIP3    H123492   2.078   2.720  13.003 -0.1166 -0.6607 -1.5118
  667TIP3    H223493   2.034   2.619  13.108 -0.5788  1.9001  0.8889
  668TIP3   OH223494   0.489   4.245   0.432 -0.5248  0.0059 -0.3105
  668TIP3    H123495   0.490   4.339   0.414  0.4397  0.2371  0.7758
  668TIP3    H223496   0.558   4.210   0.376 -1.4889 -0.2091 -1.3839
  669TIP3   OH223497   3.724   0.925  12.366 -0.3091 -0.1086  0.1548
  669TIP3    H123498   3.797   0.864  12.364 -0.7216 -0.6573  0.9905
  669TIP3    H223499   3.682   0.909  12.451 -2.5428 -1.1907 -1.0561
  670TIP3   OH223500   5.582   0.871  14.856 -0.7276 -0.6077 -0.0970
  670TIP3    H123501   5.555   0.807  14.790 -0.9434 -2.8008  1.9706
  670TIP3    H223502   5.508   0.876  14.917 -0.0485  0.3391  0.6842
  671TIP3   OH223503   6.673   4.957   3.760 -0.0648  0.5853 -0.2160
  671TIP3    H123504   6.578   4.963   3.773 -0.1293  0.3194 -0.5501
  671TIP3    H223505   6.699   4.880   3.811 -0.3778 -0.7022 -1.8944
  672TIP3   OH223506   5.694   2.591   5.370  0.0253 -0.5915 -0.0658
  672TIP3    H123507   5.629   2.639   5.320 -2.5377 -3.3642  0.3318
  672TIP3    H223508   5.739   2.537   5.305 -0.6147 -1.3354  0.0988
  673TIP3   OH223509   5.650   6.008   4.902  0.1658  0.2698  0.3459
  673TIP3    H123510   5.626   6.076   4.839  0.3762  0.9380  0.9784
  673TIP3    H223511   5.745   6.017   4.912  0.5222 -1.4034 -1.0346
  674TIP3   OH223512   0.327   6.317   0.284 -0.2423 -0.1361  0.2995
  674TIP3    H123513   0.248   6.312   0.336  1.0527 -2.1617  2.2574
  674TIP3    H223514   0.367   6.401   0.308 -1.0167  0.2034  0.4353
  675TIP3   OH223515   3.861   0.576  10.420  0.5250  0.1412  0.0636
  675TIP3    H123516   3.841   0.517  10.492 -0.8657  1.3258  0.6891
  675TIP3    H223517   3.893   0.518  10.350 -0.6378 -1.3281  0.6907
  676TIP3   OH223518   5.712   5.080  14.044 -0.2116  0.0655  0.3561
  676TIP3    H123519   5.722   5.081  14.139  1.0775 -0.5593  0.2457
  676TIP3    H223520   5.621   5.052  14.029 -0.5846  0.6897  1.3983
  677TIP3   OH223521   4.328   0.209   2.879  0.0973  0.3609  0.0458
  677TIP3    H123522   4.276   0.261   2.939  2.2877  3.9064 -0.8551
  677TIP3    H223523   4.411   0.194   2.925  0.5615  0.1951 -0.8051
  678TIP3   OH223524   4.025   0.092  11.063 -0.3663  0.0231 -0.1000
  678TIP3    H123525   4.000   0.182  11.080  1.8271  0.2142  2.7710
  678TIP3    H223526   3.987   0.042  11.135 -3.2283 -1.8557 -2.6314
  679TIP3   OH223527   2.653   4.852  13.115 -0.5734 -0.3549  0.7710
  679TIP3    H123528   2.696   4.928  13.075 -0.3861 -1.2420 -0.8067
  679TIP3    H223529   2.716   4.821  13.181  0.1762 -0.2210  0.1407
  680TIP3   OH223530   0.777   3.138  14.097 -0.2754  0.9359 -0.1967
  680TIP3    H123531   0.740   3.060  14.137 -1.0467  2.0086  1.2745
  680TIP3    H223532   0.834   3.105  14.027 -0.9893 -0.8915  0.0440
  681TIP3   OH223533   5.310   5.423  13.658 -0.0653  0.4754 -0.7182
  681TIP3    H123534   5.257   5.374  13.722 -0.9552  0.8610 -1.1399
  681TIP3    H223535   5.314   5.365  13.582 -0.3726  0.6834 -0.8949
  682TIP3   OH223536   4.729   4.052  16.440 -0.2126 -0.1101 -0.2866
  682TIP3    H123537   4.823   4.067  16.428 -0.0315 -0.1798  0.8835
  682TIP3    H223538   4.714   3.967  16.398  0.5681 -0.8029  0.7550
  683TIP3   OH223539   0.353   5.442   2.208 -0.3722 -0.0361  0.2763
  683TIP3    H123540   0.266   5.406   2.191  0.3551 -1.4881 -0.5782
  683TIP3    H223541   0.374   5.492   2.129 -0.3674  0.1723  0.4093
  684TIP3   OH223542   6.647   5.545   2.307  0.0967 -0.5839 -0.4432
  684TIP3    H123543   6.701   5.622   2.287 -2.3947  2.0786  2.0002
  684TIP3    H223544   6.697   5.497   2.372  0.3402  0.9039  0.5230
  685TIP3   OH223545   6.017   3.859  10.724 -0.5600  0.4571  0.0701
  685TIP3    H123546   6.106   3.848  10.759 -0.8727  0.5268  0.8902
  685TIP3    H223547   5.969   3.784  10.757 -0.7523  0.2743 -0.5979
  686TIP3   OH223548   4.175   1.213  13.890 -0.3450  0.1680 -0.4031
  686TIP3    H123549   4.263   1.240  13.865 -0.4824  0.3895 -0.6622
  686TIP3    H223550   4.138   1.290  13.933 -0.5611  0.2199 -0.6816
  687TIP3   OH223551   1.321   2.438   5.291 -0.7418  0.5478 -0.0808
  687TIP3    H123552   1.281   2.447   5.378  0.0699 -0.4616  0.4222
  687TIP3    H223553   1.259   2.382   5.243 -1.3497  1.3677 -0.2668
  688TIP3   OH223554   3.229   3.424  14.200  0.5854  0.1074 -0.0309
  688TIP3    H123555   3.265   3.378  14.276  0.9386 -0.3487 -0.4599
  688TIP3    H223556   3.288   3.399  14.128 -0.5121 -0.5639 -0.7279
  689TIP3   OH223557   2.653   0.027  12.159  0.6626 -0.2527 -0.4380
  689TIP3    H123558   2.654   0.032  12.254  0.5249 -0.8005 -0.4084
  689TIP3    H223559   2.713   0.096  12.131  1.9290 -1.1239  0.0763
  690TIP3   OH223560   5.457   3.186  11.811  0.2263  0.4007  0.4389
  690TIP3    H123561   5.530   3.140  11.768  0.1351  1.5599 -1.0837
  690TIP3    H223562   5.457   3.273  11.769 -1.5905  0.6666  0.9162
  691TIP3   OH223563   6.471   3.400  16.685 -0.8033  0.1344 -0.4693
  691TIP3    H123564   6.484   3.474  16.744  1.4017  0.0291 -0.7695
  691TIP3    H223565   6.416   3.435  16.615  1.1048  1.8699 -1.1964
  692TIP3   OH223566   5.331   3.871  11.814  0.0571 -0.7166 -0.3536
  692TIP3    H123567   5.343   3.782  11.782 -1.1377 -0.3001 -2.1324
  692TIP3    H223568   5.401   3.884  11.879  0.8828 -2.5677 -0.8226
  693TIP3   OH223569   3.298   4.678   0.385 -0.1370  0.2053 -0.2212
  693TIP3    H123570   3.323   4.769   0.369 -2.0117  0.6233 -1.1280
  693TIP3    H223571   3.349   4.628   0.322  0.9555  0.6018  0.3209
  694TIP3   OH223572   6.752   5.904  12.387  0.0577 -0.5660  0.0537
  694TIP3    H123573   6.664   5.866  12.391 -0.5384  0.5491 -1.4589
  694TIP3    H223574   6.805   5.836  12.343 -1.2846  0.6054 -3.8396
  695TIP3   OH223575   4.862   6.643   5.648  0.5373 -0.1519 -0.0291
  695TIP3    H123576   4.925   6.610   5.584  0.0451 -0.6403 -0.2706
  695TIP3    H223577   4.894   6.613   5.732 -0.1160 -1.6272 -0.2769
  696TIP3   OH223578   4.787   0.157   5.133 -0.0051  0.4719 -0.3716
  696TIP3    H123579   4.817   0.196   5.215  0.3199 -3.0233  1.3654
  696TIP3    H223580   4.866   0.117   5.095 -0.8065 -1.3504 -0.2402
  697TIP3   OH223581   2.512   0.473  13.524  0.3075 -0.6604  0.1907
  697TIP3    H123582   2.605   0.497  13.526  0.2019 -0.1390 -0.8440
  697TIP3    H223583   2.468   0.547  13.565  0.2054 -0.1746 -0.7855
  698TIP3   OH223584   5.822   5.186  15.694  0.0174  0.4309 -0.5432
  698TIP3    H123585   5.729   5.205  15.705 -0.0570 -0.3940  0.4752
  698TIP3    H223586   5.832   5.164  15.602 -0.5753  1.6280 -0.9072
  699TIP3   OH223587   2.876   0.444  14.636 -0.1879  0.2156  0.5688
  699TIP3    H123588   2.904   0.464  14.725 -1.3067 -0.1476  1.0218
  699TIP3    H223589   2.939   0.380  14.604  1.2948  1.7104  0.4219
  700TIP3   OH223590   3.030   3.046  14.201 -0.1584 -0.6732 -0.5922
  700TIP3    H123591   3.014   3.106  14.274 -3.2642 -1.2650 -0.6828
  700TIP3    H223592   3.087   2.979  14.237  1.2740  0.8979  0.2257
  701TIP3   OH223593   4.245   6.233  12.744  0.0111 -0.2401 -0.2413
  701TIP3    H123594   4.297   6.241  12.664  0.9411  0.9908  0.4589
  701TIP3    H223595   4.158   6.263  12.719  0.1120 -0.5157 -0.9534
  702TIP3   OH223596   5.225   2.629  15.263 -0.1921  0.0703  0.2805
  702TIP3    H123597   5.245   2.625  15.170 -0.1370  0.4073  0.2780
  702TIP3    H223598   5.310   2.620  15.306 -0.3630 -1.5416  0.3361
  703TIP3   OH223599   0.612   1.861   1.376  0.3672  0.3432 -0.2607
  703TIP3    H123600   0.665   1.802   1.431  0.4777  0.7568  0.0845
  703TIP3    H223601   0.661   1.943   1.375  0.6109  0.1940 -1.3953
  704TIP3   OH223602   1.716   6.542   5.778 -0.2735 -0.2350 -0.0942
  704TIP3    H123603   1.782   6.587   5.830 -1.6853  0.5858  1.0681
  704TIP3    H223604   1.697   6.602   5.706  2.3505 -1.7604 -2.2534
  705TIP3   OH223605   5.496   4.621   2.384  0.0151  0.8424  0.0051
  705TIP3    H123606   5.550   4.661   2.451  0.8565 -0.1260 -0.0612
  705TIP3    H223607   5.449   4.693   2.343  0.4987  1.5850  0.7494
  706TIP3   OH223608   0.415   3.773   5.604  0.1699 -0.2976 -0.1914
  706TIP3    H123609   0.350   3.794   5.537  0.2782  1.0132  0.0972
  706TIP3    H223610   0.423   3.852   5.657  0.2647 -1.2222  1.2410
  707TIP3   OH223611   4.304   0.460  12.735 -0.1312  0.2109 -0.0927
  707TIP3    H123612   4.345   0.375  12.716  0.4973  0.4450  0.1815
  707TIP3    H223613   4.377   0.522  12.733 -0.5568  0.7101 -0.0723
  708TIP3   OH223614   1.683   2.438  12.756  0.4907 -0.3523  0.4110
  708TIP3    H123615   1.601   2.407  12.715  0.9099 -0.2392 -0.5431
  708TIP3    H223616   1.751   2.414  12.693  0.9598  1.4961  0.1717
  709TIP3   OH223617   4.165   5.446  13.537  0.3109 -0.2736 -0.6448
  709TIP3    H123618   4.144   5.353  13.548 -0.4485 -0.1374 -0.8766
  709TIP3    H223619   4.080   5.490  13.535  0.6634  0.7266  1.8152
  710TIP3   OH223620   6.544   1.421   2.484 -0.0501 -0.2505  0.2297
  710TIP3    H123621   6.448   1.423   2.491 -0.2142 -0.6103 -1.4678
  710TIP3    H223622   6.575   1.476   2.556 -1.5914  1.3329 -0.2581
  711TIP3   OH223623   4.566   2.400   6.357  0.5258 -0.4046  0.0371
  711TIP3    H123624   4.554   2.489   6.390 -3.1631  0.1807 -2.3036
  711TIP3    H223625   4.552   2.344   6.434 -2.5491  1.0097  0.6700
  712TIP3   OH223626   6.024   5.723   2.767  0.3672 -0.5752  0.3920
  712TIP3    H123627   6.010   5.673   2.687  2.3469  2.4597 -2.1119
  712TIP3    H223628   6.101   5.684   2.807  0.3743 -1.1150 -0.1311
  713TIP3   OH223629   5.509   2.443   3.880 -0.1713 -0.4938  0.1656
  713TIP3    H123630   5.527   2.452   3.787  1.7267 -0.4056  0.5143
  713TIP3    H223631   5.424   2.487   3.892  0.8411  2.0060 -1.0680
  714TIP3   OH223632   5.079   5.308  16.247 -0.1382  0.4495  0.0039
  714TIP3    H123633   5.077   5.339  16.156  1.1187  0.6616  0.0260
  714TIP3    H223634   5.108   5.383  16.297 -0.8299  0.3306  0.6006
  715TIP3   OH223635   6.796   4.563  13.556 -0.1640  0.6444 -0.4301
  715TIP3    H123636   6.883   4.535  13.526 -0.2899  0.7013 -0.8450
  715TIP3    H223637   6.735   4.502  13.514 -0.1532 -1.5228  2.3875
  716TIP3   OH223638   3.450   1.156   4.792  0.7470  0.1017 -0.1121
  716TIP3    H123639   3.383   1.195   4.735  0.2394 -0.4346  0.0980
  716TIP3    H223640   3.430   1.062   4.790  2.2035 -0.2154 -0.9454
  717TIP3   OH223641   6.100   2.547   0.293  0.7705  0.1599 -0.3363
  717TIP3    H123642   6.004   2.554   0.292  0.8524  2.1328 -2.1954
  717TIP3    H223643   6.117   2.459   0.259 -0.3801 -0.0737 -0.3712
  718TIP3   OH223644   5.699   6.624  16.677 -0.1028 -0.2656  0.0791
  718TIP3    H123645   5.790   6.601  16.697  0.2501  1.7214  1.0809
  718TIP3    H223646   5.672   6.560  16.612  2.9814  0.7004 -2.4467
  719TIP3   OH223647   1.013   2.772  15.376 -0.2120  0.2093 -0.0449
  719TIP3    H123648   1.042   2.844  15.432  1.9087  0.1150 -0.9160
  719TIP3    H223649   1.066   2.697  15.403 -1.0771 -0.5473 -0.3813
  720TIP3   OH223650   0.725   3.552  11.865  0.2524 -0.3502  0.1440
  720TIP3    H123651   0.771   3.598  11.936 -0.2458 -2.6700  2.1176
  720TIP3    H223652   0.749   3.600  11.786  3.1943  0.6780  1.5001
  721TIP3   OH223653   0.884   2.877   0.821 -0.2204  0.2213  0.4011
  721TIP3    H123654   0.800   2.884   0.867  0.5695 -1.3342  2.2677
  721TIP3    H223655   0.863   2.831   0.740 -1.4924  1.9298 -0.2819
  722TIP3   OH223656   6.002   5.641  13.642 -0.1743 -0.6388 -0.4917
  722TIP3    H123657   6.007   5.549  13.667  0.2794 -1.3913 -3.0725
  722TIP3    H223658   6.088   5.660  13.604  0.4224  1.4567  1.6422
  723TIP3   OH223659   2.977   1.658   3.370 -0.0549  0.2893 -0.4451
  723TIP3    H123660   2.919   1.584   3.386 -0.2916  0.0853 -2.0954
  723TIP3    H223661   2.966   1.714   3.447 -1.5690 -0.3089 -0.1955
  724TIP3   OH223662   0.070   0.434  15.514  0.1544 -0.0281  0.1157
  724TIP3    H123663   0.088   0.393  15.599 -0.1074  1.6777  1.0376
  724TIP3    H223664   0.003   0.378  15.474 -1.1713  0.1783  1.8980
  725TIP3   OH223665   2.823   6.070  12.143 -0.4706 -0.5138  0.0139
  725TIP3    H123666   2.884   6.027  12.083  1.1193  0.8600  0.5527
  725TIP3    H223667   2.867   6.069  12.228 -1.2459  0.4369  0.4548
  726TIP3   OH223668   2.438   4.415  11.967 -0.0216 -0.1544  0.1670
  726TIP3    H123669   2.511   4.468  12.001 -0.3506  0.0501  0.5572
  726TIP3    H223670   2.360   4.454  12.005 -0.1555 -2.1312  2.1623
  727TIP3   OH223671   1.306   4.596   2.454  0.5525 -0.2441  0.4444
  727TIP3    H123672   1.210   4.600   2.455  0.5165 -0.3783  2.9030
  727TIP3    H223673   1.334   4.685   2.435 -0.0610  0.0753  1.0254
  728TIP3   OH223674   1.922   2.516   5.759  0.4371 -0.3984 -0.8972
  728TIP3    H123675   1.958   2.526   5.848  0.0818 -2.4693 -0.4871
  728TIP3    H223676   1.827   2.518   5.771  0.3463  1.6436 -1.5677
  729TIP3   OH223677   3.528   5.182   5.623 -0.4971  0.2683 -0.0593
  729TIP3    H123678   3.591   5.209   5.557 -0.5877 -0.8762 -0.6319
  729TIP3    H223679   3.580   5.147   5.694 -0.4801 -0.6830 -0.5350
  730TIP3   OH223680   2.654   0.864   2.810 -0.1847 -0.4812 -0.4471
  730TIP3    H123681   2.716   0.914   2.757 -1.0601 -1.1528 -2.1821
  730TIP3    H223682   2.672   0.772   2.788 -1.3944 -0.7083 -0.5659
  731TIP3   OH223683   0.912   3.444  12.968  0.2734  0.1646  0.4581
  731TIP3    H123684   0.824   3.412  12.986  0.5879 -0.2691  1.2977
  731TIP3    H223685   0.900   3.514  12.904 -0.6047 -0.3753  0.0222
  732TIP3   OH223686   4.377   3.318  15.698 -0.3929  0.3849  0.2543
  732TIP3    H123687   4.443   3.255  15.668 -0.2258  0.8702 -0.4113
  732TIP3    H223688   4.314   3.323  15.627 -0.9541  0.2134  0.7319
  733TIP3   OH223689   1.043   0.345  10.615 -0.4803  0.5974 -0.0873
  733TIP3    H123690   1.048   0.309  10.703  0.6282  0.9589  0.0012
  733TIP3    H223691   0.968   0.405  10.617 -0.4901  0.5614  0.5819
  734TIP3   OH223692   3.080   2.926   3.507  0.2930  0.0136  0.1938
  734TIP3    H123693   3.049   2.933   3.417 -0.9631 -0.1367  0.5859
  734TIP3    H223694   3.101   2.834   3.518 -0.6500 -0.1918  0.3736
  735TIP3   OH223695   3.650   0.642  12.705  0.0377 -0.2048  0.1015
  735TIP3    H123696   3.607   0.571  12.658 -2.7718  0.8556  0.8707
  735TIP3    H223697   3.655   0.610  12.796  1.8253 -0.6771 -0.1265
  736TIP3   OH223698   1.121   5.998  12.961 -0.0426 -0.0903 -0.1286
  736TIP3    H123699   1.093   6.062  13.026  0.4681 -1.6779  1.7701
  736TIP3    H223700   1.211   6.024  12.938  0.6588 -0.8280  1.6413
  737TIP3   OH223701   1.736   5.274   5.605  0.5291  0.3374  0.1411
  737TIP3    H123702   1.658   5.316   5.571 -0.0860  0.1797  1.3015
  737TIP3    H223703   1.723   5.272   5.700  1.0333 -1.4396  0.2138
  738TIP3   OH223704   5.027   1.052   4.472 -0.4747 -0.2395  0.0636
  738TIP3    H123705   5.104   1.033   4.525  0.2468  1.4463 -0.3258
  738TIP3    H223706   4.955   1.006   4.516 -0.1616  2.0167  3.2200
  739TIP3   OH223707   5.543   2.674  15.267  0.3511  0.2528 -0.6884
  739TIP3    H123708   5.599   2.672  15.345  2.3059 -1.2903 -2.0163
  739TIP3    H223709   5.534   2.766  15.246  0.4267  0.6569  0.9071
  740TIP3   OH223710   5.661   6.597   2.958  0.0365 -0.7032 -0.3019
  740TIP3    H123711   5.617   6.549   3.028 -1.6218 -2.1480 -2.2315
  740TIP3    H223712   5.657   6.689   2.986 -0.3137 -1.2597  1.5901
  741TIP3   OH223713   5.501   1.006   4.651 -0.2921 -0.3985  0.3181
  741TIP3    H123714   5.592   0.976   4.660 -0.2273  0.3906  3.1148
  741TIP3    H223715   5.495   1.083   4.707 -2.1060  1.1081 -1.7390
  742TIP3   OH223716   1.737   4.873  15.086  0.0775  0.3262 -0.3674
  742TIP3    H123717   1.821   4.850  15.125  0.0191  0.4005 -0.1985
  742TIP3    H223718   1.704   4.945  15.140 -1.3827 -1.4676  1.2695
  743TIP3   OH223719   4.502   1.091   1.494  0.0757  0.0837 -0.1375
  743TIP3    H123720   4.549   1.057   1.570  1.3157 -0.0567 -0.9438
  743TIP3    H223721   4.560   1.075   1.420 -1.1847  0.0427 -1.1603
  744TIP3   OH223722   6.503   5.977   1.951  0.3377  0.1044  0.2157
  744TIP3    H123723   6.411   5.979   1.976  0.3144  3.8249  0.3961
  744TIP3    H223724   6.549   5.953   2.031 -0.3939 -1.6701  0.1519
  745TIP3   OH223725   6.627   0.691   1.425  0.2694 -0.1262 -0.7250
  745TIP3    H123726   6.556   0.644   1.467  0.1465  0.7315  0.0509
  745TIP3    H223727   6.584   0.756   1.370  0.4466 -0.3956 -1.1877
  746TIP3   OH223728   2.189   3.632   3.030  0.4461  0.1244 -0.3889
  746TIP3    H123729   2.112   3.621   3.085 -0.5852  2.1696 -1.2951
  746TIP3    H223730   2.160   3.607   2.942  0.4420  1.8538 -0.9247
  747TIP3   OH223731   6.739   0.462  14.236 -0.5304  0.0612  0.0009
  747TIP3    H123732   6.770   0.495  14.320 -0.4600 -0.7850  0.3213
  747TIP3    H223733   6.692   0.381  14.257  0.2472 -0.6398 -0.8576
  748TIP3   OH223734   0.230   1.058  13.108  1.0205 -0.4347  0.4860
  748TIP3    H123735   0.309   1.076  13.058  0.4278  0.8672 -0.0223
  748TIP3    H223736   0.253   1.081  13.198  1.0368  0.5434  0.2388
  749TIP3   OH223737   5.778   2.326   3.079 -0.0064  0.1899  0.5733
  749TIP3    H123738   5.683   2.320   3.064 -0.3809  1.3452  2.2535
  749TIP3    H223739   5.797   2.419   3.075  1.0530 -0.0237  0.3840
  750TIP3   OH223740   4.234   5.229   0.753 -0.3116 -0.4109 -0.1471
  750TIP3    H123741   4.305   5.258   0.696  0.0220  1.6722  1.2143
  750TIP3    H223742   4.157   5.225   0.695  0.8750 -2.9220 -1.6916
  751TIP3   OH223743   0.406   1.399  15.446  0.0159  0.1395 -0.4227
  751TIP3    H123744   0.409   1.363  15.535 -2.4778 -0.5159 -0.5341
  751TIP3    H223745   0.355   1.479  15.454  1.5532  1.2185 -0.9670
  752TIP3   OH223746   1.046   0.212   5.557 -0.0735 -0.2327  0.5398
  752TIP3    H123747   0.983   0.268   5.511 -0.7802 -1.7865 -0.4938
  752TIP3    H223748   1.110   0.187   5.490 -1.1612 -2.5983  0.2600
  753TIP3   OH223749   3.750   5.256   1.145 -0.3278  0.0951 -0.1749
  753TIP3    H123750   3.822   5.312   1.117  0.0720 -0.1481  0.3426
  753TIP3    H223751   3.753   5.181   1.086  0.5047 -0.4095  0.4878
  754TIP3   OH223752   2.464   5.039  16.125 -0.5110 -0.5464 -0.7590
  754TIP3    H123753   2.527   5.096  16.080 -0.5162  1.0519  1.1303
  754TIP3    H223754   2.395   5.098  16.154 -0.1215 -1.3269  1.9963
  755TIP3   OH223755   5.057   0.957   1.585 -1.1654  0.3100  0.7045
  755TIP3    H123756   5.078   0.896   1.656  0.8497 -0.6889 -0.6546
  755TIP3    H223757   5.078   0.909   1.505 -0.7562  2.3286 -0.4716
  756TIP3   OH223758   5.952   3.840  16.412 -0.5860 -0.2541  0.0605
  756TIP3    H123759   5.908   3.891  16.344 -1.4941 -0.5788  0.3933
  756TIP3    H223760   6.037   3.883  16.422  0.2407 -1.1397 -2.3728
  757TIP3   OH223761   4.664   1.994   1.808  0.4271  0.6126  0.0536
  757TIP3    H123762   4.621   1.993   1.723 -1.7675 -0.0322  1.1006
  757TIP3    H223763   4.638   1.912   1.850 -0.3480  1.8585  2.1637
  758TIP3   OH223764   1.660   4.829  13.168 -0.0824 -0.0271  0.4060
  758TIP3    H123765   1.639   4.881  13.090 -0.4924 -0.6707  0.0798
  758TIP3    H223766   1.678   4.741  13.134  1.4297  0.0700  0.8556
  759TIP3   OH223767   2.074   5.155  17.041  0.4482 -0.1179  0.6826
  759TIP3    H123768   2.129   5.174  16.965  2.3492 -1.5246  1.6175
  759TIP3    H223769   2.005   5.098  17.007  0.9456 -0.2759 -0.0848
  760TIP3   OH223770   6.636   3.050  12.017  0.7226 -0.0752 -0.1210
  760TIP3    H123771   6.696   3.093  12.078  0.8404  0.1940 -0.4199
  760TIP3    H223772   6.549   3.077  12.045  0.8436  1.6319 -1.2120
  761TIP3   OH223773   0.133   2.934  16.105 -0.0661 -0.5566 -0.3954
  761TIP3    H123774   0.053   2.984  16.123  1.0528  2.0899 -2.1331
  761TIP3    H223775   0.197   2.968  16.167  0.8427  0.7091 -1.9202
  762TIP3   OH223776   5.110   4.245  13.339  0.1208 -0.3917  0.2856
  762TIP3    H123777   5.133   4.280  13.425  2.4208  0.9085 -0.7746
  762TIP3    H223778   5.163   4.166  13.330 -0.3263 -0.6811  0.1414
  763TIP3   OH223779   5.264   5.114  15.610 -0.8355 -0.3615 -0.0455
  763TIP3    H123780   5.187   5.067  15.641 -1.6705  0.2355 -1.1282
  763TIP3    H223781   5.237   5.205  15.607 -0.6910 -0.3388 -2.0887
  764TIP3   OH223782   0.166   4.915   1.132 -0.0538 -0.4436 -0.1358
  764TIP3    H123783   0.238   4.949   1.080 -0.7252  1.0212 -0.1475
  764TIP3    H223784   0.103   4.883   1.067  0.5096 -1.6508 -0.1266
  765TIP3   OH223785   1.736   4.592  14.965  0.5501  0.2266 -0.3144
  765TIP3    H123786   1.669   4.602  14.897 -0.7798 -1.5231  0.6516
  765TIP3    H223787   1.733   4.674  15.014 -2.5069 -0.4990  1.0060
  766TIP3   OH223788   0.450   3.049  11.345 -0.3475  0.2624  0.6144
  766TIP3    H123789   0.419   3.035  11.435  0.7109 -2.5121  0.6467
  766TIP3    H223790   0.454   2.961  11.307 -0.9307  1.3588 -2.2543
  767TIP3   OH223791   2.535   4.028   3.057 -0.0093  0.6949 -0.0340
  767TIP3    H123792   2.505   3.941   3.083 -2.3187  2.0845  2.4920
  767TIP3    H223793   2.528   4.028   2.961 -1.9843 -1.2479  0.0340
  768TIP3   OH223794   5.920   2.615   3.969  0.4774 -0.1344  0.3640
  768TIP3    H123795   5.958   2.634   3.883 -0.4769 -0.4737 -0.1483
  768TIP3    H223796   5.996   2.596   4.025  1.1156  0.1667 -0.3788
  769TIP3   OH223797   2.614   5.529   2.223  0.0588 -0.1889  0.0294
  769TIP3    H123798   2.626   5.471   2.298 -1.1036 -2.2119 -1.2090
  769TIP3    H223799   2.700   5.535   2.182  0.0341 -1.9592 -0.3665
  770TIP3   OH223800   4.499   6.672  13.010 -0.6791  0.4007  0.3807
  770TIP3    H123801   4.552   6.735  13.058 -0.1053  1.2524 -1.2894
  770TIP3    H223802   4.409   6.701  13.023 -0.5537  0.4718  1.1196
  771TIP3   OH223803   0.760   6.297  17.115 -0.0793 -0.0174 -0.2380
  771TIP3    H123804   0.728   6.385  17.095  4.3184  1.0384 -4.6577
  771TIP3    H223805   0.708   6.240  17.060 -0.4437  0.3189 -0.2497
  772TIP3   OH223806   0.320   4.964  12.443 -0.0395  0.4396 -0.0837
  772TIP3    H123807   0.387   4.936  12.381 -0.5006 -1.4973  0.2405
  772TIP3    H223808   0.279   5.040  12.401 -0.0033 -0.5066 -1.9095
  773TIP3   OH223809   3.515   6.316   1.922  0.1567 -0.2884  0.4950
  773TIP3    H123810   3.471   6.272   1.850 -0.0774  0.2312  0.3105
  773TIP3    H223811   3.577   6.252   1.957  1.9640  0.1671 -1.6423
  774TIP3   OH223812   1.261   4.931   2.645  0.0982  0.1464 -0.6943
  774TIP3    H123813   1.302   4.858   2.691 -2.1053 -1.3998 -1.0425
  774TIP3    H223814   1.333   4.971   2.595  1.7939 -0.3870  1.1795
  775TIP3   OH223815   1.161   1.698  15.279  0.5166  0.2958  0.0250
  775TIP3    H123816   1.135   1.634  15.213 -0.9915 -0.2429  1.0849
  775TIP3    H223817   1.175   1.647  15.358  1.0792  1.0778  0.4514
  776TIP3   OH223818   3.750   0.131   5.306 -0.1316 -0.0056  0.1550
  776TIP3    H123819   3.658   0.116   5.326 -1.2620  1.1205 -3.4177
  776TIP3    H223820   3.789   0.043   5.309 -1.0026 -0.3755  2.7100
  777TIP3   OH223821   6.544   5.444  13.834 -0.4672  0.2071  0.4706
  777TIP3    H123822   6.470   5.460  13.776  1.1922  2.8654 -1.1338
  777TIP3    H223823   6.506   5.401  13.910 -3.2151 -0.8065 -1.3264
  778TIP3   OH223824   0.146   5.451  15.826 -0.6604  0.4187  0.6104
  778TIP3    H123825   0.150   5.518  15.758  1.8248 -0.0697  0.1961
  778TIP3    H223826   0.116   5.498  15.904 -1.1072  1.5163 -0.1923
  779TIP3   OH223827   5.529   5.222  16.521  0.3017  0.2749 -0.0521
  779TIP3    H123828   5.533   5.131  16.550  0.1054 -0.3538 -1.8610
  779TIP3    H223829   5.480   5.219  16.439  0.1428  2.0427 -0.0622
  780TIP3   OH223830   0.631   6.394  14.394 -0.2380  0.2799  0.0808
  780TIP3    H123831   0.648   6.447  14.471  0.1778  0.1732  0.0645
  780TIP3    H223832   0.709   6.339  14.385 -1.0388 -1.0018  0.6401
  781TIP3   OH223833   1.947   6.217   3.047 -0.0124 -0.7791 -0.2927
  781TIP3    H123834   1.883   6.230   2.978 -0.7302  2.4811  0.8073
  781TIP3    H223835   2.018   6.168   3.005 -0.6089  0.6613 -3.2463
  782TIP3   OH223836   3.325   0.342   3.496  0.3787 -0.6841  0.3506
  782TIP3    H123837   3.363   0.385   3.419 -1.5829 -0.0803 -0.3447
  782TIP3    H223838   3.384   0.270   3.514  1.5191 -0.1538 -1.0266
  783TIP3   OH223839   4.243   2.974  13.184  0.1350  0.1364  0.0270
  783TIP3    H123840   4.149   2.958  13.189  0.1176  0.4141  0.6370
  783TIP3    H223841   4.281   2.914  13.248  0.2894  0.6789  0.4491
  784TIP3   OH223842   4.586   6.472  10.669  0.4115 -0.8268 -0.5498
  784TIP3    H123843   4.629   6.555  10.688  0.1365 -0.7131 -0.4251
  784TIP3    H223844   4.500   6.479  10.711  0.3446 -1.1280 -0.6351
  785TIP3   OH223845   1.450   6.117  11.246  0.2301  0.1947 -0.2442
  785TIP3    H123846   1.449   6.173  11.168 -1.2303  0.3850 -0.1130
  785TIP3    H223847   1.441   6.178  11.320 -2.5832 -0.2055 -0.1517
  786TIP3   OH223848   6.533   0.727  11.587  0.4130 -0.1682  0.1941
  786TIP3    H123849   6.543   0.817  11.618 -0.4299 -0.2150  0.6391
  786TIP3    H223850   6.622   0.695  11.578  0.7158  0.5949  0.3923
  787TIP3   OH223851   0.542   2.731   0.067  1.3195  0.0567 -0.0921
  787TIP3    H123852   0.477   2.690   0.123 -0.1381  1.2554 -0.8164
  787TIP3    H223853   0.524   2.696  -0.021  0.3275  1.8083 -0.6421
  788TIP3   OH223854   3.539   1.910  13.527 -0.1498 -0.2959 -0.1477
  788TIP3    H123855   3.597   1.856  13.581  0.0268 -1.0335 -1.0328
  788TIP3    H223856   3.597   1.952  13.463 -0.1397  1.8357  1.1725
  789TIP3   OH223857   2.813   4.747   1.547  0.7322  0.2963  0.4033
  789TIP3    H123858   2.885   4.692   1.518  0.9561  2.0183 -2.7171
  789TIP3    H223859   2.737   4.717   1.498  0.3567  1.3103  0.3302
  790TIP3   OH223860   5.915   3.363  15.245  0.1361  0.1636  0.1848
  790TIP3    H123861   5.892   3.346  15.153 -0.8120  0.2737  0.3913
  790TIP3    H223862   5.835   3.344  15.293  0.0849  1.8176  0.8132
  791TIP3   OH223863   2.422   2.074   5.104  0.7415 -0.1780  0.2448
  791TIP3    H123864   2.345   2.073   5.048  0.0646 -1.5106  1.1451
  791TIP3    H223865   2.471   2.152   5.077 -0.5013  0.2373 -0.8907
  792TIP3   OH223866   6.443   1.501   3.831 -0.0851 -0.3710 -0.7560
  792TIP3    H123867   6.460   1.596   3.829  0.1793 -0.3326  1.3243
  792TIP3    H223868   6.445   1.475   3.739  1.4005  1.3717 -1.2831
  793TIP3   OH223869   0.777   5.578  11.173 -0.1427  0.3398  0.2146
  793TIP3    H123870   0.776   5.544  11.262  1.3193 -1.1210 -0.2740
  793TIP3    H223871   0.742   5.506  11.120  1.5407  0.1508 -0.6829
  794TIP3   OH223872   6.142   5.574  16.462  0.1790  0.3486 -0.0197
  794TIP3    H123873   6.094   5.558  16.543  3.2104 -0.0107  1.8781
  794TIP3    H223874   6.154   5.488  16.422 -1.7628  0.5813 -1.2158
  795TIP3   OH223875   5.753   5.672   5.265 -0.2930 -0.1592  0.0295
  795TIP3    H123876   5.725   5.756   5.230  0.7506  1.0945  2.0236
  795TIP3    H223877   5.757   5.615   5.188  0.6510  2.0675 -1.7086
  796TIP3   OH223878   2.502   3.919   1.294 -0.5318 -0.0899  0.1141
  796TIP3    H123879   2.581   3.927   1.241  0.8750 -0.0253  2.0900
  796TIP3    H223880   2.449   3.995   1.270 -0.3763 -0.5276 -1.7762
  797TIP3   OH223881   3.946   1.406  11.805  0.0043  0.4357  0.3997
  797TIP3    H123882   4.026   1.384  11.758 -0.1275 -0.1657  0.4445
  797TIP3    H223883   3.918   1.489  11.767  0.8770  0.8646  0.6849
  798TIP3   OH223884   5.059   4.095  13.892  0.3546  0.1173  0.6249
  798TIP3    H123885   5.088   4.005  13.875  1.3003  0.3665  0.8737
  798TIP3    H223886   4.982   4.085  13.948  1.0471 -0.5271  1.4951
  799TIP3   OH223887   2.715   4.007   5.233 -0.5055 -0.4963 -0.5124
  799TIP3    H123888   2.780   4.076   5.245 -0.8310 -0.3917  0.8020
  799TIP3    H223889   2.700   3.973   5.321 -1.5135 -1.1832 -0.9329
  800TIP3   OH223890   1.134   5.251   0.829 -0.0979 -0.3542  0.2981
  800TIP3    H123891   1.133   5.279   0.921 -1.8323 -1.4934  0.6673
  800TIP3    H223892   1.053   5.288   0.793 -0.2266 -1.2493 -0.3402
  801TIP3   OH223893   0.571   1.855   0.280 -1.0730  0.0050 -0.0650
  801TIP3    H123894   0.527   1.923   0.330 -1.7264  0.1091 -0.7692
  801TIP3    H223895   0.560   1.881   0.189 -1.4827 -1.1288 -0.3543
  802TIP3   OH223896   5.140   2.532  12.660 -0.0714 -0.0345  0.4358
  802TIP3    H123897   5.126   2.486  12.742 -0.4263  0.0367  0.4155
  802TIP3    H223898   5.229   2.509  12.634  0.3199  0.5407  1.2261
  803TIP3   OH223899   2.444   3.472   3.116 -0.0203  0.4703  0.0484
  803TIP3    H123900   2.402   3.391   3.086  0.4375  0.3469 -0.2703
  803TIP3    H223901   2.384   3.541   3.091  0.8033  0.4738 -2.1149
  804TIP3   OH223902   2.676   6.776   5.399  0.1156  0.0950 -0.3862
  804TIP3    H123903   2.739   6.757   5.330  0.2381  0.7603 -0.4644
  804TIP3    H223904   2.626   6.694   5.409  1.2620 -0.5731 -0.0151
  805TIP3   OH223905   5.912   0.428   2.860  0.0789 -0.7524  0.1957
  805TIP3    H123906   5.856   0.457   2.788  0.6886 -1.4767 -0.5934
  805TIP3    H223907   5.907   0.333   2.858  0.6778 -0.8033  0.6449
  806TIP3   OH223908   1.665   4.462   6.478  0.0578 -0.0937  0.0934
  806TIP3    H123909   1.755   4.489   6.463 -0.2232 -0.4299 -2.5774
  806TIP3    H223910   1.655   4.380   6.430 -0.9950 -1.5028  2.5202
  807TIP3   OH223911   1.264   4.885  14.248 -0.0549  0.2061 -0.0488
  807TIP3    H123912   1.282   4.837  14.166  0.1425  1.2468 -0.6278
  807TIP3    H223913   1.319   4.962  14.243 -0.9901  0.9257  0.4844
  808TIP3   OH223914   3.708   5.455   6.130  0.1756  1.4571 -0.3980
  808TIP3    H123915   3.789   5.481   6.172  1.2094 -1.9781  0.1090
  808TIP3    H223916   3.735   5.388   6.066 -2.2287 -0.1356  0.0999
  809TIP3   OH223917   4.256   1.356   5.794  0.4086  0.0358 -0.2148
  809TIP3    H123918   4.205   1.300   5.852 -0.0134 -1.0335 -1.5809
  809TIP3    H223919   4.335   1.306   5.774  0.9120  0.7122  0.0096
  810TIP3   OH223920   4.753   3.113  14.429 -0.2429  0.2325 -0.7889
  810TIP3    H123921   4.663   3.137  14.409 -0.0477  0.2573 -1.7083
  810TIP3    H223922   4.795   3.103  14.343  0.8738  1.1592 -0.3862
  811TIP3   OH223923   6.490   6.591  17.152 -0.0565  0.1664 -0.7160
  811TIP3    H123924   6.400   6.556  17.151  0.2012 -0.5928  0.3347
  811TIP3    H223925   6.539   6.531  17.096  0.6359 -2.0508  1.9971
  812TIP3   OH223926   5.031   5.554   1.002 -0.3416  0.1260 -0.0081
  812TIP3    H123927   4.973   5.617   1.044  0.2967  0.3499  0.5603
  812TIP3    H223928   5.101   5.607   0.963 -1.5898  0.0686 -2.5828
  813TIP3   OH223929   6.618   6.464   5.702 -0.3719  0.1071 -0.5333
  813TIP3    H123930   6.686   6.409   5.662 -2.0777 -0.9393 -2.1477
  813TIP3    H223931   6.641   6.464   5.796  2.4487  0.7486 -1.1262
  814TIP3   OH223932   2.878   3.884  11.499 -0.0794 -0.0869  0.3624
  814TIP3    H123933   2.801   3.930  11.465 -0.7167 -1.4129 -0.0459
  814TIP3    H223934   2.946   3.952  11.506 -0.0327  0.4073 -3.1214
  815TIP3   OH223935   0.550   5.637  14.029  0.4787  0.0129  0.4891
  815TIP3    H123936   0.515   5.721  14.000  0.8276  1.5455  4.0046
  815TIP3    H223937   0.473   5.589  14.062  0.4874 -0.4615 -0.1628
  816TIP3   OH223938   2.326   0.313  16.629  0.5700 -0.1045  0.2832
  816TIP3    H123939   2.252   0.259  16.602 -0.1719  0.7254  0.6004
  816TIP3    H223940   2.357   0.273  16.709  1.4493 -1.3488 -0.6438
  817TIP3   OH223941   3.093   4.186   1.212 -0.5599 -0.1472 -0.1546
  817TIP3    H123942   3.065   4.262   1.162 -0.0116  0.3325  0.2552
  817TIP3    H223943   3.094   4.216   1.303  0.3902 -0.4167 -0.0666
  818TIP3   OH223944   3.270   1.844  15.766  0.3543  0.0484  0.0167
  818TIP3    H123945   3.211   1.906  15.808 -2.7806 -3.0333  0.6434
  818TIP3    H223946   3.252   1.852  15.672 -0.3656 -0.1534  0.1298
  819TIP3   OH223947   3.950   2.230   1.179  0.1286 -0.4048 -0.2057
  819TIP3    H123948   3.911   2.143   1.185 -0.2924 -0.2930 -1.1305
  819TIP3    H223949   4.017   2.232   1.247 -1.0104 -0.8444  0.9568
  820TIP3   OH223950   5.410   4.798   3.413  0.2594 -0.2491 -0.7855
  820TIP3    H123951   5.357   4.861   3.462 -0.9558 -2.9516  1.6827
  820TIP3    H223952   5.349   4.727   3.392  1.7941 -1.1396 -2.4508
  821TIP3   OH223953   1.440   3.202  11.213 -0.0295 -0.1422 -0.2339
  821TIP3    H123954   1.404   3.113  11.220 -0.7702  0.0905 -0.9608
  821TIP3    H223955   1.483   3.216  11.297 -0.0671 -1.1177 -0.0343
  822TIP3   OH223956   0.693   5.082   0.854 -0.0362  0.0199 -0.4077
  822TIP3    H123957   0.724   5.128   0.932  2.1686 -2.0357  0.0571
  822TIP3    H223958   0.680   5.151   0.789 -0.5920  1.6395  1.3422
  823TIP3   OH223959   0.287   3.162   4.704  0.5033  0.0419 -0.1458
  823TIP3    H123960   0.315   3.150   4.613  1.4351 -1.0476  0.2504
  823TIP3    H223961   0.335   3.094   4.753 -2.6374 -1.7808  0.6806
  824TIP3   OH223962   6.302   6.694   1.543  0.4584 -0.2523 -0.1794
  824TIP3    H123963   6.393   6.726   1.543  0.8084 -1.2097  0.2178
  824TIP3    H223964   6.289   6.659   1.631 -0.4666  0.3001 -0.0799
  825TIP3   OH223965   1.221   0.768  14.961  0.5883  0.2843 -0.0902
  825TIP3    H123966   1.282   0.839  14.979 -3.0368  3.9141 -0.5618
  825TIP3    H223967   1.216   0.764  14.866  0.8619 -0.7273 -0.0669
  826TIP3   OH223968   4.341   4.859  11.480 -0.2389 -0.1544 -0.0230
  826TIP3    H123969   4.325   4.770  11.513 -0.6061  0.5888  1.8988
  826TIP3    H223970   4.416   4.890  11.532  1.2383 -0.0371 -2.1027
  827TIP3   OH223971   0.786   5.506   0.347 -0.4093 -0.4578 -0.1149
  827TIP3    H123972   0.824   5.419   0.364  0.6691  0.2626  1.3608
  827TIP3    H223973   0.733   5.524   0.425  1.2994  1.1881  0.7504
  828TIP3   OH223974   4.147   4.473  10.805 -0.1768  0.6158  0.2714
  828TIP3    H123975   4.181   4.552  10.763  0.7049 -0.2130 -0.6312
  828TIP3    H223976   4.054   4.472  10.782  0.5410 -0.5876 -3.0940
  829TIP3   OH223977   0.528   4.722   3.075  0.2718  0.2666  0.2460
  829TIP3    H123978   0.612   4.747   3.036 -0.3413  0.1372 -1.2145
  829TIP3    H223979   0.462   4.767   3.023 -0.6100 -0.2506  0.8778
  830TIP3   OH223980   2.785   4.633   0.657 -0.3105 -0.2092  0.0850
  830TIP3    H123981   2.838   4.590   0.590 -0.1107  0.1613  0.0019
  830TIP3    H223982   2.750   4.711   0.613 -1.4490 -0.7882 -0.0563
  831TIP3   OH223983   2.982   6.344   1.834  0.4140  0.7285  0.0625
  831TIP3    H123984   3.033   6.287   1.777 -1.4929 -0.9087 -0.1391
  831TIP3    H223985   3.045   6.406   1.869  3.0499 -2.4551  1.5220
  832TIP3   OH223986   5.086   0.794  15.795  0.1726  0.9452 -0.4148
  832TIP3    H123987   5.048   0.720  15.843  1.2646  2.3973  2.9828
  832TIP3    H223988   5.116   0.756  15.713 -0.0208 -2.2428  0.8392
  833TIP3   OH223989   1.791   3.593  13.542  0.2788 -0.1983  0.0754
  833TIP3    H123990   1.697   3.597  13.560  0.3107 -0.9410  0.4263
  833TIP3    H223991   1.803   3.516  13.487  0.3867  1.1990 -2.0018
  834TIP3   OH223992   3.169   0.882  16.493  0.2297 -0.3623 -0.6334
  834TIP3    H123993   3.256   0.856  16.525 -0.4988  0.6014  2.4893
  834TIP3    H223994   3.112   0.809  16.515 -0.3558  0.4560  0.6392
  835TIP3   OH223995   0.976   0.138  12.366  0.3904  0.3021 -0.1676
  835TIP3    H123996   1.012   0.226  12.355  2.6492 -0.7565 -1.8597
  835TIP3    H223997   0.972   0.103  12.277  1.2897 -1.9558  0.6274
  836TIP3   OH223998   3.845   6.084  15.386  0.0331  0.2889  0.1441
  836TIP3    H123999   3.821   6.062  15.296 -0.6787  0.1874  0.3548
  836TIP3    H224000   3.860   6.000  15.428  0.0759  0.3223  0.1958
  837TIP3   OH224001   6.451   3.002   0.296  0.3085  0.1060 -0.1602
  837TIP3    H124002   6.363   2.969   0.281 -0.3536  1.9681 -0.5522
  837TIP3    H224003   6.439   3.093   0.322  2.2027  1.0299 -2.1935
  838TIP3   OH224004   5.518   4.794   1.473  0.1361  0.0244 -0.0345
  838TIP3    H124005   5.450   4.861   1.482  0.0637 -0.1968  1.2666
  838TIP3    H224006   5.482   4.717   1.517  0.4091 -0.7366 -1.1124
  839TIP3   OH224007   0.862   5.385   5.089 -0.1010  0.6304 -0.6205
  839TIP3    H124008   0.840   5.295   5.069 -1.8583  1.0387 -0.6355
  839TIP3    H224009   0.820   5.402   5.173  0.0764  1.4752 -0.6912
  840TIP3   OH224010   3.442   0.343  12.850  0.3048  0.1695 -0.1029
  840TIP3    H124011   3.396   0.425  12.837 -1.2584 -0.2620  2.0888
  840TIP3    H224012   3.436   0.327  12.944 -0.0468 -2.7775 -0.5304
  841TIP3   OH224013   3.257   5.615   4.744 -0.1885  0.2142  0.6343
  841TIP3    H124014   3.200   5.552   4.701 -0.5893  0.9536  0.0476
  841TIP3    H224015   3.342   5.571   4.750 -0.9991 -1.2033  2.2540
  842TIP3   OH224016   1.002   0.585   2.505  0.1347 -0.1113 -0.1137
  842TIP3    H124017   1.009   0.650   2.575  0.2082  0.3743 -0.5662
  842TIP3    H224018   1.091   0.551   2.494  0.6029  1.4797 -1.5354
  843TIP3   OH224019   0.659   3.806  15.886  0.7114 -0.5657 -0.8004
  843TIP3    H124020   0.706   3.887  15.864  1.0356 -0.0375  1.4701
  843TIP3    H224021   0.570   3.835  15.906  0.7964 -0.7616 -0.0951
  844TIP3   OH224022   4.384   6.558   5.862  0.5615 -0.3226  0.2344
  844TIP3    H124023   4.475   6.556   5.890  0.3214  3.3626  1.9726
  844TIP3    H224024   4.385   6.611   5.782  0.0461 -1.0558 -0.2593
  845TIP3   OH224025   1.062   4.048   3.753 -0.3365 -0.3095 -0.1647
  845TIP3    H124026   1.123   4.006   3.815 -0.2687 -0.6845 -0.4816
  845TIP3    H224027   0.976   4.015   3.779 -0.2884 -0.6121 -0.3827
  846TIP3   OH224028   0.609   5.701   0.498  0.1452  0.2088 -0.3591
  846TIP3    H124029   0.616   5.791   0.464 -2.2350  1.1256  1.3294
  846TIP3    H224030   0.525   5.669   0.464 -0.5710 -0.1497  1.5925
  847TIP3   OH224031   5.284   3.063   5.066  0.6011 -0.7322 -0.2050
  847TIP3    H124032   5.368   3.096   5.034  1.0997 -1.5489  0.2216
  847TIP3    H224033   5.236   3.040   4.987 -0.0650  1.6503 -0.5601
  848TIP3   OH224034   6.722   2.674  11.830 -0.7291 -0.3143 -0.3496
  848TIP3    H124035   6.758   2.588  11.850  0.6618  0.6635  1.5807
  848TIP3    H224036   6.783   2.712  11.767 -0.0031  0.1593  0.6166
  849TIP3   OH224037   3.732   3.075  16.279  0.3277  0.0030  0.2501
  849TIP3    H124038   3.753   3.165  16.304 -1.0774 -0.1252  2.1131
  849TIP3    H224039   3.693   3.037  16.358  0.3016 -2.0536 -0.6948
  850TIP3   OH224040   5.897   3.283   2.863 -0.2324 -0.5363  0.4592
  850TIP3    H124041   5.970   3.255   2.807  0.1236 -0.0015  0.6535
  850TIP3    H224042   5.938   3.332   2.934 -0.5616 -2.2001  1.8641
  851TIP3   OH224043   6.103   4.977  16.225 -0.6980  0.2870 -0.0815
  851TIP3    H124044   6.167   4.997  16.294 -2.4046  3.9723  0.6614
  851TIP3    H224045   6.039   4.921  16.267 -0.9129  1.2591  0.9306
  852TIP3   OH224046   0.995   4.630   2.416  0.5116 -0.2990  0.3077
  852TIP3    H124047   0.927   4.566   2.438  0.2834  0.1423  0.9118
  852TIP3    H224048   0.946   4.706   2.384  0.7048  0.0816  0.9001
  853TIP3   OH224049   2.378   2.488  14.074  0.5677  0.0227  0.1111
  853TIP3    H124050   2.341   2.453  13.994  0.9974 -2.2218  0.8303
  853TIP3    H224051   2.319   2.559  14.099 -1.2327 -1.1522 -0.6314
  854TIP3   OH224052   2.891   2.016   2.793 -0.3585 -0.0221  0.5022
  854TIP3    H124053   2.817   2.077   2.791 -1.0767 -0.8128  1.6045
  854TIP3    H224054   2.963   2.068   2.828 -0.5368  0.5991 -0.0214
  855TIP3   OH224055   0.163   4.743  14.175  0.0855 -0.3101 -0.4293
  855TIP3    H124056   0.198   4.803  14.109 -0.7910  1.1376  0.3566
  855TIP3    H224057   0.126   4.671  14.125 -0.6321  0.7948 -1.5521
  856TIP3   OH224058   2.584   2.684   3.106 -0.2817 -0.7873 -0.3555
  856TIP3    H124059   2.605   2.777   3.103  0.9524 -1.0412 -0.1112
  856TIP3    H224060   2.666   2.640   3.083 -0.8641 -1.8121 -0.5304
  857TIP3   OH224061   5.055   1.316   2.707 -0.0557  0.4429  0.4592
  857TIP3    H124062   5.120   1.248   2.689 -0.9760 -0.3259 -0.0766
  857TIP3    H224063   5.105   1.398   2.706  1.1735 -0.2490  1.6512
  858TIP3   OH224064   2.943   0.078   4.378 -0.4226  0.0930  0.1292
  858TIP3    H124065   2.941   0.146   4.310 -1.0659  0.6195  0.6526
  858TIP3    H224066   3.030   0.040   4.372  0.0250  1.1114 -0.0491
  859TIP3   OH224067   0.494   6.121  15.581  0.0806 -0.6195  0.0247
  859TIP3    H124068   0.433   6.084  15.645  0.1587 -0.5369  0.1462
  859TIP3    H224069   0.453   6.203  15.553  0.1039 -0.5960  0.0590
  860TIP3   OH224070   1.637   0.819   4.733  0.0973 -0.0995  0.5191
  860TIP3    H124071   1.642   0.801   4.827 -0.8263 -1.2806  0.3699
  860TIP3    H224072   1.682   0.745   4.692 -0.7253 -0.3300 -0.0056
  861TIP3   OH224073   2.882   0.226   6.068 -0.4533 -0.4339 -0.1894
  861TIP3    H124074   2.960   0.279   6.051 -2.1055  2.6186  0.8676
  861TIP3    H224075   2.895   0.193   6.157 -0.9054  1.3167  0.5823
  862TIP3   OH224076   3.721   4.211   2.612 -0.1222 -0.1625 -0.0735
  862TIP3    H124077   3.812   4.197   2.587  0.6841  3.6583  0.1040
  862TIP3    H224078   3.671   4.196   2.531  0.6366 -2.0165 -0.2379
  863TIP3   OH224079   6.198   6.080  16.319 -0.1726  0.2935  0.4167
  863TIP3    H124080   6.134   6.076  16.390  1.0851 -0.5886  1.5391
  863TIP3    H224081   6.230   6.170  16.320 -1.3043  0.7265 -0.1127
  864TIP3   OH224082   3.381   5.887  10.332 -0.3482  0.0715  0.3491
  864TIP3    H124083   3.340   5.804  10.308 -0.3061  0.2581 -0.4104
  864TIP3    H224084   3.384   5.886  10.428 -2.7035  0.3032  0.4931
  865TIP3   OH224085   3.420   3.540  11.594 -0.6770  0.3701 -0.1135
  865TIP3    H124086   3.398   3.623  11.639  1.4188  0.1220  1.5207
  865TIP3    H224087   3.512   3.526  11.615 -1.4518 -3.4602  1.5015
  866TIP3   OH224088   4.872   0.200   3.630 -0.8974  0.1978  0.3470
  866TIP3    H124089   4.830   0.158   3.556 -1.0020 -0.5518  0.8268
  866TIP3    H224090   4.852   0.293   3.620 -0.3281  0.1944 -0.9345
  867TIP3   OH224091   3.223   5.780  14.772  0.3705  0.0929 -0.4929
  867TIP3    H124092   3.146   5.773  14.829  0.3884 -2.3273 -0.6442
  867TIP3    H224093   3.216   5.704  14.714  1.4301  1.3560 -2.3879
  868TIP3   OH224094   0.530   5.445  13.201 -0.4304 -0.8820  0.0298
  868TIP3    H124095   0.493   5.403  13.123 -0.5123  0.6788 -0.8040
  868TIP3    H224096   0.608   5.490  13.170 -0.7581  0.2149  0.7462
  869TIP3   OH224097   5.941   5.444  12.769  0.0160 -0.4652 -0.1913
  869TIP3    H124098   5.904   5.358  12.785 -0.6336 -0.6715 -2.3944
  869TIP3    H224099   5.933   5.490  12.852 -0.1371 -2.3250  0.8730
  870TIP3   OH224100   1.293   3.745  13.202 -0.2253 -0.1219  0.7123
  870TIP3    H124101   1.281   3.819  13.143 -0.2566  0.4160  1.3801
  870TIP3    H224102   1.205   3.712  13.218 -0.3969  0.8376  1.8396
  871TIP3   OH224103   2.552   0.432   3.071 -0.4703  0.1090  0.4726
  871TIP3    H124104   2.531   0.512   3.119  0.7282  0.2022  0.8734
  871TIP3    H224105   2.501   0.438   2.991 -0.7691  1.0446  0.7225
  872TIP3   OH224106   2.640   5.795  13.616 -0.2937  0.5275  0.2248
  872TIP3    H124107   2.556   5.824  13.582 -0.0504  2.6880  1.3071
  872TIP3    H224108   2.621   5.766  13.705 -0.2889 -1.5420 -0.3909
  873TIP3   OH224109   4.167   0.510  16.950  0.3225  1.0367  0.0686
  873TIP3    H124110   4.243   0.537  16.899 -0.3983  1.7792 -0.6238
  873TIP3    H224111   4.099   0.493  16.886  0.5023 -1.7677  0.5118
  874TIP3   OH224112   4.566   4.742   4.414  0.1794 -0.1713  0.0475
  874TIP3    H124113   4.496   4.776   4.358 -2.3354 -4.3112  0.2370
  874TIP3    H224114   4.601   4.667   4.366  1.2904 -0.9458  1.9459
  875TIP3   OH224115   2.970   2.392   2.783  0.2657 -0.3112  0.4130
  875TIP3    H124116   2.968   2.445   2.863 -1.5199 -3.8399  2.9998
  875TIP3    H224117   3.051   2.342   2.789  0.9598  0.5918 -0.9620
  876TIP3   OH224118   0.801   0.752  14.926 -0.0268  0.6149  0.3942
  876TIP3    H124119   0.811   0.810  14.851  2.2786 -0.5845 -0.3251
  876TIP3    H224120   0.828   0.805  15.001  0.2917  1.0298 -0.0093
  877TIP3   OH224121   1.755   6.724   2.603 -0.5607 -0.0880  0.0310
  877TIP3    H124122   1.681   6.775   2.570 -0.6363 -0.3192 -0.1619
  877TIP3    H224123   1.718   6.672   2.675 -0.8208 -0.9126 -0.6694
  878TIP3   OH224124   3.632   0.686  11.623 -0.2780  0.1746  0.2467
  878TIP3    H124125   3.552   0.652  11.584  0.0479  1.0155 -1.2314
  878TIP3    H224126   3.602   0.736  11.699 -1.2418  0.9635 -0.6183
  879TIP3   OH224127   0.861   1.728   4.940 -0.7335 -0.1898  0.2944
  879TIP3    H124128   0.873   1.639   4.908 -2.7734 -0.3260 -0.2229
  879TIP3    H224129   0.822   1.775   4.866 -0.2830  0.9734  0.7699
  880TIP3   OH224130   4.451   5.648   4.998 -0.2856 -0.0816  0.6346
  880TIP3    H124131   4.462   5.576   5.059 -0.2960  0.3471  1.1527
  880TIP3    H224132   4.358   5.646   4.974  0.0855 -1.3816 -0.8128
  881TIP3   OH224133   1.157   1.091  13.098  0.3495  0.2721  0.1564
  881TIP3    H124134   1.114   1.070  13.015  1.8417 -1.5011 -0.2454
  881TIP3    H224135   1.162   1.008  13.144  3.9639  0.1358 -0.2022
  882TIP3   OH224136   2.732   1.430  14.108 -0.3903 -0.1892 -0.4423
  882TIP3    H124137   2.665   1.454  14.043 -2.8024 -0.3041  1.8341
  882TIP3    H224138   2.735   1.335  14.104 -1.5499 -0.2866  0.4886
  883TIP3   OH224139   4.190   6.357   5.341 -0.0007  0.4735 -0.1895
  883TIP3    H124140   4.242   6.413   5.398 -0.3671  0.9627 -0.3329
  883TIP3    H224141   4.254   6.299   5.300  0.1735 -0.5240  1.4122
  884TIP3   OH224142   5.207   3.509   3.869 -0.2781 -0.2067 -0.1668
  884TIP3    H124143   5.288   3.515   3.920  0.1895 -0.1368 -0.8932
  884TIP3    H224144   5.140   3.546   3.926  0.3794  0.6231  0.0909
  885TIP3   OH224145   1.688   5.970   1.960 -0.3838  0.0596  0.0582
  885TIP3    H124146   1.663   6.062   1.954 -0.0686  0.0889 -0.9996
  885TIP3    H224147   1.778   5.968   1.926 -0.9399 -0.8555 -1.4381
  886TIP3   OH224148   4.327   2.836   1.819 -0.6122 -0.5961  0.0433
  886TIP3    H124149   4.290   2.776   1.754 -0.2603  0.0004 -0.7251
  886TIP3    H224150   4.259   2.845   1.885 -0.8442 -1.4865 -0.0538
  887TIP3   OH224151   1.823   1.113  13.048  0.4100 -0.0101 -0.3744
  887TIP3    H124152   1.793   1.203  13.038  0.1373 -0.1360 -0.7167
  887TIP3    H224153   1.746   1.065  13.079  1.2402  0.3766  2.5418
  888TIP3   OH224154   0.702   3.487  13.641 -0.2368  0.3488  0.2752
  888TIP3    H124155   0.736   3.456  13.557  0.1375 -0.2148  0.6318
  888TIP3    H224156   0.743   3.430  13.706  0.4544  1.5571  0.9434
  889TIP3   OH224157   6.007   0.004  13.825  0.0363 -0.7962 -0.6084
  889TIP3    H124158   6.078  -0.025  13.768  0.0404 -0.7223 -0.6408
  889TIP3    H224159   5.987  -0.073  13.879  1.9527 -0.0631  1.2919
  890TIP3   OH224160   4.641   5.613  13.604 -0.3845 -0.0382  0.7130
  890TIP3    H124161   4.693   5.668  13.546 -1.0881 -0.8592 -0.7539
  890TIP3    H224162   4.551   5.637  13.586 -0.6009  0.1037  1.9244
  891TIP3   OH224163   4.145   6.083  11.176 -0.0108  0.5869  0.0110
  891TIP3    H124164   4.123   5.997  11.140  0.4245 -0.2488  1.6740
  891TIP3    H224165   4.239   6.091  11.163 -0.1131  1.0094 -0.5111
  892TIP3   OH224166   0.056   4.720   2.904 -0.0469  0.1265  0.1761
  892TIP3    H124167   0.036   4.631   2.932  1.5380 -1.0902 -2.2300
  892TIP3    H224168  -0.027   4.754   2.871 -0.3357 -1.0917 -0.4057
  893TIP3   OH224169   3.617   5.694   4.571 -0.0800 -0.1516  0.3192
  893TIP3    H124170   3.573   5.628   4.626 -0.3239 -0.8537 -0.7012
  893TIP3    H224171   3.653   5.757   4.634  0.1471 -1.2472  1.3193
  894TIP3   OH224172   1.144   3.562  16.073 -1.0518 -0.4768 -0.0760
  894TIP3    H124173   1.173   3.576  15.982 -0.3502 -1.4213 -0.0099
  894TIP3    H224174   1.092   3.483  16.070 -1.0505 -0.4956  0.3398
  895TIP3   OH224175   1.010   5.237  14.535  0.0965  0.4134  0.2258
  895TIP3    H124176   1.059   5.201  14.461 -0.8660  0.9009 -0.6881
  895TIP3    H224177   1.013   5.169  14.601 -2.9912 -2.2001 -1.9847
  896TIP3   OH224178   3.159   1.260   4.100 -0.4740  0.5303 -0.0898
  896TIP3    H124179   3.092   1.267   4.033 -0.1676  0.9358 -0.3621
  896TIP3    H224180   3.112   1.241   4.181 -0.7817 -0.7985 -0.5654
  897TIP3   OH224181   3.382   4.340   3.741 -0.0615  0.2032  0.1649
  897TIP3    H124182   3.382   4.427   3.701  2.2617 -0.2324 -0.9535
  897TIP3    H224183   3.373   4.280   3.667 -0.7659 -0.5583  0.8485
  898TIP3   OH224184   5.883   4.097  10.671 -0.2278 -0.5258 -0.2639
  898TIP3    H124185   5.937   4.020  10.685 -1.7672 -1.6606 -0.2789
  898TIP3    H224186   5.814   4.067  10.612 -1.2460  0.6844  0.2630
  899TIP3   OH224187   0.512   0.383  13.126 -0.1125  0.6059  0.3037
  899TIP3    H124188   0.590   0.359  13.176  0.1528 -0.3972 -0.5436
  899TIP3    H224189   0.543   0.448  13.063 -0.4125  1.7439  1.2849
  900TIP3   OH224190   6.739   0.813  11.230  0.6185  0.0179  0.9765
  900TIP3    H124191   6.772   0.850  11.311  0.9833  1.1774  0.3289
  900TIP3    H224192   6.693   0.886  11.188 -0.0990 -0.7285  0.4274
  901TIP3   OH224193   0.412   4.112  16.912  0.1011  0.0344 -0.0266
  901TIP3    H124194   0.449   4.097  16.999 -1.1169 -0.8317  0.3642
  901TIP3    H224195   0.488   4.118  16.855  0.9223  0.5158  1.0706
  902TIP3   OH224196   4.016   2.899  11.956  0.1266  0.6578 -0.2958
  902TIP3    H124197   4.111   2.909  11.957  0.2961 -0.5376 -1.4564
  902TIP3    H224198   4.000   2.822  11.901 -1.4695  0.2689  0.6225
  903TIP3   OH224199   2.645   3.491  12.239  0.2284 -0.5489 -0.1192
  903TIP3    H124200   2.710   3.423  12.227  0.5384 -0.0277 -1.6697
  903TIP3    H224201   2.620   3.516  12.150  1.3193  2.4643  0.2940
  904TIP3   OH224202   1.156   2.298  15.619  0.3687  0.3390  0.0807
  904TIP3    H124203   1.246   2.289  15.649  0.2339 -0.8535  0.1591
  904TIP3    H224204   1.117   2.362  15.679  1.0194  0.4872  0.3487
  905TIP3   OH224205   1.659   6.522  15.569  0.1588 -0.1009  0.9239
  905TIP3    H124206   1.714   6.566  15.502  1.1318 -2.4797  0.0610
  905TIP3    H224207   1.590   6.586  15.588  1.4798  1.8004 -0.2341
  906TIP3   OH224208   1.352   6.765  13.361 -0.1738 -0.5360  0.1227
  906TIP3    H124209   1.262   6.734  13.372  0.2957 -1.8036  0.6894
  906TIP3    H224210   1.391   6.754  13.448 -0.0637  2.1200  0.4733
  907TIP3   OH224211   5.415   3.875  16.056 -0.4220  0.5366 -0.2768
  907TIP3    H124212   5.358   3.928  15.999 -1.4248  0.6500  0.7907
  907TIP3    H224213   5.504   3.896  16.027 -0.8268  2.2220 -0.3959
  908TIP3   OH224214   0.502   1.436   4.246 -0.2748 -0.3546  0.0740
  908TIP3    H124215   0.491   1.493   4.322  1.3983 -1.8653  1.5483
  908TIP3    H224216   0.499   1.347   4.282  2.6565 -1.1014 -1.2331
  909TIP3   OH224217   3.476   0.274  15.658  0.4936  0.5634 -0.2878
  909TIP3    H124218   3.493   0.351  15.603  0.1566 -0.1657 -1.4540
  909TIP3    H224219   3.381   0.265  15.657  0.4866  0.5256  0.4131
  910TIP3   OH224220   5.565   1.367   1.054 -0.1037 -0.0414 -0.1650
  910TIP3    H124221   5.593   1.289   1.103  0.6078 -0.2801 -0.9235
  910TIP3    H224222   5.486   1.339   1.008  0.8943 -0.7789 -1.5145
  911TIP3   OH224223   0.812   6.173  12.523 -0.2425 -0.1948 -0.3520
  911TIP3    H124224   0.752   6.108  12.560 -1.4551 -1.0447 -3.4934
  911TIP3    H224225   0.754   6.243  12.492  0.6832  0.3897 -0.7898
  912TIP3   OH224226   0.703   1.067   5.352 -0.6453 -0.3851  0.0909
  912TIP3    H124227   0.654   1.023   5.421 -0.7266 -0.6349 -0.1234
  912TIP3    H224228   0.666   1.155   5.347 -0.1704 -0.1374  0.8413
  913TIP3   OH224229   1.295   1.882   3.872 -0.1005  0.2000  0.0266
  913TIP3    H124230   1.286   1.927   3.788 -0.3476  0.8183  0.3773
  913TIP3    H224231   1.207   1.850   3.892  0.1921 -1.0298 -0.5291
  914TIP3   OH224232   1.656   5.703   2.514 -0.0755  0.4819  0.3575
  914TIP3    H124233   1.614   5.742   2.438 -0.6975  2.0826  1.4795
  914TIP3    H224234   1.594   5.716   2.586  0.5667 -0.8255  1.2113
  915TIP3   OH224235   2.428   2.475   3.013  0.7117  0.5560 -0.4230
  915TIP3    H124236   2.481   2.518   3.079  1.7744  0.2149 -1.0327
  915TIP3    H224237   2.489   2.454   2.943 -0.5152  1.6761 -1.9175
  916TIP3   OH224238   1.862   6.108  11.583 -0.3796 -0.5803 -0.3230
  916TIP3    H124239   1.947   6.068  11.599 -0.8182 -0.8744  1.4240
  916TIP3    H224240   1.809   6.038  11.545 -0.1838 -0.7144 -0.3510
  917TIP3   OH224241   2.496   3.894  11.568 -0.7113 -0.0438 -0.7632
  917TIP3    H124242   2.569   3.953  11.548 -0.0630  0.3308  2.2527
  917TIP3    H224243   2.527   3.808  11.543  0.7411  0.1378  0.3206
  918TIP3   OH224244   2.098   1.648  11.228  0.2599  0.2235  0.0047
  918TIP3    H124245   2.180   1.695  11.211 -0.2455  0.7223 -1.1870
  918TIP3    H224246   2.092   1.584  11.156  0.1823 -0.6311  0.7568
  919TIP3   OH224247   6.656   2.833   2.118 -0.5725 -0.1376 -0.8931
  919TIP3    H124248   6.626   2.742   2.123  0.4811 -0.4473  0.2684
  919TIP3    H224249   6.731   2.830   2.058  2.2704 -0.9146  2.4339
  920TIP3   OH224250   5.757   0.059   4.759 -0.1201 -0.1057  0.0786
  920TIP3    H124251   5.812   0.136   4.744  0.1874 -0.5506 -1.2553
  920TIP3    H224252   5.808  -0.014   4.723 -0.8848 -0.7766  0.3133
  921TIP3   OH224253   2.536   5.859  14.870  0.0551 -0.2071  0.1876
  921TIP3    H124254   2.567   5.770  14.890  0.1722  0.2915  2.5467
  921TIP3    H224255   2.451   5.865  14.913 -0.8317  0.2774 -1.5238
  922TIP3   OH224256   6.267   6.570   2.345  0.2322 -0.1014 -0.0513
  922TIP3    H124257   6.234   6.514   2.415 -1.0244 -1.5657 -1.7313
  922TIP3    H224258   6.233   6.657   2.367 -0.3754 -0.5831  1.0101
  923TIP3   OH224259   1.323   5.816   5.778  0.5634  0.2545 -0.2814
  923TIP3    H124260   1.281   5.859   5.852  1.1289  1.3275 -0.5594
  923TIP3    H224261   1.417   5.821   5.797  0.7879  1.4150 -1.4777
  924TIP3   OH224262   1.057   4.108   4.347  0.1581 -0.2130  0.4174
  924TIP3    H124263   0.978   4.146   4.387 -0.1316 -0.7405  0.3513
  924TIP3    H224264   1.025   4.061   4.270  0.5373 -0.4415  0.3967
  925TIP3   OH224265   6.626   2.725  14.647 -0.7757  0.1762  0.2445
  925TIP3    H124266   6.658   2.751  14.733  0.0663  0.7300 -0.2162
  925TIP3    H224267   6.543   2.773  14.637  0.3293  2.1182 -0.2327
  926TIP3   OH224268   2.748   3.720  15.022 -0.3670 -0.0860 -0.7758
  926TIP3    H124269   2.839   3.731  14.992  0.9416  0.8380  2.9465
  926TIP3    H224270   2.741   3.627  15.041 -0.7995 -0.4508 -2.5635
  927TIP3   OH224271   4.072   4.940   1.619  0.2875  0.5886 -0.3341
  927TIP3    H124272   4.153   4.925   1.572 -0.4978 -0.7922 -1.3032
  927TIP3    H224273   4.004   4.940   1.552 -0.7291 -0.2570  0.6371
  928TIP3   OH224274   6.099   1.355  11.334 -1.0246 -0.0995 -0.5468
  928TIP3    H124275   6.091   1.378  11.427  0.3724  0.4575 -0.5420
  928TIP3    H224276   6.018   1.309  11.314 -1.6610  0.3858  0.7738
  929TIP3   OH224277   3.669   1.303   2.520 -0.1192 -1.0319 -0.5659
  929TIP3    H124278   3.686   1.219   2.477  0.0357 -0.4751 -1.6321
  929TIP3    H224279   3.747   1.355   2.501 -0.6154 -0.3361 -0.7156
  930TIP3   OH224280   0.998   2.997  13.391  0.2947  0.2759 -0.2539
  930TIP3    H124281   0.985   2.903  13.401  2.7010 -0.0040  0.8748
  930TIP3    H224282   1.012   3.009  13.297 -0.4287 -0.3949 -0.4648
  931TIP3   OH224283   6.403   2.855   3.673 -0.0444 -0.5165  0.3822
  931TIP3    H124284   6.480   2.880   3.724  0.5186 -0.2460 -0.5644
  931TIP3    H224285   6.375   2.936   3.630 -2.3904 -0.0462  2.6210
  932TIP3   OH224286   0.564   5.857   4.339  0.3427  0.2246 -0.2755
  932TIP3    H124287   0.589   5.909   4.415  1.4640  0.5353 -0.8389
  932TIP3    H224288   0.468   5.853   4.342  0.2742  1.8033  0.1103
  933TIP3   OH224289   2.059   1.850   2.336 -0.2556 -0.1163 -0.2435
  933TIP3    H124290   1.969   1.825   2.359 -0.3428  0.1107 -0.3344
  933TIP3    H224291   2.061   1.945   2.348 -0.2222 -0.0327 -0.9106
  934TIP3   OH224292   0.468   4.945   4.664  0.6663 -0.0379 -0.5753
  934TIP3    H124293   0.557   4.933   4.632  1.1065  0.9387  0.2365
  934TIP3    H224294   0.431   5.013   4.607  0.6578  0.0289 -0.4896
  935TIP3   OH224295   3.302   2.951   5.144 -0.9052  0.5796 -0.2879
  935TIP3    H124296   3.259   3.036   5.149  0.6410  1.4140 -0.5096
  935TIP3    H224297   3.271   2.912   5.063 -0.8114  1.4162 -0.7366
  936TIP3   OH224298   1.264   4.951  12.527 -0.2852  0.3174 -0.0932
  936TIP3    H124299   1.193   5.016  12.528 -0.0946  0.5579 -1.1187
  936TIP3    H224300   1.266   4.917  12.616 -0.4962  1.6074  0.4249
  937TIP3   OH224301   3.493   4.908   5.361 -0.1531 -0.4855 -0.1503
  937TIP3    H124302   3.400   4.919   5.380 -0.7582 -1.8131 -2.0731
  937TIP3    H224303   3.496   4.884   5.269  2.0586 -1.1764  0.0510
  938TIP3   OH224304   1.918   3.272  15.426 -0.1793 -0.2147  0.0266
  938TIP3    H124305   1.990   3.267  15.362  0.5214 -0.8790  0.8408
  938TIP3    H224306   1.961   3.258  15.511 -1.2435 -0.4075  0.5466
  939TIP3   OH224307   3.586   1.790  13.233  0.0942 -0.4703  0.2275
  939TIP3    H124308   3.520   1.844  13.278 -0.6046  0.3324 -1.6760
  939TIP3    H224309   3.558   1.700  13.249 -0.3785 -0.1922  1.0206
  940TIP3   OH224310   3.162   6.035  12.126 -0.1917  0.0154  0.6578
  940TIP3    H124311   3.186   6.100  12.192  0.4969  0.8594 -0.3883
  940TIP3    H224312   3.199   5.952  12.159  1.3397  0.6761  0.6875
  941TIP3   OH224313   3.844   4.473   0.952  0.4809  0.1728  0.0562
  941TIP3    H124314   3.781   4.465   1.023  0.9796 -1.9274  0.3336
  941TIP3    H224315   3.845   4.566   0.931 -0.3045  0.7316  2.2233
  942TIP3   OH224316   0.191   2.415   3.843  0.3213  0.2800 -0.5664
  942TIP3    H124317   0.256   2.375   3.784 -0.7352 -0.0307 -1.5645
  942TIP3    H224318   0.111   2.421   3.790 -1.1856 -1.5636  1.2954
  943TIP3   OH224319   4.337   6.630   4.717  0.2847 -0.0397  0.4018
  943TIP3    H124320   4.338   6.552   4.773 -1.2946 -0.7637 -0.5103
  943TIP3    H224321   4.409   6.617   4.656  1.8460  0.6145  1.9893
  944TIP3   OH224322   1.794   2.284  13.237  0.1611 -0.3076  0.1633
  944TIP3    H124323   1.761   2.370  13.212 -0.6066 -0.8068 -0.5923
  944TIP3    H224324   1.821   2.295  13.328  0.9302  0.9643 -0.1860
  945TIP3   OH224325   5.345   1.351   3.991 -0.3758  0.3805  0.5884
  945TIP3    H124326   5.311   1.287   3.929 -0.5244 -0.2444  1.2951
  945TIP3    H224327   5.351   1.432   3.941  1.2202 -0.5074 -0.7357
  946TIP3   OH224328   1.007   4.191   5.463 -0.0794 -0.3106 -0.3057
  946TIP3    H124329   1.013   4.265   5.523 -2.2295 -1.7054  1.7540
  946TIP3    H224330   1.027   4.115   5.517  1.1806 -1.3939 -2.1808
  947TIP3   OH224331   3.884   6.801  13.344  0.0369 -0.3146 -0.0117
  947TIP3    H124332   3.816   6.743  13.309  0.3317  0.7411 -2.5251
  947TIP3    H224333   3.838   6.883  13.361  0.1506 -0.4497  1.0155
  948TIP3   OH224334   3.650   4.352   3.747  0.1267  0.3291  0.1489
  948TIP3    H124335   3.674   4.407   3.822 -0.7382  2.1302 -0.8262
  948TIP3    H224336   3.564   4.316   3.769 -0.5220  1.5436 -0.2727
  949TIP3   OH224337   0.472   0.889   0.997 -0.0232  0.0106  0.6406
  949TIP3    H124338   0.535   0.953   1.029 -0.6902  0.8726  0.2994
  949TIP3    H224339   0.522   0.808   0.987  0.8484  0.4827  1.0579
  950TIP3   OH224340   1.688   1.949  11.524  0.0802 -0.2815 -0.6970
  950TIP3    H124341   1.692   1.965  11.429  0.4264  0.7013 -0.5280
  950TIP3    H224342   1.618   1.885  11.535 -0.0084 -0.3548 -1.6086
  951TIP3   OH224343   5.881   2.708   6.346 -1.0370 -0.3382  0.3927
  951TIP3    H124344   5.898   2.749   6.262  1.1509  0.1205  1.0094
  951TIP3    H224345   5.835   2.626   6.324 -3.6367  1.3364 -0.9635
  952TIP3   OH224346   3.890   5.187  11.854 -0.4692 -0.5749 -0.4899
  952TIP3    H124347   3.875   5.248  11.782  0.9620 -1.8830 -1.9847
  952TIP3    H224348   3.822   5.208  11.918  0.7044  3.4516 -0.2875
  953TIP3   OH224349   6.054   2.301  11.722 -0.7776 -0.2954  0.0929
  953TIP3    H124350   5.976   2.292  11.668  0.4644 -0.5847 -1.7399
  953TIP3    H224351   6.092   2.385  11.696  1.1310 -1.5223 -1.3602
  954TIP3   OH224352   6.034   1.421   5.284 -0.7289  0.7489 -0.2508
  954TIP3    H124353   5.997   1.501   5.322  0.3081  1.9138 -1.5573
  954TIP3    H224354   5.975   1.399   5.212  0.6269  2.2414 -1.9273
  955TIP3   OH224355   6.794   5.758  14.891  0.7103  0.2525  0.4490
  955TIP3    H124356   6.828   5.836  14.847  1.3127 -0.3406 -0.1726
  955TIP3    H224357   6.730   5.791  14.954  1.4976  1.3009  0.7211
  956TIP3   OH224358   1.082   2.487  13.625  0.3025  0.4313  0.0151
  956TIP3    H124359   1.153   2.551  13.620 -0.1123  0.8289 -1.1164
  956TIP3    H224360   1.080   2.447  13.538  0.0022 -0.5362  0.4521
  957TIP3   OH224361   6.107   4.580   1.982 -0.2961  0.1050 -0.2655
  957TIP3    H124362   6.062   4.577   1.897  0.1118  1.5424 -0.5598
  957TIP3    H224363   6.181   4.638   1.968  0.0626 -0.0226  0.9654
  958TIP3   OH224364   3.408   0.483  11.620  0.1276 -0.4991 -0.1362
  958TIP3    H124365   3.367   0.487  11.706  2.4174  0.2025  1.0083
  958TIP3    H224366   3.343   0.520  11.560 -2.6351 -3.5788  0.7429
  959TIP3   OH224367   4.643   2.681   5.762  0.2138 -0.7201  0.1353
  959TIP3    H124368   4.678   2.770   5.751  1.9311 -1.4463 -0.5115
  959TIP3    H224369   4.583   2.689   5.836 -2.1066  1.6339 -1.8033
  960TIP3   OH224370   3.126   0.167   0.669  0.1688  0.1642  0.0225
  960TIP3    H124371   3.083   0.084   0.648 -1.5229  0.9826  0.1083
  960TIP3    H224372   3.181   0.148   0.745 -2.3313 -0.2891  1.8010
  961TIP3   OH224373   0.825   1.633  13.115 -0.1054  0.6058  0.1533
  961TIP3    H124374   0.811   1.596  13.028  0.3510  1.4921 -0.3075
  961TIP3    H224375   0.751   1.601  13.167 -0.4394  0.1603 -0.5811
  962TIP3   OH224376   5.911   1.370  14.940  0.1490 -0.5221  0.1492
  962TIP3    H124377   5.867   1.313  14.877  0.0141 -0.3718  0.1062
  962TIP3    H224378   5.929   1.314  15.015  1.9228 -1.1640 -0.7189
  963TIP3   OH224379   0.142   0.138  15.981  0.2684  0.3396  0.4716
  963TIP3    H124380   0.143   0.208  15.916  1.9696  0.4017  0.5147
  963TIP3    H224381   0.106   0.179  16.060  1.5996  1.3236  0.6131
  964TIP3   OH224382   2.984   4.911  17.144 -0.4129  0.0743  0.0486
  964TIP3    H124383   2.999   4.897  17.051  2.0713  2.0281  0.0495
  964TIP3    H224384   2.928   4.989  17.148 -0.8815 -0.2649  0.1993
  965TIP3   OH224385   1.437   5.971   4.560  0.6627  0.4419  0.1658
  965TIP3    H124386   1.521   6.001   4.592  0.5055  1.2080 -0.1151
  965TIP3    H224387   1.381   6.049   4.563 -0.5335 -0.4290  1.9692
  966TIP3   OH224388   6.589   1.927   4.034  0.1061  0.1764 -0.3663
  966TIP3    H124389   6.665   1.871   4.020  1.2905  2.1152 -2.1186
  966TIP3    H224390   6.625   2.012   4.059 -1.6486  0.1988  2.6844
  967TIP3   OH224391   2.827   1.815   0.363  0.0815  0.1851 -0.7275
  967TIP3    H124392   2.861   1.727   0.348  0.5111  0.5303 -1.8762
  967TIP3    H224393   2.739   1.813   0.325 -0.3441 -0.0450  0.2234
  968TIP3   OH224394   0.318   5.136  14.864 -0.2827  0.6002 -0.1939
  968TIP3    H124395   0.330   5.041  14.868  1.0115  0.7918  1.1001
  968TIP3    H224396   0.406   5.172  14.854 -0.8856  1.6424 -2.5032
  969TIP3   OH224397   4.548   2.212  14.437 -0.0656 -0.2415  0.4161
  969TIP3    H124398   4.492   2.141  14.404  0.4232 -1.0772  1.3551
  969TIP3    H224399   4.629   2.169  14.464  0.7868  0.8645 -0.2766
  970TIP3   OH224400   4.495   4.159   5.595 -0.2246 -0.7237 -0.1293
  970TIP3    H124401   4.518   4.244   5.558 -0.5000 -0.3983  0.4376
  970TIP3    H224402   4.426   4.126   5.539 -0.5733 -0.2746  0.0320
  971TIP3   OH224403   2.243   4.951   0.312 -0.4746  0.6913  0.0855
  971TIP3    H124404   2.286   4.877   0.270  0.2326 -0.0662  2.0077
  971TIP3    H224405   2.150   4.938   0.295 -0.2127  0.4167 -1.1824
  972TIP3   OH224406   5.105   6.203  11.773  0.0142  0.2573 -0.4741
  972TIP3    H124407   5.041   6.139  11.743 -0.2312  0.8018 -1.1338
  972TIP3    H224408   5.087   6.212  11.867 -0.4509 -0.0705 -0.5266
  973TIP3   OH224409   4.750   1.447   0.718  0.0142  0.1802  0.2225
  973TIP3    H124410   4.833   1.489   0.740  0.3526 -0.1869 -0.3280
  973TIP3    H224411   4.720   1.492   0.639  0.0550 -0.1725  0.0038
  974TIP3   OH224412   3.248   6.443   3.709 -0.0811  0.1171  0.2517
  974TIP3    H124413   3.292   6.389   3.775 -1.8180  0.1435  1.5126
  974TIP3    H224414   3.313   6.509   3.684  0.8585 -0.3249  1.4384
  975TIP3   OH224415   1.713   4.405   3.228  0.3300 -0.2374 -0.5549
  975TIP3    H124416   1.756   4.446   3.153  0.7684 -0.6779 -0.5510
  975TIP3    H224417   1.783   4.358   3.274 -0.0104 -0.3127 -0.1014
  976TIP3   OH224418   3.988   0.915   4.241  0.0774 -0.4186 -0.2432
  976TIP3    H124419   3.930   0.980   4.282 -1.1702 -2.7143  1.9654
  976TIP3    H224420   3.960   0.911   4.150  0.7083  2.5699 -0.6598
  977TIP3   OH224421   5.935   5.613  12.992  0.0665  0.1472  0.2709
  977TIP3    H124422   5.844   5.588  13.006 -1.1205  2.0185 -3.0524
  977TIP3    H224423   5.948   5.690  13.047  0.2413 -1.0452  1.9829
  978TIP3   OH224424   0.789   6.075   5.041 -0.3231  0.1466  0.5553
  978TIP3    H124425   0.739   6.052   5.119 -0.6960 -1.1506 -0.0462
  978TIP3    H224426   0.877   6.095   5.074 -0.6430  0.2407  1.3683
  979TIP3   OH224427   6.563   3.014  11.497  0.7635 -0.1695  0.2457
  979TIP3    H124428   6.643   2.984  11.454  0.0643 -1.8863  0.0501
  979TIP3    H224429   6.583   3.010  11.590  0.4017 -2.3436  0.2898
  980TIP3   OH224430   6.600   5.372   2.956 -0.0078 -0.0912  0.1825
  980TIP3    H124431   6.615   5.441   3.021  3.1608 -1.0097  0.5987
  980TIP3    H224432   6.588   5.292   3.008 -2.0477 -0.1744 -0.3341
  981TIP3   OH224433   0.187   3.049  11.528 -0.7713  0.2830 -0.1807
  981TIP3    H124434   0.247   2.977  11.510 -0.6109  0.4637 -0.3896
  981TIP3    H224435   0.229   3.097  11.600 -0.5228  0.5638 -0.5056
  982TIP3   OH224436   2.702   1.845  10.850 -0.1997  0.5925  0.5188
  982TIP3    H124437   2.618   1.845  10.896  0.3775 -1.2604  1.6862
  982TIP3    H224438   2.697   1.771  10.790 -0.0384  1.5507 -0.7124
  983TIP3   OH224439   0.875   0.266  11.395 -0.4538 -0.5111  0.7174
  983TIP3    H124440   0.800   0.270  11.454 -0.0882  1.1501  1.1225
  983TIP3    H224441   0.879   0.353  11.355  0.1184 -1.1850 -0.7495
  984TIP3   OH224442   0.004   5.638  11.873  0.1595  0.0767  0.2522
  984TIP3    H124443  -0.001   5.649  11.778  0.2827  0.3161  0.2714
  984TIP3    H224444  -0.082   5.605  11.898  0.0445  0.2488  0.0884
  985TIP3   OH224445   1.290   6.193  13.275  0.3165 -0.5049 -0.3093
  985TIP3    H124446   1.195   6.179  13.280  0.2612  0.3721  1.8624
  985TIP3    H224447   1.306   6.273  13.324  2.1291 -0.1943 -1.3021
  986TIP3   OH224448   4.630   4.030  12.434 -0.0669  0.3511 -0.2012
  986TIP3    H124449   4.548   4.028  12.484  0.2283 -0.8369  0.2675
  986TIP3    H224450   4.671   4.112  12.459 -0.1496  0.0028  1.1613
  987TIP3   OH224451   2.702   3.343  13.007  0.0026  0.3394 -0.1000
  987TIP3    H124452   2.795   3.332  13.025 -0.2120  0.1340  1.0166
  987TIP3    H224453   2.695   3.342  12.912  1.0776 -0.1281 -0.1919
  988TIP3   OH224454   6.209   0.600   4.605  0.8976  0.3120  0.0431
  988TIP3    H124455   6.214   0.692   4.580  1.9627  0.4251  0.6060
  988TIP3    H224456   6.253   0.596   4.690 -0.7249 -0.4179  0.9036
  989TIP3   OH224457   2.242   0.084  14.459  0.2950 -0.0462 -0.3062
  989TIP3    H124458   2.203   0.163  14.422  0.1375  0.4243  0.8188
  989TIP3    H224459   2.169   0.039  14.502  0.8095  0.5131  1.2523
  990TIP3   OH224460   3.569   1.951   4.161 -0.8045  0.0510 -0.3648
  990TIP3    H124461   3.546   1.930   4.070 -0.7952 -1.2384 -0.0888
  990TIP3    H224462   3.517   1.889   4.213 -0.0808  0.1277  0.4639
  991TIP3   OH224463   3.721   3.867   1.281  0.3838  0.0343 -0.1829
  991TIP3    H124464   3.718   3.954   1.319  0.0287  0.2085 -0.5963
  991TIP3    H224465   3.659   3.816   1.333 -3.4018  1.3137 -3.0033
  992TIP3   OH224466   0.499   1.667  11.057 -0.2750 -0.0725  0.0815
  992TIP3    H124467   0.569   1.690  10.996 -0.7333 -0.0384 -0.4450
  992TIP3    H224468   0.524   1.582  11.091 -0.9159 -0.9828 -1.5826
  993TIP3   OH224469   1.091   5.272  11.099 -0.1529 -0.1249  0.1607
  993TIP3    H124470   1.112   5.297  11.189  1.4727 -1.8996  0.3327
  993TIP3    H224471   1.026   5.203  11.109  0.1975 -0.4808 -0.0042
  994TIP3   OH224472   5.068   4.449  16.260 -0.7798  0.3088  0.6405
  994TIP3    H124473   5.025   4.432  16.343 -1.0244  0.4921  0.5544
  994TIP3    H224474   4.998   4.482  16.203 -0.4499  0.9899  0.6216
  995TIP3   OH224475   2.561   1.820  15.801  0.6230  0.2015  0.5013
  995TIP3    H124476   2.536   1.898  15.751  1.4386  0.6581  0.7833
  995TIP3    H224477   2.492   1.811  15.867  0.4663  0.6301  0.4017
  996TIP3   OH224478   2.677   2.044  14.053 -0.4580  0.1565 -0.0909
  996TIP3    H124479   2.644   2.016  13.967 -0.1921 -3.0938  0.7391
  996TIP3    H224480   2.601   2.080  14.098 -1.2650 -0.7679 -0.6832
  997TIP3   OH224481   5.337   3.337   0.243 -0.0974  0.0706 -0.4163
  997TIP3    H124482   5.359   3.283   0.167  0.8359  0.9451 -0.7957
  997TIP3    H224483   5.350   3.279   0.318 -0.2416 -0.5670 -0.8733
  998TIP3   OH224484   0.288   2.450   4.330 -0.3580 -0.0920 -0.5819
  998TIP3    H124485   0.239   2.445   4.248 -0.4646 -0.9631 -0.4787
  998TIP3    H224486   0.380   2.458   4.304 -0.5035  1.1113 -0.7760
  999TIP3   OH224487   1.449   5.925  14.191 -0.2771 -0.1327  0.1607
  999TIP3    H124488   1.544   5.928  14.195 -0.2821  0.8022 -0.1514
  999TIP3    H224489   1.424   6.010  14.154 -1.2838  0.0173  1.1418
 1000TIP3   OH224490   4.338   3.175  10.824  0.0670  0.0511  0.2025
 1000TIP3    H124491   4.334   3.270  10.835  0.4822 -0.0341  1.2166
 1000TIP3    H224492   4.307   3.160  10.735 -0.7173  1.0787  0.2797
 1001TIP3   OH224493   5.741   5.304   5.302 -0.0148  0.3126  0.1547
 1001TIP3    H124494   5.649   5.325   5.289 -0.7235 -2.6222 -0.5090
 1001TIP3    H224495   5.785   5.342   5.226 -1.1710 -0.4982 -0.9912
 1002TIP3   OH224496   4.807   0.931  15.845 -0.1563  0.2389  0.2404
 1002TIP3    H124497   4.896   0.931  15.881  0.3420  0.5453 -0.9593
 1002TIP3    H224498   4.785   0.838  15.837  1.1307  0.0571 -1.9661
 1003TIP3   OH224499   5.091   6.658  12.620  0.8979  0.5677  0.1323
 1003TIP3    H124500   5.128   6.667  12.533 -0.3089  1.6090 -0.3117
 1003TIP3    H224501   5.124   6.575  12.653 -0.8820 -1.3001 -2.4456
 1004TIP3   OH224502   0.133   2.157   2.929 -0.0512  0.0370 -0.1311
 1004TIP3    H124503   0.162   2.197   2.847  1.6381 -0.7164  0.0638
 1004TIP3    H224504   0.038   2.171   2.930  0.1836  2.0404 -1.1140
 1005TIP3   OH224505   5.438   5.236   5.739  0.6124 -1.1287  0.1053
 1005TIP3    H124506   5.361   5.213   5.790 -0.0733 -1.0193 -0.8556
 1005TIP3    H224507   5.425   5.328   5.716  1.9855 -0.5121  1.5695
 1006TIP3   OH224508   3.482   2.538  12.135  0.2323  0.5526 -0.7089
 1006TIP3    H124509   3.493   2.456  12.184  0.7606  0.1330 -1.5154
 1006TIP3    H224510   3.508   2.517  12.046 -1.2431  1.1796 -1.3067
 1007TIP3   OH224511   2.082   5.615  11.270 -0.3704 -0.2083  0.3529
 1007TIP3    H124512   2.170   5.653  11.269  0.1671 -1.4279  0.2416
 1007TIP3    H224513   2.029   5.678  11.319  0.7535  0.1241  1.1620
 1008TIP3   OH224514   0.519   2.141  10.559 -0.2159  0.5049 -0.5382
 1008TIP3    H124515   0.564   2.206  10.613  0.3550 -0.5166  0.2443
 1008TIP3    H224516   0.567   2.144  10.476  0.1101  0.7472 -0.3472
 1009TIP3   OH224517   3.527   1.146   3.073  0.4515 -0.0941 -0.8081
 1009TIP3    H124518   3.564   1.232   3.055  1.2051 -0.3825 -0.6645
 1009TIP3    H224519   3.595   1.084   3.045  0.2005 -0.6277 -0.2562
 1010TIP3   OH224520   4.573   2.955  13.398  0.1007 -0.4191 -0.5049
 1010TIP3    H124521   4.546   2.865  13.418  0.5163 -0.3884  0.2124
 1010TIP3    H224522   4.573   2.959  13.303  1.3285 -1.5644 -0.5756
 1011TIP3   OH224523   1.267   2.517  16.498 -0.6317 -0.3653  0.2637
 1011TIP3    H124524   1.200   2.468  16.450  0.0605 -1.3235  0.2396
 1011TIP3    H224525   1.219   2.561  16.568 -1.2792 -1.1182  0.3058
 1012TIP3   OH224526   3.192   1.848   1.670 -0.4735 -0.1595 -0.4368
 1012TIP3    H124527   3.114   1.793   1.665 -0.7300  0.1748 -0.1074
 1012TIP3    H224528   3.190   1.900   1.590 -0.5350 -0.2172 -0.4729
 1013TIP3   OH224529   2.621   6.312   2.325 -0.2112 -0.0708 -0.0779
 1013TIP3    H124530   2.544   6.343   2.279  0.2026  0.6819 -0.2808
 1013TIP3    H224531   2.600   6.222   2.350 -0.2933 -0.6598 -2.0813
 1014TIP3   OH224532   5.424   3.618  11.762  0.7776  0.3451  0.3448
 1014TIP3    H124533   5.379   3.552  11.815  2.0111 -1.5300 -0.8284
 1014TIP3    H224534   5.509   3.579  11.741  1.2555  1.9950 -1.0446
 1015TIP3   OH224535   0.133   0.883   5.320 -0.1540  0.5086  0.5868
 1015TIP3    H124536   0.137   0.822   5.247  1.4355 -0.9742  1.8379
 1015TIP3    H224537   0.049   0.928   5.309  0.6667  1.4840 -2.9625
 1016TIP3   OH224538   1.064   5.355   1.091 -0.5088 -0.0805 -0.4957
 1016TIP3    H124539   1.134   5.306   1.134  1.5464  2.0196 -1.2354
 1016TIP3    H224540   1.040   5.423   1.153 -1.0730 -0.0730 -0.7145
 1017TIP3   OH224541   3.852   0.587   1.145 -0.1344 -0.0377  0.0779
 1017TIP3    H124542   3.800   0.664   1.167  0.7713 -0.0421  2.6324
 1017TIP3    H224543   3.813   0.516   1.197  1.0951 -0.5142  0.3990
 1018TIP3   OH224544   3.950   3.201   0.909  0.1630 -0.0738  0.0526
 1018TIP3    H124545   4.020   3.170   0.966 -0.1052 -0.7634  0.0080
 1018TIP3    H224546   3.972   3.293   0.893  1.3558 -0.4124 -0.3818
 1019TIP3   OH224547   0.612   0.832   4.315 -0.2688 -0.5107  0.2818
 1019TIP3    H124548   0.572   0.755   4.355 -1.8889  0.6725  1.0222
 1019TIP3    H224549   0.539   0.891   4.296  0.3733 -0.7681 -4.1299
 1020TIP3   OH224550   0.726   3.109   1.715 -0.0361  0.0036 -0.1746
 1020TIP3    H124551   0.786   3.041   1.745  0.7338  0.6631 -0.1874
 1020TIP3    H224552   0.757   3.132   1.627  1.1353  1.9342  0.6735
 1021TIP3   OH224553   6.258   4.808  11.571  0.7123  0.0483  0.0087
 1021TIP3    H124554   6.167   4.782  11.584  0.1360  1.1095 -1.6423
 1021TIP3    H224555   6.255   4.904  11.563  1.9087  0.0570 -0.5563
 1022TIP3   OH224556   4.710   2.894  15.519  0.3110 -0.2420  0.1550
 1022TIP3    H124557   4.774   2.896  15.448  0.2771  0.3874  0.1392
 1022TIP3    H224558   4.745   2.828  15.580  0.4137 -0.6771 -0.3668
 1023TIP3   OH224559   3.920   6.655  15.370  0.4721 -0.3326 -0.8208
 1023TIP3    H124560   3.927   6.684  15.461  0.8307 -3.2139  0.1758
 1023TIP3    H224561   4.004   6.680  15.331  1.3209 -1.1875  0.3730
 1024TIP3   OH224562   1.087   1.637  11.406 -0.5409 -0.0876  0.1782
 1024TIP3    H124563   1.026   1.568  11.379 -1.3227  0.7386 -0.2298
 1024TIP3    H224564   1.173   1.595  11.403 -0.9650 -0.9597 -0.3600
 1025TIP3   OH224565   4.785   1.091   6.074 -0.5029 -0.9124  0.4546
 1025TIP3    H124566   4.813   1.062   6.161 -3.0137 -0.5794  1.4591
 1025TIP3    H224567   4.840   1.168   6.057 -0.2651 -0.6998  1.9689
 1026TIP3   OH224568   4.724   2.790  12.583 -0.3996 -0.3718 -0.0203
 1026TIP3    H124569   4.645   2.804  12.636 -1.0989 -3.4901 -0.0626
 1026TIP3    H224570   4.713   2.848  12.508 -1.9360  0.3273  0.6959
 1027TIP3   OH224571   0.789   4.490  14.328 -0.0111 -0.6438 -0.0167
 1027TIP3    H124572   0.771   4.578  14.360  2.9080 -0.4032  1.2775
 1027TIP3    H224573   0.884   4.481  14.333  0.0056 -3.1068 -2.2466
 1028TIP3   OH224574   5.163   5.928   3.117  0.4572 -0.2356 -0.5723
 1028TIP3    H124575   5.132   5.842   3.143 -2.1091  0.8696  0.3075
 1028TIP3    H224576   5.199   5.915   3.029  1.6323 -2.4513  0.1623
 1029TIP3   OH224577   1.237   2.635  16.022  0.0645  0.3567 -0.2959
 1029TIP3    H124578   1.158   2.683  16.046 -0.1474  0.1247 -0.5405
 1029TIP3    H224579   1.221   2.545  16.049  0.2997  0.3334 -0.2241
 1030TIP3   OH224580   1.740   3.842  16.979 -0.0362 -0.1584  0.4853
 1030TIP3    H124581   1.720   3.886  16.897 -1.2714 -1.2422  0.1750
 1030TIP3    H224582   1.832   3.816  16.971 -0.1298 -0.1917 -0.5227
 1031TIP3   OH224583   5.765   4.469   2.372 -0.0561  0.1068  0.5223
 1031TIP3    H124584   5.786   4.559   2.398 -0.2003  0.4809 -0.5895
 1031TIP3    H224585   5.742   4.476   2.279  0.8119 -1.2178  0.1825
 1032TIP3   OH224586   6.535   0.640   2.359 -0.1048 -0.1399  0.3863
 1032TIP3    H124587   6.608   0.649   2.297  0.0420 -0.5477  0.4980
 1032TIP3    H224588   6.514   0.730   2.385  0.7148 -0.0433  0.7555
 1033TIP3   OH224589   3.052   3.687  13.399 -0.0481  0.1267  0.0655
 1033TIP3    H124590   3.064   3.610  13.343 -1.7438 -1.1899  1.4328
 1033TIP3    H224591   3.094   3.663  13.482  0.0433  0.9807  0.2756
 1034TIP3   OH224592   3.882   4.682  14.427 -0.6024 -0.0865 -0.6492
 1034TIP3    H124593   3.949   4.688  14.495 -1.0440  2.1873 -0.3536
 1034TIP3    H224594   3.813   4.630  14.468 -0.3638  0.2698  0.2314
 1035TIP3   OH224595   6.331   0.939   2.768  0.5316 -0.8110 -0.0494
 1035TIP3    H124596   6.381   0.994   2.828 -0.5713  0.0266  0.1318
 1035TIP3    H224597   6.387   0.931   2.690  0.5934  0.8457 -0.2056
 1036TIP3   OH224598   1.112   1.498  16.008  0.2504  0.5463 -0.1205
 1036TIP3    H124599   1.088   1.590  16.018 -0.5608  0.2343  0.9823
 1036TIP3    H224600   1.156   1.475  16.089 -2.5303 -0.8949  1.1209
 1037TIP3   OH224601   1.909   3.060  12.774 -0.0212  0.3771 -0.7690
 1037TIP3    H124602   1.889   2.966  12.773  0.5772  0.0660  2.9359
 1037TIP3    H224603   2.004   3.064  12.763 -0.2971  0.9511 -4.4545
 1038TIP3   OH224604   0.527   6.490  13.617 -0.2699 -0.3036  0.2860
 1038TIP3    H124605   0.566   6.405  13.636 -0.1408 -0.1033  0.9356
 1038TIP3    H224606   0.500   6.524  13.702 -2.0844 -0.5284 -0.1585
 1039TIP3   OH224607   3.585   1.623  13.937 -0.1035 -0.6085 -0.0697
 1039TIP3    H124608   3.505   1.590  13.978 -1.3797 -0.3299 -2.1940
 1039TIP3    H224609   3.560   1.707  13.900  1.2313 -0.4230 -0.5996
 1040TIP3   OH224610   1.919   2.829   2.532  0.5117  0.0913 -0.5647
 1040TIP3    H124611   1.904   2.739   2.561  0.1604 -0.0987 -1.3028
 1040TIP3    H224612   1.831   2.862   2.511  0.4255  1.1893  1.2958
 1041TIP3   OH224613   6.395   2.438   1.011  0.1903 -0.1963 -0.3455
 1041TIP3    H124614   6.343   2.508   0.971  0.0970  0.3354  0.6512
 1041TIP3    H224615   6.385   2.364   0.952  2.2366  1.2578 -2.7285
 1042TIP3   OH224616   1.620   3.821   0.026 -0.5244  0.5180  0.3490
 1042TIP3    H124617   1.539   3.870   0.011 -1.2758 -0.8966 -0.4254
 1042TIP3    H224618   1.657   3.808  -0.061 -1.8285 -2.6713  0.1391
 1043TIP3   OH224619   0.963   4.772  14.362 -0.0129 -1.0730  0.0301
 1043TIP3    H124620   1.011   4.796  14.282 -0.1244  1.4675  0.6450
 1043TIP3    H224621   0.957   4.854  14.412  2.3834 -2.9858  3.9398
 1044TIP3   OH224622   5.396   0.874   1.092 -0.4551  0.7234 -0.2030
 1044TIP3    H124623   5.425   0.829   1.171 -0.4561 -1.0382 -1.1471
 1044TIP3    H224624   5.459   0.945   1.081  2.1876 -1.5028 -0.8258
 1045TIP3   OH224625   5.133   4.105   2.187 -0.0429 -0.0507  0.7002
 1045TIP3    H124626   5.038   4.113   2.194 -0.0502  0.2098  0.2846
 1045TIP3    H224627   5.146   4.027   2.132 -0.0477  1.1091 -1.0104
 1046TIP3   OH224628   5.802   0.760  16.893 -0.3475  0.3552  0.3391
 1046TIP3    H124629   5.733   0.801  16.945  1.1080  2.4819  0.7423
 1046TIP3    H224630   5.838   0.692  16.949  0.2743  1.6946  1.6218
 1047TIP3   OH224631   5.549   2.946  11.485 -0.2825 -0.6328 -0.3261
 1047TIP3    H124632   5.459   2.937  11.453 -0.4355  0.1568 -0.1449
 1047TIP3    H224633   5.600   2.882  11.434 -1.1722 -2.0971  0.5335
 1048TIP3   OH224634   3.472   6.422   5.491  0.1469 -0.2846  0.3300
 1048TIP3    H124635   3.515   6.447   5.573 -2.2605  0.4434  1.4662
 1048TIP3    H224636   3.414   6.350   5.516  0.7087 -1.3183 -1.1757
 1049TIP3   OH224637   1.212   6.786  14.594 -0.1030 -0.0925 -0.2646
 1049TIP3    H124638   1.203   6.868  14.642 -0.7392 -0.9900  1.2001
 1049TIP3    H224639   1.295   6.750  14.623 -0.9325 -1.1015  0.9444
 1050TIP3   OH224640   4.742   2.406  12.152  0.0162  0.1991 -0.4852
 1050TIP3    H124641   4.713   2.353  12.226  0.0272 -1.1902 -1.4501
 1050TIP3    H224642   4.809   2.464  12.189 -1.9439  1.5417  1.1895
 1051TIP3   OH224643   3.948   0.135  16.510 -0.3586  0.4251 -0.4984
 1051TIP3    H124644   3.867   0.184  16.526 -0.9302 -0.4220 -0.7571
 1051TIP3    H224645   4.016   0.186  16.554 -1.2769  0.2668  1.1667
 1052TIP3   OH224646   3.583   4.804   3.260 -0.7595  0.1504 -0.2126
 1052TIP3    H124647   3.514   4.849   3.308 -1.0371 -0.1686 -0.3049
 1052TIP3    H224648   3.538   4.768   3.183  0.1225  2.7106 -2.0500
 1053TIP3   OH224649   2.894   1.335  15.258 -0.4612  0.3237  0.2389
 1053TIP3    H124650   2.947   1.323  15.179 -1.5719  0.2570 -0.5184
 1053TIP3    H224651   2.931   1.273  15.321 -1.1719 -1.5051 -1.0731
 1054TIP3   OH224652   4.090   2.415   4.512 -0.1219 -0.1801 -0.2708
 1054TIP3    H124653   4.069   2.322   4.519 -1.4297  0.0390 -0.9601
 1054TIP3    H224654   4.010   2.455   4.478  0.1707  1.3212  0.7314
 1055TIP3   OH224655   5.023   0.830   6.017  0.1941  0.0759  0.6427
 1055TIP3    H124656   5.111   0.867   6.019 -0.7166  3.0407 -2.4267
 1055TIP3    H224657   5.025   0.767   5.945 -0.3067  0.7762 -0.0091
 1056TIP3   OH224658   0.659   4.691  15.527 -0.4166  0.1494 -0.1537
 1056TIP3    H124659   0.604   4.769  15.522  0.9252  1.2108  0.8831
 1056TIP3    H224660   0.637   4.651  15.611  2.2324  2.1274  1.6501
 1057TIP3   OH224661   5.078   6.789  14.831 -0.0150 -0.1712  0.5963
 1057TIP3    H124662   5.102   6.846  14.758 -1.8384  1.1806  0.9789
 1057TIP3    H224663   5.023   6.843  14.886  0.4840 -1.4870  2.4747
 1058TIP3   OH224664   3.393   3.657   3.756  0.2184  0.0609  0.1199
 1058TIP3    H124665   3.319   3.646   3.695  0.6525 -0.2882 -0.3503
 1058TIP3    H224666   3.446   3.726   3.716  1.2047 -1.0884 -0.6050
 1059TIP3   OH224667   0.366   1.499  14.169  0.0535 -0.3720 -0.4960
 1059TIP3    H124668   0.333   1.581  14.206 -3.1839 -2.2740  1.3043
 1059TIP3    H224669   0.339   1.500  14.078 -0.0642  0.5037 -0.4566
 1060TIP3   OH224670   6.273   6.350   2.168 -0.0585  0.4516  0.4383
 1060TIP3    H124671   6.319   6.430   2.195  1.5833 -0.3884  0.2617
 1060TIP3    H224672   6.309   6.282   2.225  1.8412 -0.9670 -2.2440
 1061TIP3   OH224673   0.055   0.637   3.205 -0.1798 -0.0736  0.2304
 1061TIP3    H124674   0.080   0.546   3.186 -2.9196 -0.8381 -0.1283
 1061TIP3    H224675   0.042   0.677   3.119  0.1612  0.4080  0.4000
 1062TIP3   OH224676   0.727   6.042  11.323  0.4304  0.1407 -0.3442
 1062TIP3    H124677   0.796   6.087  11.372  0.6806  0.1080 -0.6685
 1062TIP3    H224678   0.773   5.984  11.263  0.1163 -0.0847 -0.3752
 1063TIP3   OH224679   1.329   1.023  14.383 -0.3224 -0.2685  0.2686
 1063TIP3    H124680   1.363   1.108  14.412 -1.5596  0.5412 -0.5878
 1063TIP3    H224681   1.362   1.014  14.293  0.6875 -1.2134  0.7060
 1064TIP3   OH224682   4.917   6.706  13.798  0.1235 -0.2768 -0.7446
 1064TIP3    H124683   4.994   6.753  13.766  0.4168  0.2299  0.6510
 1064TIP3    H224684   4.862   6.697  13.720  1.2491  0.0100 -1.6084
 1065TIP3   OH224685   1.759   2.251   4.168  0.6499  0.1447 -0.1670
 1065TIP3    H124686   1.678   2.281   4.127 -0.2597 -1.4672  0.3524
 1065TIP3    H224687   1.818   2.234   4.094  0.3768  0.9025 -0.5734
 1066TIP3   OH224688   4.571   5.855   1.292 -0.0700  0.7417  0.1158
 1066TIP3    H124689   4.572   5.759   1.295 -0.2702  0.7673  1.0636
 1066TIP3    H224690   4.635   5.877   1.224 -1.6482 -0.1187 -1.7484
 1067TIP3   OH224691   6.152   6.430  15.280 -0.2652  0.3590 -0.2105
 1067TIP3    H124692   6.111   6.446  15.365 -1.6991 -0.7021 -0.6759
 1067TIP3    H224693   6.231   6.484  15.281 -0.6908  0.9937  1.4642
 1068TIP3   OH224694   4.462   3.747   6.393  0.0758  0.3284 -0.5997
 1068TIP3    H124695   4.536   3.798   6.360 -0.2578 -0.0814 -2.0184
 1068TIP3    H224696   4.430   3.698   6.318 -1.2865  0.0455  0.1292
 1069TIP3   OH224697   5.138   5.529   3.959 -0.2153 -0.2216  0.1576
 1069TIP3    H124698   5.228   5.506   3.984 -0.4850 -0.1657  1.2405
 1069TIP3    H224699   5.113   5.599   4.019 -0.4256  0.9119 -1.2116
 1070TIP3   OH224700   3.894   2.817   5.662 -0.3080 -0.8065  0.0755
 1070TIP3    H124701   3.905   2.848   5.572 -0.0298  0.5415  0.5505
 1070TIP3    H224702   3.799   2.816   5.675 -0.3092  0.8378  0.3562
 1071TIP3   OH224703   0.029   4.089   4.775  0.1792 -0.5232  0.1787
 1071TIP3    H124704   0.097   4.125   4.832 -1.0858  0.6161  1.0150
 1071TIP3    H224705  -0.024   4.034   4.831 -0.4274 -0.2818 -0.1524
 1072TIP3   OH224706   5.820   4.195   2.303  0.2383 -0.1319  0.2449
 1072TIP3    H124707   5.747   4.159   2.253  0.4584 -0.8472  0.4254
 1072TIP3    H224708   5.807   4.290   2.300 -0.0055 -0.1839 -0.7880
 1073TIP3   OH224709   6.446   4.649  12.269  0.2504 -0.5197 -0.0282
 1073TIP3    H124710   6.447   4.579  12.334  0.6569  1.8203  2.6835
 1073TIP3    H224711   6.531   4.642  12.225  0.5954 -1.2565  0.7360
 1074TIP3   OH224712   6.666   6.712  15.678 -0.1944  0.4711  0.4111
 1074TIP3    H124713   6.602   6.645  15.655 -0.9490  0.8493  1.3551
 1074TIP3    H224714   6.675   6.706  15.773  0.3834  1.1252  0.4121
 1075TIP3   OH224715   5.035   0.178  15.201 -0.4014 -1.1037 -0.4696
 1075TIP3    H124716   5.124   0.149  15.178  1.1483  0.6432  2.6122
 1075TIP3    H224717   5.022   0.258  15.150  0.2507 -0.8165 -0.2025
 1076TIP3   OH224718   2.205   2.033  15.501  0.4896  0.3319  0.2832
 1076TIP3    H124719   2.298   2.031  15.481  0.4188 -1.8749  0.0007
 1076TIP3    H224720   2.200   2.020  15.596  0.4563  1.0515  0.3915
 1077TIP3   OH224721   2.120   0.730   4.047  0.2481 -0.0812  0.1972
 1077TIP3    H124722   2.120   0.824   4.065 -1.2414 -0.1333  0.5683
 1077TIP3    H224723   2.133   0.689   4.132  1.3652 -0.2213 -0.0276
 1078TIP3   OH224724   5.035   2.719  16.983 -0.1642 -0.1246 -0.4689
 1078TIP3    H124725   5.131   2.716  16.983 -0.0925  1.5082 -0.6167
 1078TIP3    H224726   5.010   2.670  17.062  0.8506  0.4929  0.2712
 1079TIP3   OH224727   0.891   3.153   0.507  0.7666  0.2539 -0.2831
 1079TIP3    H124728   0.845   3.079   0.549  0.5880  1.0680  1.0190
 1079TIP3    H224729   0.981   3.122   0.497  0.4869 -0.4775 -0.6230
 1080TIP3   OH224730   2.811   0.499   4.101 -0.5919 -0.4225 -0.3825
 1080TIP3    H124731   2.830   0.581   4.146 -1.7942 -0.7828  0.8453
 1080TIP3    H224732   2.761   0.525   4.024 -0.0306  0.0681 -0.5899
 1081TIP3   OH224733   0.449   2.017   0.619 -0.1815 -0.4041  0.4120
 1081TIP3    H124734   0.360   2.042   0.594 -0.1528 -1.6505 -1.0610
 1081TIP3    H224735   0.438   1.939   0.674  0.0122 -1.0227 -0.4071
 1082TIP3   OH224736   3.391   1.394   2.055  0.7160  0.3679 -0.1139
 1082TIP3    H124737   3.306   1.356   2.030  2.0250 -1.4218 -2.3127
 1082TIP3    H224738   3.400   1.471   1.999  1.0117 -0.1650 -0.8348
 1083TIP3   OH224739   0.861   3.809   1.367 -0.2101 -0.5701  0.0197
 1083TIP3    H124740   0.883   3.895   1.333  0.5873 -0.1999  1.3773
 1083TIP3    H224741   0.886   3.812   1.460 -1.2582 -1.8700  0.3930
 1084TIP3   OH224742   6.532   2.618   4.977  0.5497 -0.2328 -0.6676
 1084TIP3    H124743   6.454   2.582   4.935  0.8300 -1.3283 -0.2771
 1084TIP3    H224744   6.577   2.666   4.908  1.4650 -2.7305 -1.9165
 1085TIP3   OH224745   4.278   4.088   6.255  0.0584 -0.1532 -0.0526
 1085TIP3    H124746   4.321   4.086   6.340  1.1504  3.7128 -0.3131
 1085TIP3    H224747   4.200   4.142   6.269  1.1459  2.0417 -1.6872
 1086TIP3   OH224748   5.220   0.183  16.287  0.2526 -0.6387 -0.5975
 1086TIP3    H124749   5.200   0.131  16.210 -1.9919 -1.0607  0.2081
 1086TIP3    H224750   5.222   0.120  16.359 -0.7812  0.1211  0.1364
 1087TIP3   OH224751   6.313   4.917   6.689  0.9734 -0.2453 -0.1375
 1087TIP3    H124752   6.249   4.854   6.655  1.5598 -0.3584 -1.0621
 1087TIP3    H224753   6.360   4.868   6.757  2.4552 -1.3595 -1.8769
 1088TIP3   OH224754   1.074   5.364  16.636 -0.2010  0.9145  0.1399
 1088TIP3    H124755   1.055   5.350  16.543 -2.0780  1.3239  0.4193
 1088TIP3    H224756   0.993   5.401  16.672 -0.2643 -1.0621  2.3366
 1089TIP3   OH224757   2.089   0.678   4.874 -0.3156 -0.2300  0.3597
 1089TIP3    H124758   2.069   0.693   4.781 -0.3438  0.6927  0.5002
 1089TIP3    H224759   2.006   0.648   4.912 -1.1965  2.3730  0.6866
 1090TIP3   OH224760   3.834   4.896  12.989  0.6404  0.1473  0.1249
 1090TIP3    H124761   3.834   4.917  13.082 -1.1585  0.4647  0.0781
 1090TIP3    H224762   3.855   4.979  12.946  0.1488  0.3201  0.2083
 1091TIP3   OH224763   6.381   6.513  13.865  0.2915 -0.2438  0.7213
 1091TIP3    H124764   6.349   6.586  13.812  0.1814 -0.7977 -0.0045
 1091TIP3    H224765   6.466   6.492  13.827  0.7992  0.1738  1.6011
 1092TIP3   OH224766   1.521   6.436   0.074 -0.0084 -0.0360 -1.0398
 1092TIP3    H124767   1.539   6.395  -0.011 -1.9441 -2.1626 -0.5352
 1092TIP3    H224768   1.427   6.456   0.071  0.0394  0.4775  0.3653
 1093TIP3   OH224769   6.175   1.422  16.546  0.6240  0.2278  0.0330
 1093TIP3    H124770   6.231   1.354  16.584 -0.1646 -0.5031 -0.0998
 1093TIP3    H224771   6.156   1.391  16.458  0.5568  0.7974 -0.1542
 1094TIP3   OH224772   1.131   4.794  16.317  0.0101  0.3004  0.2494
 1094TIP3    H124773   1.140   4.776  16.224  0.0807  1.3160  0.0481
 1094TIP3    H224774   1.140   4.890  16.324  0.2511  0.2124  1.3183
 1095TIP3   OH224775   6.524   5.619   2.830 -0.5085 -0.5923 -0.0155
 1095TIP3    H124776   6.584   5.685   2.794 -1.2979 -0.5842 -1.3843
 1095TIP3    H224777   6.581   5.544   2.852  0.2411  0.1101  0.5175
 1096TIP3   OH224778   1.282   3.550   2.049  0.1888  0.1418 -0.2958
 1096TIP3    H124779   1.363   3.572   2.002  1.4271 -1.8859  0.7465
 1096TIP3    H224780   1.254   3.633   2.088  2.4268  0.7316  0.2552
 1097TIP3   OH224781   3.783   1.887   3.056  0.3457 -0.1692  0.8188
 1097TIP3    H124782   3.877   1.902   3.054  0.3686 -0.3569  0.0726
 1097TIP3    H224783   3.766   1.830   2.981 -0.4378  0.2933  0.6331
 1098TIP3   OH224784   2.328   0.781  14.053  0.2367 -0.2843 -0.1345
 1098TIP3    H124785   2.234   0.776  14.037  0.3388  1.8685 -2.0396
 1098TIP3    H224786   2.349   0.703  14.104 -2.4353 -1.2168 -0.3395
 1099TIP3   OH224787   1.956   1.642   4.500  0.3546 -0.3670  0.4311
 1099TIP3    H124788   1.977   1.570   4.441 -1.8848  1.0673 -2.3506
 1099TIP3    H224789   2.001   1.718   4.463  1.2348  0.0608  2.2748
 1100TIP3   OH224790   6.537   3.411  11.344 -0.4856 -0.6851 -0.4499
 1100TIP3    H124791   6.559   3.410  11.437  0.9003  0.6510 -0.7304
 1100TIP3    H224792   6.495   3.326  11.328 -0.2285 -1.1632  1.2566
 1101TIP3   OH224793   6.123   1.178  10.955 -0.1962  0.3932 -0.3662
 1101TIP3    H124794   6.113   1.152  10.863 -3.4105  2.1026 -0.6145
 1101TIP3    H224795   6.127   1.273  10.953  1.9686  0.4163  1.2053
 1102TIP3   OH224796   5.158   2.947  14.280  0.1179  0.4751 -0.5394
 1102TIP3    H124797   5.151   2.859  14.242  0.0222  0.9862 -1.7625
 1102TIP3    H224798   5.252   2.961  14.290  0.1199  0.1035 -0.0170
 1103TIP3   OH224799   3.767   1.575   0.127  0.2897  0.1883  0.8018
 1103TIP3    H124800   3.683   1.541   0.158 -0.3907  0.7321 -0.3980
 1103TIP3    H224801   3.779   1.657   0.175  0.7024 -0.4364  1.8063
 1104TIP3   OH224802   1.081   5.505   2.510 -0.0101  0.0998  0.0849
 1104TIP3    H124803   1.097   5.512   2.604  1.1625  0.2313 -0.1080
 1104TIP3    H224804   1.126   5.581   2.473  0.8266 -0.7622 -0.7231
 1105TIP3   OH224805   5.076   6.168  14.428  0.1421 -0.3284 -0.8878
 1105TIP3    H124806   5.143   6.120  14.476 -0.6097  0.1274  0.6977
 1105TIP3    H224807   5.112   6.256  14.417 -0.6733  0.3460  1.2280
 1106TIP3   OH224808   6.044   2.298  16.276  0.2405 -0.1722 -0.2094
 1106TIP3    H124809   6.019   2.210  16.249  2.0051 -0.6658 -0.3283
 1106TIP3    H224810   5.969   2.353  16.251 -1.1110 -1.6826  0.3193
 1107TIP3   OH224811   5.214   3.255   0.892  0.2574 -0.1959  0.6292
 1107TIP3    H124812   5.267   3.193   0.942  0.3895 -0.7143 -0.1237
 1107TIP3    H224813   5.171   3.309   0.958  1.4167 -0.0117  1.2637
 1108TIP3   OH224814   3.531   6.393  16.736  0.6584 -0.5857 -0.5251
 1108TIP3    H124815   3.458   6.334  16.723  1.2084 -2.0342  2.1589
 1108TIP3    H224816   3.492   6.472  16.773  0.2581 -0.6549 -0.8034
 1109TIP3   OH224817   0.327   2.117  13.409  0.2362 -0.3547 -0.1116
 1109TIP3    H124818   0.320   2.188  13.472  0.8370  0.9068 -1.4191
 1109TIP3    H224819   0.236   2.099  13.383  0.1040  0.2298 -0.0692
 1110TIP3   OH224820   6.345   3.539  14.231  0.1400  0.4182 -0.1632
 1110TIP3    H124821   6.316   3.626  14.255  0.0325  1.4426 -3.4414
 1110TIP3    H224822   6.330   3.485  14.309  1.8529  3.6033  2.5901
 1111TIP3   OH224823   1.705   1.646  13.101  0.3183  0.0490  0.8211
 1111TIP3    H124824   1.797   1.662  13.082  0.3861 -0.8858  0.2919
 1111TIP3    H224825   1.658   1.682  13.025  0.4095 -1.3216  0.0760
 1112TIP3   OH224826   0.922   5.416  13.138 -0.0862 -0.0559  0.1919
 1112TIP3    H124827   0.886   5.502  13.117  1.4413  0.6092  0.1608
 1112TIP3    H224828   0.904   5.405  13.232  1.0219  0.9840  0.5497
 1113TIP3   OH224829   0.639   4.212   0.203 -0.0148 -0.4267  0.7046
 1113TIP3    H124830   0.640   4.188   0.110 -1.6596 -1.1786  0.8474
 1113TIP3    H224831   0.730   4.202   0.231  0.4487 -0.4906 -0.7512
 1114TIP3   OH224832   4.080   5.870   0.180 -0.1064  0.4975  0.3110
 1114TIP3    H124833   4.075   5.965   0.166 -0.1888  0.2254 -1.8977
 1114TIP3    H224834   4.030   5.855   0.261 -1.8944  2.1257 -0.3967
 1115TIP3   OH224835   2.588   0.222   4.498  0.2487 -0.0692  0.4095
 1115TIP3    H124836   2.495   0.211   4.478  0.3022 -0.6244  0.4411
 1115TIP3    H224837   2.617   0.291   4.438 -0.5314  1.2614  1.5150
 1116TIP3   OH224838   4.253   2.320   2.660 -0.1773 -0.1099 -0.0618
 1116TIP3    H124839   4.162   2.302   2.683 -0.3245 -1.7507 -1.7018
 1116TIP3    H224840   4.297   2.235   2.667  0.7020  0.1931 -1.5191
 1117TIP3   OH224841   0.705   5.064   4.447  0.3661  0.2885 -0.2104
 1117TIP3    H124842   0.640   5.011   4.402  1.2718 -0.4156 -0.7243
 1117TIP3    H224843   0.759   5.001   4.495  1.0625  0.7897 -0.3131
 1118TIP3   OH224844   4.241   5.809   0.485  0.1531 -0.6166 -0.1051
 1118TIP3    H124845   4.226   5.758   0.564  0.9342  0.4825  0.7817
 1118TIP3    H224846   4.325   5.778   0.452 -0.2047 -1.1238 -0.5643
 1119TIP3   OH224847   1.144   6.588   5.421 -0.2924  0.1015  0.1872
 1119TIP3    H124848   1.215   6.585   5.357  0.0911  1.2459  0.5202
 1119TIP3    H224849   1.170   6.526   5.489  0.0792  0.0467 -0.0019
 1120TIP3   OH224850   4.755   0.323  15.948  1.2299  0.0929  0.5356
 1120TIP3    H124851   4.820   0.384  15.911  1.5814 -1.1382 -0.9777
 1120TIP3    H224852   4.782   0.237  15.915 -0.7097 -0.5574  0.5580
 1121TIP3   OH224853   4.824   2.183   5.724 -0.9328  0.0890 -0.1905
 1121TIP3    H124854   4.750   2.239   5.743 -0.7685  0.2773 -0.1045
 1121TIP3    H224855   4.860   2.218   5.642  2.0729  3.1983  2.1357
 1122TIP3   OH224856   1.021   5.004  14.805 -0.9327 -0.2604  0.6567
 1122TIP3    H124857   1.032   5.060  14.882 -0.0857  0.6330 -0.0941
 1122TIP3    H224858   1.004   4.917  14.842 -1.7177  0.3673  1.8465
 1123TIP3   OH224859   6.121   3.371  16.563 -0.1793  0.2322  0.4285
 1123TIP3    H124860   6.141   3.403  16.650  1.5636 -0.6672  0.4086
 1123TIP3    H224861   6.119   3.450  16.508  0.9966  0.6188  0.9010
 1124TIP3   OH224862   5.514   2.659   1.571 -0.3709 -0.0076 -0.2092
 1124TIP3    H124863   5.553   2.573   1.583 -0.3425 -0.2578 -1.7989
 1124TIP3    H224864   5.444   2.645   1.506 -0.1136  1.2141 -0.7943
 1125TIP3   OH224865   5.368   2.432   5.218  0.2157  0.7322  0.3956
 1125TIP3    H124866   5.463   2.425   5.208  0.3060  1.4955  0.7312
 1125TIP3    H224867   5.334   2.363   5.160  0.9821  0.0459  0.7329
 1126TIP3   OH224868   0.225   5.124  13.376 -0.1555 -0.0105  0.1692
 1126TIP3    H124869   0.219   5.218  13.364  2.5958  0.5766  2.4512
 1126TIP3    H224870   0.162   5.104  13.446 -0.0963  0.2917  0.3090
 1127TIP3   OH224871   5.795   3.935   0.648  0.0853 -0.6714 -0.7458
 1127TIP3    H124872   5.845   3.942   0.567  2.3550 -1.4987  0.5096
 1127TIP3    H224873   5.810   4.018   0.693  1.1991 -1.2938  0.0744
 1128TIP3   OH224874   2.668   2.992   1.217  0.2524 -0.1882 -0.4694
 1128TIP3    H124875   2.651   2.929   1.148 -1.7913 -0.7108  0.4270
 1128TIP3    H224876   2.712   3.065   1.174  2.4100 -2.0470 -1.5872
 1129TIP3   OH224877   1.200   4.784  16.675 -0.0378 -0.3319 -0.1677
 1129TIP3    H124878   1.141   4.855  16.700 -0.6654 -1.0590  0.4733
 1129TIP3    H224879   1.216   4.736  16.756 -1.3914 -2.2082 -0.9364
 1130TIP3   OH224880   4.488   5.483   5.539  0.0561 -0.2273 -0.5626
 1130TIP3    H124881   4.559   5.507   5.598 -0.3962 -1.1897  0.4107
 1130TIP3    H224882   4.424   5.554   5.548 -1.5683 -1.8715  2.7703
 1131TIP3   OH224883   0.633   1.927  12.089  0.1515 -0.0071  0.2708
 1131TIP3    H124884   0.589   1.844  12.106 -0.2916  0.0156 -0.6570
 1131TIP3    H224885   0.585   1.991  12.141 -1.4341  0.1367 -1.2791
 1132TIP3   OH224886   2.270   3.284  12.872  0.4012 -0.8478  0.0166
 1132TIP3    H124887   2.336   3.327  12.819  0.3897  0.2811  0.8715
 1132TIP3    H224888   2.319   3.241  12.942  0.2908 -0.5325  0.2943
 1133TIP3   OH224889   0.148   1.536   0.042  0.1861  0.5836 -0.5050
 1133TIP3    H124890   0.207   1.482   0.094 -0.1156  0.4001 -0.3491
 1133TIP3    H224891   0.063   1.527   0.085 -0.1787  0.0384 -1.3044
 1134TIP3   OH224892   4.467   0.541   1.212  0.0348  0.5905 -0.1464
 1134TIP3    H124893   4.472   0.613   1.275 -0.1821  1.3020 -0.9245
 1134TIP3    H224894   4.460   0.463   1.266  1.9487  0.9850  0.7680
 1135TIP3   OH224895   2.100   2.909   4.601  0.2006  0.2785  0.1376
 1135TIP3    H124896   2.007   2.932   4.595  0.2736  0.3976 -0.6493
 1135TIP3    H224897   2.102   2.815   4.584  0.1678  0.1772  0.7004
 1136TIP3   OH224898   3.513   5.249  17.086  0.5288 -0.2927 -0.4081
 1136TIP3    H124899   3.572   5.233  17.160 -1.9148  0.8191  1.9721
 1136TIP3    H224900   3.519   5.343  17.070  0.2020 -0.3376 -0.8240
 1137TIP3   OH224901   6.631   2.099  16.192  0.1474 -0.3195 -0.0979
 1137TIP3    H124902   6.670   2.147  16.265 -1.7951  0.6080  0.3857
 1137TIP3    H224903   6.539   2.088  16.216 -0.4154 -0.5072 -2.1247
 1138TIP3   OH224904   1.924   4.230   6.551  0.5534 -0.0793  0.4382
 1138TIP3    H124905   2.019   4.223   6.553  0.5527 -0.1035  0.3941
 1138TIP3    H224906   1.907   4.323   6.533  0.5697 -0.0900  0.3678
 1139TIP3   OH224907   2.350   5.969   2.403  0.1005  0.1007 -0.1534
 1139TIP3    H124908   2.320   5.901   2.342 -0.0150  0.2741 -0.2914
 1139TIP3    H224909   2.338   6.051   2.355  1.3690  0.1353 -0.4429
 1140TIP3   OH224910   4.426   4.725   0.088  0.8241 -0.0308  0.2453
 1140TIP3    H124911   4.405   4.718  -0.005 -1.1795  0.7472  0.5872
 1140TIP3    H224912   4.472   4.808   0.096 -0.8302  0.9394  0.1853
 1141TIP3   OH224913   6.007   4.620   3.037  0.1761  0.0263  0.5296
 1141TIP3    H124914   5.989   4.551   3.102  0.4203  0.3871  0.9821
 1141TIP3    H224915   5.983   4.580   2.953  0.4441 -0.6573  0.7740
 1142TIP3   OH224916   0.703   4.252   5.856  0.2246  0.6517  0.0499
 1142TIP3    H124917   0.628   4.283   5.907 -1.1710 -0.8505 -1.0208
 1142TIP3    H224918   0.779   4.286   5.904 -1.1084  3.0803  0.6102
 1143TIP3   OH224919   4.967   0.491  15.794 -0.4949  0.2017  0.0556
 1143TIP3    H124920   4.973   0.401  15.763  1.1297  0.7234 -1.2278
 1143TIP3    H224921   5.032   0.496  15.864  0.1571  0.6538 -0.5817
 1144TIP3   OH224922   1.348   6.105  15.278  0.6286  0.1642  0.0432
 1144TIP3    H124923   1.382   6.173  15.337  1.0456  2.2384 -2.3939
 1144TIP3    H224924   1.425   6.054  15.254  0.4114 -0.8757  1.4163
 1145TIP3   OH224925   4.671   6.336   6.198 -0.2978 -0.1291 -0.0523
 1145TIP3    H124926   4.696   6.309   6.286 -1.4152  0.4093  0.4463
 1145TIP3    H224927   4.666   6.432   6.203 -2.9804 -0.2163  0.0635
 1146TIP3   OH224928   2.813   6.507  15.139  0.4055 -0.2975  0.1652
 1146TIP3    H124929   2.867   6.545  15.069 -1.3192  0.5840 -0.7506
 1146TIP3    H224930   2.792   6.581  15.196  1.3163 -0.9054  1.3478
 1147TIP3   OH224931   4.999   6.822  12.882 -0.1734 -0.8433  0.9672
 1147TIP3    H124932   4.964   6.789  12.799  2.2191  0.2530 -0.6141
 1147TIP3    H224933   5.081   6.775  12.893  1.5311  1.7764  0.5202
 1148TIP3   OH224934   3.277   4.651  15.268  0.3268  0.0941 -0.1649
 1148TIP3    H124935   3.311   4.619  15.185  0.6911  0.6580 -0.2417
 1148TIP3    H224936   3.256   4.571  15.318  1.5378 -0.2801 -0.2184
 1149TIP3   OH224937   5.875   0.816   0.074 -0.2731  0.0716  0.0951
 1149TIP3    H124938   5.868   0.742   0.014 -0.6481  0.0749  0.1314
 1149TIP3    H224939   5.943   0.790   0.137  0.3420  0.1983 -0.5055
 1150TIP3   OH224940   4.255   4.141  12.220  0.1081  0.5695  0.2621
 1150TIP3    H124941   4.216   4.221  12.255  0.0050  1.5748 -1.9969
 1150TIP3    H224942   4.318   4.171  12.155  0.8353 -1.1788  0.0964
 1151TIP3   OH224943   6.372   5.498   5.468  0.0405 -0.0986  0.1260
 1151TIP3    H124944   6.332   5.513   5.382 -0.5520 -1.5029  0.1390
 1151TIP3    H224945   6.298   5.485   5.527  0.4659 -0.2398  0.6339
 1152TIP3   OH224946   4.315   1.363   3.491 -0.1666 -0.3676 -0.0623
 1152TIP3    H124947   4.265   1.284   3.508 -0.8492 -0.1604 -1.0122
 1152TIP3    H224948   4.361   1.381   3.573  0.0193 -1.7481  0.1565
 1153TIP3   OH224949   1.854   2.499  16.317 -0.1748  0.2549 -0.2302
 1153TIP3    H124950   1.876   2.406  16.306 -0.9048  0.1951 -1.3469
 1153TIP3    H224951   1.930   2.537  16.361  1.7863 -0.1612 -3.0047
 1154TIP3   OH224952   0.653   4.561   5.773 -0.5739 -0.5038 -0.6658
 1154TIP3    H124953   0.698   4.542   5.856 -2.8949  2.4447  1.4537
 1154TIP3    H224954   0.703   4.633   5.734 -1.9211  1.1144  0.4750
 1155TIP3   OH224955   4.722   2.193   3.091 -0.0342 -0.8490 -0.4571
 1155TIP3    H124956   4.813   2.223   3.088 -0.4613  1.2848  2.8991
 1155TIP3    H224957   4.672   2.265   3.053 -0.5389 -0.5607  0.7319
 1156TIP3   OH224958   1.323   0.714  14.700  0.4298 -0.2557 -0.4210
 1156TIP3    H124959   1.411   0.704  14.735  0.3258  1.2943  0.3490
 1156TIP3    H224960   1.327   0.676  14.612  0.8919 -3.5912  0.8987
 1157TIP3   OH224961   4.296   1.924  13.512  0.2125 -0.6113  0.0196
 1157TIP3    H124962   4.287   1.862  13.584 -0.4965 -1.1303 -0.5051
 1157TIP3    H224963   4.231   1.896  13.448  0.3390  0.2792 -0.5112
 1158TIP3   OH224964   6.176   2.019   0.377 -0.4410  0.0078  0.0769
 1158TIP3    H124965   6.149   2.051   0.463  1.3204  1.5445  0.1352
 1158TIP3    H224966   6.096   1.987   0.337 -1.5828  0.6784  1.6933
 1159TIP3   OH224967   3.222   2.761  11.001  0.0072  0.1580  0.1022
 1159TIP3    H124968   3.263   2.678  10.974  0.1763  0.7340 -1.5388
 1159TIP3    H224969   3.284   2.799  11.062 -0.8433 -1.6749  2.2421
 1160TIP3   OH224970   3.214   4.208   3.502  0.3612  0.3986 -0.0872
 1160TIP3    H124971   3.233   4.242   3.415 -0.5594  0.1551 -0.3889
 1160TIP3    H224972   3.120   4.194   3.503  0.4608 -0.3239  0.6862
 1161TIP3   OH224973   3.938   4.816   0.254  0.3239  0.4712 -0.3124
 1161TIP3    H124974   3.845   4.825   0.233  0.2766 -0.7903 -0.6995
 1161TIP3    H224975   3.978   4.787   0.172  1.1355  1.3572 -0.2508
 1162TIP3   OH224976   3.005   3.737  15.385 -0.5172 -0.1835  0.2272
 1162TIP3    H124977   3.028   3.647  15.408 -0.4647  0.0189  0.9952
 1162TIP3    H224978   2.916   3.748  15.418 -0.3798  0.1640  0.4907
 1163TIP3   OH224979   1.654   6.352  14.229 -1.0059  0.0091 -0.6112
 1163TIP3    H124980   1.612   6.435  14.250 -1.9933 -0.6530  0.0992
 1163TIP3    H224981   1.687   6.364  14.140 -1.5944  0.9877 -0.7098
 1164TIP3   OH224982   6.219   1.409   4.329 -0.2924 -0.4531 -0.0499
 1164TIP3    H124983   6.262   1.412   4.243 -0.0123 -0.8718  0.0712
 1164TIP3    H224984   6.248   1.326   4.367 -0.3908 -0.2556  0.4638
 1165TIP3   OH224985   0.706   1.497   1.372  0.3033  0.0401 -0.1561
 1165TIP3    H124986   0.749   1.564   1.319 -1.1545 -0.2322 -1.7478
 1165TIP3    H224987   0.642   1.545   1.424  1.7276  0.3061  1.4396
 1166TIP3   OH224988   4.629   3.064  15.221 -0.1798 -0.1563  0.1082
 1166TIP3    H124989   4.583   3.133  15.173 -1.3415 -1.0760 -0.1332
 1166TIP3    H224990   4.637   3.098  15.310 -0.2099  0.5254 -0.1427
 1167TIP3   OH224991   2.736   1.057   3.543  0.1108 -0.1680 -0.5711
 1167TIP3    H124992   2.744   1.079   3.451  1.4821  1.8112 -0.0538
 1167TIP3    H224993   2.826   1.037   3.571 -0.2594 -0.5641  0.3842
 1168TIP3   OH224994   3.057   1.981   1.898  0.5272  0.2325  0.2318
 1168TIP3    H124995   2.981   2.028   1.864 -0.1950 -0.5792  0.6574
 1168TIP3    H224996   3.096   1.939   1.821 -0.0147 -0.1058  0.1372
 1169TIP3   OH224997   0.729   0.220   3.993 -0.0713  0.2888  0.0611
 1169TIP3    H124998   0.656   0.159   3.995  2.3452 -2.8154  1.4330
 1169TIP3    H224999   0.765   0.212   3.905  0.3588 -0.4795  0.2977
 1170TIP3   OH225000   1.317   1.818   5.501  0.1219  0.0632 -0.1395
 1170TIP3    H125001   1.406   1.801   5.470  0.6331  1.4784  0.4900
 1170TIP3    H225002   1.329   1.876   5.576 -1.3187 -0.0578  0.1971
 1171TIP3   OH225003   6.059   0.011  11.590  0.2728 -0.3563  1.0266
 1171TIP3    H125004   5.991  -0.031  11.644  0.3782 -0.7834  0.8208
 1171TIP3    H225005   6.013   0.084  11.548  0.0694 -0.3192  1.3077
 1172TIP3   OH225006   1.748   1.005  14.122 -0.4754  0.2702 -0.4695
 1172TIP3    H125007   1.673   1.055  14.156  0.1032 -0.0282  1.3485
 1172TIP3    H225008   1.795   1.067  14.067 -1.3626  0.8358 -0.6139
 1173TIP3   OH225009   5.375   2.201  11.265 -0.2037 -0.9685 -0.1189
 1173TIP3    H125010   5.338   2.286  11.290  0.9485 -0.7243  0.8286
 1173TIP3    H225011   5.411   2.216  11.178  0.2148 -0.3979  0.1401
 1174TIP3   OH225012   4.786   3.990  13.916 -0.3968  0.2294 -0.5497
 1174TIP3    H125013   4.764   3.897  13.917  0.3796  0.0309 -0.8843
 1174TIP3    H225014   4.706   4.033  13.887 -0.6230 -0.3855 -0.8657
 1175TIP3   OH225015   1.209   3.409  14.026  0.1752  0.1782 -0.4862
 1175TIP3    H125016   1.206   3.486  14.081  1.1464 -0.1414  0.0440
 1175TIP3    H225017   1.215   3.335  14.087 -0.5896 -0.3119 -0.9846
 1176TIP3   OH225018   2.857   6.085  14.456 -0.5520  0.3763 -0.5167
 1176TIP3    H125019   2.913   6.098  14.380  0.6036  2.5375  0.6172
 1176TIP3    H225020   2.820   6.171  14.474 -1.8266 -0.3579  0.6237
 1177TIP3   OH225021   2.339   1.478   6.584  0.4768 -0.2551  0.1478
 1177TIP3    H125022   2.369   1.392   6.615  0.4437  0.0425  1.0154
 1177TIP3    H225023   2.418   1.522   6.554  0.8058  0.1637  1.5540
 1178TIP3   OH225024   1.676   2.463   1.626  0.2809  0.1723  0.4909
 1178TIP3    H125025   1.701   2.530   1.563  0.3416 -0.4756 -0.1853
 1178TIP3    H225026   1.647   2.389   1.573 -2.1320  0.5127  1.2407
 1179TIP3   OH225027   2.718   6.694  15.670  0.5379 -0.4517  0.2795
 1179TIP3    H125028   2.806   6.670  15.641 -0.6471 -2.9125 -1.5899
 1179TIP3    H225029   2.721   6.683  15.766  2.2824 -0.2803  0.2839
 1180TIP3   OH225030   4.400   0.370   2.275  0.1382 -0.3737 -0.3535
 1180TIP3    H125031   4.478   0.403   2.319 -1.0218  0.3909  1.2418
 1180TIP3    H225032   4.327   0.406   2.326 -1.2407 -2.9931 -0.3312
 1181TIP3   OH225033   5.326   5.876  13.735  0.3029  0.3633  0.4628
 1181TIP3    H125034   5.389   5.805  13.726  0.4940  0.1136  3.0408
 1181TIP3    H225035   5.288   5.864  13.823 -1.7061  1.8140 -0.1235
 1182TIP3   OH225036   6.214   3.539   5.770 -0.2435 -0.4913 -0.7181
 1182TIP3    H125037   6.249   3.451   5.780  1.1957  0.1617  0.4001
 1182TIP3    H225038   6.235   3.583   5.852 -2.1613  0.5045 -0.7086
 1183TIP3   OH225039   0.692   2.049   5.797  0.1285  0.0233  0.2633
 1183TIP3    H125040   0.627   1.982   5.819  1.9649 -0.9665  3.4069
 1183TIP3    H225041   0.737   2.014   5.720 -0.9535 -0.8115 -0.0199
 1184TIP3   OH225042   2.769   0.550  13.534  0.3561  0.0154  0.0666
 1184TIP3    H125043   2.767   0.644  13.552 -1.6626 -0.3909  2.6358
 1184TIP3    H225044   2.819   0.513  13.606  0.1249 -0.9690 -0.2625
 1185TIP3   OH225045   0.616   3.790   3.353 -0.1313 -0.0614  0.1632
 1185TIP3    H125046   0.548   3.764   3.415  0.8563 -1.6022  0.6662
 1185TIP3    H225047   0.638   3.879   3.379 -1.4931  0.2318  0.3922
 1186TIP3   OH225048   3.392   3.753   3.045 -0.2620 -0.5342 -0.6125
 1186TIP3    H125049   3.296   3.756   3.047 -0.3609  0.5980 -3.5041
 1186TIP3    H225050   3.413   3.674   3.096 -2.7049 -0.9060 -0.0147
 1187TIP3   OH225051   5.817   6.774  11.792  0.2463 -0.4653  0.3791
 1187TIP3    H125052   5.776   6.843  11.845 -1.4388 -1.8226  0.9392
 1187TIP3    H225053   5.880   6.733  11.851  0.7765  0.1548  0.2520
 1188TIP3   OH225054   2.731   0.360   6.292 -0.5000  0.0096  0.5150
 1188TIP3    H125055   2.726   0.324   6.380 -0.7311  1.4281  1.0982
 1188TIP3    H225056   2.753   0.452   6.304 -0.6053  0.2469 -0.9040
 1189TIP3   OH225057   4.374   2.019  14.936  1.1530 -0.2685  0.1046
 1189TIP3    H125058   4.333   1.936  14.913  0.1002 -0.2611  1.8276
 1189TIP3    H225059   4.415   2.049  14.854 -1.7451 -0.5782 -1.5721
 1190TIP3   OH225060   3.908   2.438  13.246  0.1778 -0.0580  0.8135
 1190TIP3    H125061   4.002   2.426  13.256  0.5927  1.4072 -0.8623
 1190TIP3    H225062   3.893   2.434  13.152 -1.4906 -0.4936  1.0588
 1191TIP3   OH225063   4.198   0.711  14.633 -0.5337 -0.1581 -0.3765
 1191TIP3    H125064   4.132   0.644  14.644 -2.9848  1.6527 -2.8100
 1191TIP3    H225065   4.260   0.675  14.570 -1.1659 -0.5631 -0.7639
 1192TIP3   OH225066   1.380   5.448   2.581  0.0503 -0.2156  0.1460
 1192TIP3    H125067   1.317   5.431   2.651  0.9525 -0.4647  0.9084
 1192TIP3    H225068   1.338   5.515   2.527 -0.4769  0.2835  1.1550
 1193TIP3   OH225069   5.557   4.288  14.574  0.5006  0.0947 -0.5068
 1193TIP3    H125070   5.575   4.379  14.599 -1.7578  0.9054 -1.6193
 1193TIP3    H225071   5.607   4.275  14.494  0.4726  0.5165 -0.5960
 1194TIP3   OH225072   1.269   0.479  14.497  0.0191  0.4942  0.2715
 1194TIP3    H125073   1.330   0.422  14.449  1.2840 -0.1379  2.4814
 1194TIP3    H225074   1.223   0.527  14.428  2.4242  0.4010 -1.5723
 1195TIP3   OH225075   3.664   0.634  13.265 -0.3553  0.3769 -0.4859
 1195TIP3    H125076   3.663   0.554  13.212 -1.1296  0.8568 -1.2273
 1195TIP3    H225077   3.729   0.691  13.222  1.8404 -0.6350  1.3087
 1196TIP3   OH225078   4.980   0.246  12.228 -0.2248  0.4482  0.7487
 1196TIP3    H125079   5.066   0.205  12.226 -1.2192 -1.7659 -0.5058
 1196TIP3    H225080   4.963   0.261  12.321  0.5202 -1.3887  1.2240
 1197TIP3   OH225081   0.956   5.319  14.139 -0.2903  0.3812 -0.1594
 1197TIP3    H125082   0.909   5.260  14.081  0.4528  0.5324 -0.9339
 1197TIP3    H225083   1.035   5.344  14.090  0.6009  0.1377  1.0979
 1198TIP3   OH225084   5.422   4.966  16.935  0.1586 -0.1279 -0.0116
 1198TIP3    H125085   5.368   4.917  16.873 -0.1578 -0.2942  0.3860
 1198TIP3    H225086   5.427   5.054  16.899 -1.3491  0.2072  0.5251
 1199TIP3   OH225087   0.894   2.852   3.610 -0.2297 -0.5138  0.1912
 1199TIP3    H125088   0.865   2.866   3.520 -3.2686  1.6911  1.3432
 1199TIP3    H225089   0.988   2.833   3.603  0.1496  1.7732 -3.2700
 1200TIP3   OH225090   5.874   5.810  11.170  0.0539  0.0312  0.1469
 1200TIP3    H125091   5.791   5.774  11.141  0.5153  0.0876 -1.3257
 1200TIP3    H225092   5.864   5.820  11.265 -2.5675  2.4438 -0.2292
 1201TIP3   OH225093   5.576   2.921   1.321 -0.4480  0.2251  0.4480
 1201TIP3    H125094   5.527   2.853   1.275  1.0402  1.2851 -3.0578
 1201TIP3    H225095   5.657   2.877   1.348  0.5678  0.5398 -1.9219
 1202TIP3   OH225096   0.167   0.610  13.744 -0.2946 -0.2236  0.7097
 1202TIP3    H125097   0.171   0.587  13.837 -0.0567  0.8699  0.9812
 1202TIP3    H225098   0.258   0.630  13.721 -0.0071 -2.4253 -0.2937
 1203TIP3   OH225099   5.740   5.680   2.409  0.2020  0.2395  0.2317
 1203TIP3    H125100   5.691   5.668   2.490  0.4041  1.5660  0.5780
 1203TIP3    H225101   5.679   5.655   2.339  0.4770 -2.2730  0.8061
 1204TIP3   OH225102   4.119   0.290  15.221  0.1786  0.0794 -0.3264
 1204TIP3    H125103   4.140   0.319  15.310 -2.8765 -0.4855  0.7130
 1204TIP3    H225104   4.101   0.196  15.230 -3.0342  0.5256 -0.8023
 1205TIP3   OH225105   2.071   1.854  12.195 -0.5417 -0.8547  0.3329
 1205TIP3    H125106   2.005   1.805  12.145 -0.4440 -0.0549 -0.6269
 1205TIP3    H225107   2.097   1.925  12.136  0.7280 -0.7911  0.9357
 1206TIP3   OH225108   4.704   1.904  12.757 -0.1318 -0.2554  0.1483
 1206TIP3    H125109   4.621   1.894  12.803 -0.0382 -1.9650  0.0117
 1206TIP3    H225110   4.721   1.818  12.720  2.4579 -0.4024  1.4650
 1207TIP3   OH225111   5.788   0.858   1.439  0.6982 -0.1651 -0.2717
 1207TIP3    H125112   5.767   0.892   1.526  3.4049  1.1901 -0.0555
 1207TIP3    H225113   5.814   0.768   1.454  1.4975  0.1651  0.4239
 1208TIP3   OH225114   0.679   4.291   2.277 -0.0303 -0.2560 -0.4438
 1208TIP3    H125115   0.629   4.210   2.287  0.1410 -0.0822  3.1529
 1208TIP3    H225116   0.620   4.359   2.309  0.3320  0.9016 -2.1160
 1209TIP3   OH225117   6.035   6.043   6.513  0.1598 -0.4040  0.0783
 1209TIP3    H125118   5.978   6.061   6.438  0.9517  1.2509 -0.1770
 1209TIP3    H225119   6.085   5.966   6.488  0.2697  0.0084 -1.0307
 1210TIP3   OH225120   3.073   4.905   3.362  0.5406 -0.2092  0.1029
 1210TIP3    H125121   3.055   4.933   3.273  0.2543  2.2892  0.8609
 1210TIP3    H225122   3.168   4.917   3.372  0.7147 -1.3156 -0.0969
 1211TIP3   OH225123   2.935   0.458  13.721  0.3446 -0.0864  0.0610
 1211TIP3    H125124   3.016   0.409  13.707  1.6887  1.1224  2.6913
 1211TIP3    H225125   2.895   0.417  13.798 -0.1531  0.9005  0.3567
 1212TIP3   OH225126   6.425   4.077   5.337 -0.0482 -0.1825 -0.3483
 1212TIP3    H125127   6.426   4.080   5.433  0.9123  2.1933 -0.3664
 1212TIP3    H225128   6.336   4.050   5.315 -0.3260 -0.6409  1.1881
 1213TIP3   OH225129   5.695   3.852   5.169 -0.0801 -0.0749  0.1438
 1213TIP3    H125130   5.604   3.871   5.189 -0.2459 -0.4481 -0.2343
 1213TIP3    H225131   5.701   3.862   5.074  0.5731  1.2031  0.2913
 1214TIP3   OH225132   2.414   4.982   0.037 -0.0120 -0.4189  0.4798
 1214TIP3    H125133   2.344   4.940   0.087 -0.9952  1.2723  0.5922
 1214TIP3    H225134   2.471   5.022   0.102  1.2004 -1.8965  0.3963
 1215TIP3   OH225135   1.085   6.292   1.045 -0.0747  0.0898 -0.5249
 1215TIP3    H125136   1.137   6.314   1.123 -0.2179 -1.0071 -0.0958
 1215TIP3    H225137   1.128   6.338   0.973  1.1665 -0.3591 -0.0910
 1216TIP3   OH225138   1.382   5.250   5.711 -0.4241  0.2017 -0.2465
 1216TIP3    H125139   1.346   5.328   5.754  0.9160  1.3734 -1.1573
 1216TIP3    H225140   1.384   5.273   5.618 -1.3841 -1.5232 -0.7372
 1217TIP3   OH225141   3.417   2.508   2.249  0.1701 -0.0186 -0.5538
 1217TIP3    H125142   3.424   2.473   2.161 -0.1475 -1.8615  0.1151
 1217TIP3    H225143   3.350   2.576   2.242 -1.2953 -1.4779 -1.3750
 1218TIP3   OH225144   5.418   3.284   4.202 -0.3653  0.0595 -0.7575
 1218TIP3    H125145   5.442   3.346   4.134 -0.3178  1.0865  0.1620
 1218TIP3    H225146   5.455   3.321   4.282  1.1047 -2.0051 -0.3989
 1219TIP3   OH225147   5.712   2.660   0.017 -0.1609 -0.0247 -0.0210
 1219TIP3    H125148   5.661   2.721   0.070  0.9210  0.0378  0.9814
 1219TIP3    H225149   5.711   2.699  -0.071 -1.4997  0.1643  0.0576
 1220TIP3   OH225150   2.037   2.123   4.705  0.3496  0.2192 -0.2837
 1220TIP3    H125151   2.021   2.101   4.613 -1.2988  2.1746 -0.5509
 1220TIP3    H225152   1.957   2.168   4.733  0.6398 -0.6681  2.2536
 1221TIP3   OH225153   6.212   5.707   1.558 -0.1297 -0.0252  0.0329
 1221TIP3    H125154   6.278   5.685   1.492  2.9638  0.8222  2.5701
 1221TIP3    H225155   6.225   5.800   1.574 -1.5269  0.0132  1.0645
 1222TIP3   OH225156   1.721   5.151   2.073  0.0768 -0.4003 -0.2078
 1222TIP3    H125157   1.747   5.135   2.163  0.4525 -2.1417 -0.5833
 1222TIP3    H225158   1.632   5.184   2.079 -1.0036 -3.1950  0.7466
 1223TIP3   OH225159   6.015   4.183  12.030  0.9247 -0.7814  0.1537
 1223TIP3    H125160   6.083   4.117  12.042  1.5189 -0.2303 -0.0736
 1223TIP3    H225161   6.041   4.255  12.088  2.7003  1.0370 -2.5914
 1224TIP3   OH225162   6.790   2.458   0.002 -0.1876  0.1601 -0.2601
 1224TIP3    H125163   6.710   2.452  -0.051 -1.6835  0.9873  1.7773
 1224TIP3    H225164   6.782   2.541   0.048  1.0479 -0.4985  1.2375
 1225TIP3   OH225165   3.156   6.074   0.142  0.6221 -0.1709  0.2725
 1225TIP3    H125166   3.233   6.029   0.178  1.1964  1.6133  1.4097
 1225TIP3    H225167   3.185   6.165   0.129 -0.8163  0.1660 -0.8876
 1226TIP3   OH225168   3.305   4.087  12.170  0.4798 -0.1161 -0.0207
 1226TIP3    H125169   3.385   4.107  12.219  0.2279 -1.5634  1.0383
 1226TIP3    H225170   3.271   4.173  12.144  0.5448  0.7269  2.4735
 1227TIP3   OH225171   6.491   6.378   0.414  0.3557 -0.2503  0.5598
 1227TIP3    H125172   6.578   6.368   0.453  1.1292  0.2950 -0.9423
 1227TIP3    H225173   6.508   6.391   0.321 -1.4265 -1.7839 -0.0413
 1228TIP3   OH225174   2.165   0.087   3.464 -0.0576  0.1913 -0.5409
 1228TIP3    H125175   2.171   0.164   3.407  0.9838  1.0974  0.7467
 1228TIP3    H225176   2.094   0.107   3.525 -0.9185 -0.6176 -1.2471
 1229TIP3   OH225177   2.740   5.216   4.541  1.0039  0.0570  0.0275
 1229TIP3    H125178   2.656   5.260   4.531  2.0899  2.0239 -1.2082
 1229TIP3    H225179   2.785   5.264   4.610  2.0586  0.7159 -1.0652
 1230TIP3   OH225180   3.003   4.183  15.401 -0.1624  0.2769  0.1859
 1230TIP3    H125181   3.025   4.274  15.419  0.3914 -0.3815  3.4576
 1230TIP3    H225182   3.030   4.135  15.480 -1.5125 -2.5493 -0.9144
 1231TIP3   OH225183   4.215   6.350  14.997 -0.3465  0.3228 -0.1564
 1231TIP3    H125184   4.139   6.371  14.943 -0.4332  3.4379  0.9576
 1231TIP3    H225185   4.179   6.342  15.086  0.6317  2.8208  0.5459
 1232TIP3   OH225186   0.176   0.144   5.573  0.4538 -0.0092 -0.0150
 1232TIP3    H125187   0.085   0.117   5.558  0.6409 -0.3769 -0.5311
 1232TIP3    H225188   0.183   0.151   5.668  0.2857 -1.4395  0.1372
 1233TIP3   OH225189   6.650   5.239  14.588 -0.4316 -0.5116  0.3422
 1233TIP3    H125190   6.564   5.274  14.564 -0.1653 -0.2076 -0.1709
 1233TIP3    H225191   6.701   5.243  14.508 -0.2882 -1.7778  0.3539
 1234TIP3   OH225192   1.507   5.560   2.208 -0.3254 -0.1907  0.0986
 1234TIP3    H125193   1.574   5.620   2.239  0.3618 -0.6843 -0.3969
 1234TIP3    H225194   1.543   5.525   2.126 -1.2277 -0.3919 -0.2195
 1235TIP3   OH225195   2.269   1.030   1.985  0.1807 -0.3476 -0.0258
 1235TIP3    H125196   2.184   0.986   1.978  0.3757 -0.5987 -0.9617
 1235TIP3    H225197   2.262   1.104   1.926  0.7654 -0.6225 -0.4422
 1236TIP3   OH225198   0.097   1.350  12.552 -0.2515  0.2457  0.2225
 1236TIP3    H125199   0.014   1.365  12.597 -1.0702  1.4845 -1.5843
 1236TIP3    H225200   0.072   1.316  12.467  1.1364  0.0243 -0.1093
 1237TIP3   OH225201   0.454   5.037   1.931  0.5992  0.5062 -0.8861
 1237TIP3    H125202   0.374   5.090   1.927  0.3698  0.4998  1.8678
 1237TIP3    H225203   0.510   5.082   1.995  1.5643 -1.0494 -0.5704
 1238TIP3   OH225204   6.078   1.272   4.009  0.0468 -0.1770 -0.3241
 1238TIP3    H125205   6.147   1.274   3.943 -0.4302 -1.8099 -0.9058
 1238TIP3    H225206   6.081   1.359   4.049  0.6897  0.6871 -2.1353
 1239TIP3   OH225207   2.205   4.589  12.647 -0.0874  0.6287  0.1670
 1239TIP3    H125208   2.208   4.684  12.663  0.7555  1.0769 -2.2233
 1239TIP3    H225209   2.183   4.582  12.554 -3.0588 -1.6231  0.8888
 1240TIP3   OH225210   3.365   6.000  14.177  0.4129 -0.5627 -0.8943
 1240TIP3    H125211   3.430   5.997  14.248  0.1893 -1.0065 -0.7047
 1240TIP3    H225212   3.281   6.001  14.222  0.2802 -0.2468 -1.1484
 1241TIP3   OH225213   5.177   2.018  15.519 -0.1694  0.5800  0.1122
 1241TIP3    H125214   5.244   2.071  15.475 -0.9136  1.8730  0.4865
 1241TIP3    H225215   5.097   2.035  15.470 -0.5914  0.4511  0.7464
 1242TIP3   OH225216   4.125   2.070   2.422  0.0592  0.4268  0.4226
 1242TIP3    H125217   4.173   1.995   2.457 -0.3259  0.2694  0.6164
 1242TIP3    H225218   4.115   2.129   2.497  2.2898  1.7098 -0.1968
 1243TIP3   OH225219   3.367   5.826  10.585  0.2813  0.2281 -0.3202
 1243TIP3    H125220   3.408   5.837  10.671 -1.2607  2.1621  0.2393
 1243TIP3    H225221   3.273   5.826  10.603 -0.0754 -2.0676 -1.7747
 1244TIP3   OH225222   1.220   6.565   0.918 -0.3062  0.5740 -0.1548
 1244TIP3    H125223   1.297   6.581   0.864 -1.3816  1.8678 -1.4046
 1244TIP3    H225224   1.203   6.649   0.961  0.2501 -0.3043  1.9036
 1245TIP3   OH225225   4.947   0.711   5.478 -0.0019 -0.1201  0.1323
 1245TIP3    H125226   4.886   0.784   5.481  0.9104  0.6990 -0.8830
 1245TIP3    H225227   5.032   0.750   5.456  0.9891 -1.1904  1.7777
 1246TIP3   OH225228   0.855   6.576  14.330 -0.6537 -0.0316 -0.7214
 1246TIP3    H125229   0.763   6.569  14.353 -0.5627  0.2288 -0.2692
 1246TIP3    H225230   0.863   6.530  14.246 -1.2430  0.1787 -0.8951
 1247TIP3   OH225231   1.953   1.760  13.063 -0.2397  0.3352 -0.0553
 1247TIP3    H125232   2.047   1.745  13.066  0.0027  1.8357  0.2035
 1247TIP3    H225233   1.942   1.840  13.013 -1.2576  1.1648  1.4067
 1248TIP3   OH225234   2.954   1.129  10.374 -0.1968 -0.0157  0.2600
 1248TIP3    H125235   2.958   1.216  10.414 -2.5044  0.9949 -1.5139
 1248TIP3    H225236   2.871   1.092  10.403  0.4928 -1.4563  0.5347
 1249TIP3   OH225237   4.994   3.434  15.770  0.3121  0.2072 -0.4031
 1249TIP3    H125238   4.964   3.480  15.691 -0.2633 -0.3028 -0.4811
 1249TIP3    H225239   4.935   3.465  15.839 -1.2283 -1.7089 -0.7895
 1250TIP3   OH225240   2.029   5.315   3.321 -0.2275 -0.1551 -0.3602
 1250TIP3    H125241   2.037   5.232   3.274 -0.1191 -1.3113  1.6151
 1250TIP3    H225242   1.961   5.362   3.273  0.3875 -0.9535 -2.0960
 1251TIP3   OH225243   4.068   0.721   5.250  0.2411  0.3800  0.1711
 1251TIP3    H125244   4.108   0.805   5.228 -1.2590  1.8627  2.6529
 1251TIP3    H225245   4.140   0.658   5.247  1.1693  1.3731 -3.0850
 1252TIP3   OH225246   5.154   1.043   5.402  0.0681 -0.2133 -0.0297
 1252TIP3    H125247   5.247   1.065   5.393 -0.2888  1.3023 -0.3513
 1252TIP3    H225248   5.144   0.961   5.354  1.4158 -0.9315  0.8488
 1253TIP3   OH225249   4.672   0.860   5.503  0.1426  0.3938 -0.2934
 1253TIP3    H125250   4.595   0.820   5.463  0.1917 -0.2154  0.2085
 1253TIP3    H225251   4.669   0.951   5.475 -1.6268  0.7801  0.9521
 1254TIP3   OH225252   1.885   2.225  16.345 -0.4105 -0.4743 -0.4477
 1254TIP3    H125253   1.943   2.176  16.286 -1.4718 -1.0954 -0.9907
 1254TIP3    H225254   1.917   2.202  16.433  1.0954  0.3482 -0.7391
 1255TIP3   OH225255   4.774   2.267   5.257  0.3458  0.3250  0.1135
 1255TIP3    H125256   4.758   2.360   5.242  1.2718  0.2776 -1.4079
 1255TIP3    H225257   4.692   2.234   5.294 -1.2301  1.1337 -2.4043
 1256TIP3   OH225258   0.499   5.180  14.558  0.1778  0.0428 -0.1739
 1256TIP3    H125259   0.589   5.174  14.526  0.6983  2.1841  0.7517
 1256TIP3    H225260   0.504   5.153  14.650  0.2571  1.9150  0.4068
 1257TIP3   OH225261   6.660   4.274  11.409  0.1576  0.3608  0.2725
 1257TIP3    H125262   6.651   4.353  11.463 -0.7829  0.5420 -0.1268
 1257TIP3    H225263   6.628   4.300  11.323  0.5542 -0.2511 -0.0631
 1258TIP3   OH225264   2.894   3.809   1.670  0.2543  0.6691 -0.0576
 1258TIP3    H125265   2.876   3.733   1.724  0.3653  0.9641  0.4018
 1258TIP3    H225266   2.808   3.843   1.647  0.2036  0.3034 -0.4089
 1259TIP3   OH225267   0.918   3.503   5.868 -0.5833 -0.0242 -0.1886
 1259TIP3    H125268   0.941   3.430   5.810  0.9855 -0.6073  1.1073
 1259TIP3    H225269   0.877   3.567   5.810 -0.7219 -1.3317 -1.6138
 1260TIP3   OH225270   5.134   4.348   6.038 -0.5124 -0.1970  0.6863
 1260TIP3    H125271   5.088   4.271   6.071 -0.4952  0.0276  1.2321
 1260TIP3    H225272   5.076   4.384   5.971 -0.0770 -1.2502 -0.2907
 1261TIP3   OH225273   4.313   0.831   3.064  0.0200 -0.4803  0.0958
 1261TIP3    H125274   4.358   0.864   2.986 -0.3960 -1.1009 -0.4162
 1261TIP3    H225275   4.232   0.794   3.031 -0.3202 -0.4444  0.8734
 1262TIP3   OH225276   5.294   1.528   0.038 -0.5214  0.2485 -0.1543
 1262TIP3    H125277   5.358   1.577  -0.013  1.2258 -1.8116 -0.1076
 1262TIP3    H225278   5.215   1.526  -0.016 -0.1795  1.8258 -0.7578
 1263TIP3   OH225279   4.521   3.321   2.593 -0.5526 -0.0638  0.4754
 1263TIP3    H125280   4.495   3.334   2.502 -1.2282 -0.7915  0.5512
 1263TIP3    H225281   4.441   3.291   2.637  0.2437 -1.7673  0.8588
 1264TIP3   OH225282   2.278   2.863   0.936 -0.1217  0.5551  0.4177
 1264TIP3    H125283   2.313   2.890   0.851  1.9152 -1.9956  0.3196
 1264TIP3    H225284   2.305   2.932   0.996  2.1370  0.3963 -0.3203
 1265TIP3   OH225285   0.195   3.963   0.424  0.5994  0.2433 -0.5102
 1265TIP3    H125286   0.237   4.027   0.482  2.6960 -0.8355 -0.7486
 1265TIP3    H225287   0.206   3.999   0.336  0.1841  0.4057 -0.4956
 1266TIP3   OH225288   5.883   6.410   5.726 -0.5712 -0.3929 -0.1468
 1266TIP3    H125289   5.907   6.498   5.696 -0.5665 -0.8478 -1.5213
 1266TIP3    H225290   5.959   6.356   5.706 -0.5399 -0.7201  0.7759
 1267TIP3   OH225291   5.275   3.570   1.138 -0.6737  0.1027  0.6275
 1267TIP3    H125292   5.199   3.523   1.104  0.7070 -0.8328 -1.3514
 1267TIP3    H225293   5.238   3.641   1.190 -2.8766 -0.7062  0.2537
 1268TIP3   OH225294   4.555   6.419  11.705 -0.6599 -0.5485 -0.1349
 1268TIP3    H125295   4.607   6.345  11.676  0.0881 -0.1138  0.0764
 1268TIP3    H225296   4.530   6.397  11.795  1.7894  0.5945  0.8899
 1269TIP3   OH225297   0.849   5.771  10.810  0.1310 -0.6337  0.2250
 1269TIP3    H125298   0.922   5.750  10.869  1.8531 -0.3669 -1.6813
 1269TIP3    H225299   0.775   5.723  10.846  1.2899 -1.1615  2.0978
 1270TIP3   OH225300   5.249   2.363  16.836 -0.0127 -0.3563  0.3311
 1270TIP3    H125301   5.176   2.328  16.887 -1.2074  0.3614 -0.8110
 1270TIP3    H225302   5.286   2.287  16.791 -1.9124 -0.3891 -1.3094
 1271TIP3   OH225303   5.302   2.568   3.009 -0.4961 -0.7563 -0.1928
 1271TIP3    H125304   5.243   2.541   2.938 -0.0847 -1.2982 -0.3305
 1271TIP3    H225305   5.256   2.542   3.089 -1.4715  0.8377 -0.1815
 1272TIP3   OH225306   0.526   0.430   0.305  0.2888  0.2314 -0.1441
 1272TIP3    H125307   0.481   0.432   0.221 -0.2133  0.3091  0.1254
 1272TIP3    H225308   0.558   0.519   0.318 -1.0629  0.6337  0.5151
 1273TIP3   OH225309   0.418   4.427  14.556  0.5972  0.0207 -0.0181
 1273TIP3    H125310   0.372   4.431  14.472  1.0963  5.0986 -0.3384
 1273TIP3    H225311   0.352   4.392  14.617 -0.8001 -0.8477 -1.9135
 1274TIP3   OH225312   6.431   6.044   6.078  0.6090  0.3827 -0.5269
 1274TIP3    H125313   6.339   6.069   6.076 -0.0589 -1.8174 -0.6197
 1274TIP3    H225314   6.448   6.019   6.169  0.3870 -1.4295 -0.9310
 1275TIP3   OH225315   5.142   5.221  14.770 -0.1139 -0.6521  0.1038
 1275TIP3    H125316   5.129   5.288  14.837 -2.3125  0.9904 -1.8010
 1275TIP3    H225317   5.226   5.243  14.730 -0.2677  0.2689  0.2636
 1276TIP3   OH225318   6.078   6.220   1.122  0.3090 -0.2233  0.7953
 1276TIP3    H125319   6.069   6.143   1.177  2.9376  0.0281  1.6891
 1276TIP3    H225320   6.107   6.290   1.181 -0.5915  1.1024 -0.2468
 1277TIP3   OH225321   5.098   1.858   0.566 -0.0179 -0.8973  0.3460
 1277TIP3    H125322   5.078   1.929   0.505 -0.1466 -0.9234  0.3556
 1277TIP3    H225323   5.064   1.779   0.523  1.1156 -1.1282 -0.1690
 1278TIP3   OH225324   1.966   4.604  11.873 -0.5795 -0.1190 -0.1053
 1278TIP3    H125325   1.981   4.666  11.801 -2.1081  1.0933  0.5677
 1278TIP3    H225326   1.884   4.632  11.912 -0.0907 -1.1148  1.7579
 1279TIP3   OH225327   2.091   5.052   3.481  0.1838  0.4910  0.3494
 1279TIP3    H125328   2.106   5.059   3.387 -0.2154  2.3967  0.3833
 1279TIP3    H225329   2.118   4.963   3.503  0.3667  0.0335 -1.5417
 1280TIP3   OH225330   3.613   4.705  14.312  0.0672  0.1995  0.1913
 1280TIP3    H125331   3.705   4.710  14.338 -0.3095 -1.4487  2.0002
 1280TIP3    H225332   3.615   4.663  14.226  1.0643  1.5019 -0.4519
 1281TIP3   OH225333   1.358   3.981   3.375 -0.0391  0.5194 -0.3926
 1281TIP3    H125334   1.295   4.052   3.385  0.1366  0.6170  0.0185
 1281TIP3    H225335   1.443   4.020   3.395  0.0249  0.1267  0.1293
 1282TIP3   OH225336   2.952   6.095   4.790 -0.1007 -0.1669  0.0310
 1282TIP3    H125337   3.004   6.124   4.865  0.2899 -0.8377  0.0313
 1282TIP3    H225338   2.966   6.162   4.723 -0.1056  0.2113  0.4010
 1283TIP3   OH225339   3.717   6.209   3.921 -0.3462  0.1941 -0.6009
 1283TIP3    H125340   3.781   6.276   3.897 -0.7767 -0.0178 -2.4866
 1283TIP3    H225341   3.756   6.127   3.892 -0.2889 -0.2780  0.7475
 1284TIP3   OH225342   0.329   4.255  11.916 -0.2255  0.4495 -0.2268
 1284TIP3    H125343   0.301   4.254  12.008 -0.5592  0.8651 -0.3212
 1284TIP3    H225344   0.253   4.289  11.869 -0.2705 -0.3430 -0.7347
 1285TIP3   OH225345   6.622   5.820   2.685 -0.1209 -0.4224  0.1078
 1285TIP3    H125346   6.531   5.810   2.657 -0.4276  2.0263 -0.0074
 1285TIP3    H225347   6.638   5.915   2.682  2.7822 -0.8432 -0.9736
 1286TIP3   OH225348   5.280   6.192  12.730  0.6566  0.1456 -0.1357
 1286TIP3    H125349   5.256   6.125  12.667  1.2036  0.4392 -0.6674
 1286TIP3    H225350   5.370   6.172  12.754  0.8765  0.7679 -0.4133
 1287TIP3   OH225351   6.083   4.261  10.778  0.0036  0.5279  0.7113
 1287TIP3    H125352   6.021   4.204  10.732 -0.8954  0.3662  2.0642
 1287TIP3    H225353   6.102   4.331  10.715 -0.9657  0.1780 -0.0072
 1288TIP3   OH225354   1.533   5.365   6.075  0.6909  0.3350 -0.3174
 1288TIP3    H125355   1.584   5.386   6.153  1.5917 -0.5905 -0.6251
 1288TIP3    H225356   1.450   5.333   6.108  1.5121 -1.2323  0.3495
 1289TIP3   OH225357   3.131   2.453   5.934 -0.8346 -0.1686 -0.0766
 1289TIP3    H125358   3.052   2.399   5.933 -0.9633 -0.1800  2.8239
 1289TIP3    H225359   3.099   2.542   5.920 -0.9058 -0.4984 -2.3267
 1290TIP3   OH225360   1.805   3.270  10.503  0.8029 -0.0953  0.6235
 1290TIP3    H125361   1.898   3.248  10.507  0.8318 -0.1267 -0.0395
 1290TIP3    H225362   1.801   3.346  10.444  0.3550 -0.4149  0.2374
 1291TIP3   OH225363   1.114   0.434  15.740  0.4473  0.0394  0.0864
 1291TIP3    H125364   1.069   0.515  15.765 -1.9320 -0.8120 -1.0950
 1291TIP3    H225365   1.207   0.456  15.743  0.0453  1.8619  2.8857
 1292TIP3   OH225366   1.225   3.991  16.196  0.3311  0.0117 -0.3554
 1292TIP3    H125367   1.144   4.041  16.206  0.1547  0.1274 -2.0781
 1292TIP3    H225368   1.281   4.047  16.141  1.4137 -0.2563  0.4435
 1293TIP3   OH225369   2.624   0.525   1.011 -0.0316  0.5487  0.0074
 1293TIP3    H125370   2.567   0.553   1.082  2.2440 -0.7769  2.5542
 1293TIP3    H225371   2.644   0.433   1.030  1.9209  0.5930 -1.4423
 1294TIP3   OH225372   3.485   1.331  11.195  0.0817  0.1981 -0.3937
 1294TIP3    H125373   3.497   1.287  11.111 -0.8843 -0.7854 -0.0453
 1294TIP3    H225374   3.527   1.273  11.258 -0.6148  0.1015 -0.0083
 1295TIP3   OH225375   6.030   4.343   2.090 -0.1877  0.1008  0.3806
 1295TIP3    H125376   5.979   4.287   2.032  1.3629 -1.0027  0.0280
 1295TIP3    H225377   6.063   4.413   2.033  0.5823 -0.4795  0.0918
 1296TIP3   OH225378   1.012   6.735   2.487 -0.0320  0.2188  0.0185
 1296TIP3    H125379   0.965   6.663   2.527  1.0599 -0.7678 -0.4206
 1296TIP3    H225380   1.043   6.788   2.560  0.6165 -0.7076  0.4255
 1297TIP3   OH225381   0.488   5.896  13.904 -0.8601  0.3394 -0.6230
 1297TIP3    H125382   0.555   5.960  13.880  1.2114 -2.0113 -1.5122
 1297TIP3    H225383   0.413   5.918  13.850 -0.5428  2.4870 -0.2810
 1298TIP3   OH225384   2.275   3.407   4.634  0.5728  0.1108 -0.1800
 1298TIP3    H125385   2.242   3.348   4.703  1.2796 -0.9070 -0.6920
 1298TIP3    H225386   2.197   3.453   4.603  0.1452  0.1087  0.8517
 1299TIP3   OH225387   3.478   4.004   3.145 -0.1147  0.3715 -0.1542
 1299TIP3    H125388   3.527   3.947   3.086  0.3769  1.2661 -0.6478
 1299TIP3    H225389   3.418   3.946   3.190  0.2111 -0.4980 -0.7966
 1300TIP3   OH225390   5.548   6.305  13.954 -0.1628  0.6221  0.0227
 1300TIP3    H125391   5.551   6.217  13.916  1.2585  0.8841 -0.5394
 1300TIP3    H225392   5.484   6.352  13.901  1.6221  0.9165 -2.0192
 1301TIP3   OH225393   2.590   3.744   4.567  0.2390  0.4647  0.1953
 1301TIP3    H125394   2.615   3.700   4.647  1.0894 -0.8141 -0.7376
 1301TIP3    H225395   2.548   3.676   4.514 -0.3808  1.2984 -0.4223
 1302TIP3   OH225396   4.474   5.250  11.460 -0.1929  0.5652  0.0562
 1302TIP3    H125397   4.430   5.335  11.453 -1.9838 -0.4300 -2.3437
 1302TIP3    H225398   4.419   5.201  11.522 -0.6762  0.3416 -0.5406
 1303TIP3   OH225399   0.708   6.300   2.239 -0.0002 -0.0699  0.2135
 1303TIP3    H125400   0.782   6.253   2.200 -1.0855 -2.5965  1.0360
 1303TIP3    H225401   0.642   6.302   2.170 -0.8248 -1.9211  0.9044
 1304TIP3   OH225402   4.628   2.782   2.241 -0.3213  0.1365  0.0522
 1304TIP3    H125403   4.629   2.757   2.148 -0.9337  1.4962 -0.3490
 1304TIP3    H225404   4.709   2.832   2.254  0.5954 -1.4462  0.6964
 1305TIP3   OH225405   4.608   5.576   1.926  0.1806  0.0683  0.4553
 1305TIP3    H125406   4.676   5.552   1.862  0.0373 -1.2758  0.7684
 1305TIP3    H225407   4.658   5.604   2.003  0.3619  0.6360  0.1366
 1306TIP3   OH225408   0.962   2.717  13.498 -0.2268 -0.0052  0.2777
 1306TIP3    H125409   0.872   2.685  13.502 -0.7494  1.4995  1.0843
 1306TIP3    H225410   1.013   2.651  13.545 -0.6416 -1.5673 -1.3018
 1307TIP3   OH225411   2.099   5.884   1.356 -0.4404  0.4714 -0.0401
 1307TIP3    H125412   2.157   5.950   1.320  0.2816  1.5361  2.8309
 1307TIP3    H225413   2.011   5.921   1.345 -0.1595  1.2185  0.1510
 1308TIP3   OH225414   6.377   2.859  13.193  0.2050 -0.7107  0.4354
 1308TIP3    H125415   6.348   2.942  13.157  0.5673  0.2778  2.2815
 1308TIP3    H225416   6.297   2.816  13.224  0.1993 -0.1091  1.2927
 1309TIP3   OH225417   0.042   0.265  14.847  0.1979  0.6053  0.1422
 1309TIP3    H125418  -0.011   0.304  14.918 -1.0956  1.0312 -1.0114
 1309TIP3    H225419  -0.018   0.205  14.803  1.3192 -0.4980  0.0585
 1310TIP3   OH225420   0.956   2.745  14.336  0.1727 -0.3457  0.2032
 1310TIP3    H125421   1.002   2.733  14.419 -1.0769 -1.8495  0.7269
 1310TIP3    H225422   0.927   2.657  14.311  0.8711 -0.0020 -2.0698
 1311TIP3   OH225423   5.110   6.125  15.008 -0.2020 -0.1886 -0.2431
 1311TIP3    H125424   5.080   6.208  15.046  0.9761  0.8972 -1.5774
 1311TIP3    H225425   5.158   6.083  15.079 -1.4233 -0.0905  0.6736
 1312TIP3   OH225426   5.205   6.594   1.586  0.0413 -0.3880  0.6724
 1312TIP3    H125427   5.263   6.525   1.553 -0.2853  0.4781 -1.9021
 1312TIP3    H225428   5.136   6.547   1.632 -0.8058 -1.9825 -1.9953
 1313TIP3   OH225429   0.428   1.275  14.456 -0.0370 -0.4439 -0.0635
 1313TIP3    H125430   0.494   1.214  14.491  1.5829  1.3403  0.1502
 1313TIP3    H225431   0.464   1.305  14.373 -1.9833 -1.5906 -1.3917
 1314TIP3   OH225432   0.672   5.411   5.671  0.2455  0.0166  0.1391
 1314TIP3    H125433   0.585   5.412   5.713  1.3011 -0.8499  2.5251
 1314TIP3    H225434   0.710   5.496   5.695  0.2073  0.2711 -0.6565
 1315TIP3   OH225435   6.697   1.000  11.435 -0.3690  0.5439  0.5993
 1315TIP3    H125436   6.716   1.080  11.386 -0.1405  0.5211  0.6473
 1315TIP3    H225437   6.608   1.011  11.467 -0.6675  0.3848 -0.1604
 1316TIP3   OH225438   3.360   4.640  11.853 -0.5697  0.2907 -0.1827
 1316TIP3    H125439   3.313   4.710  11.808  0.9386  1.9603  0.7006
 1316TIP3    H225440   3.450   4.647  11.822  0.0662  0.1833  1.5049
 1317TIP3   OH225441   5.494   1.881   4.399 -0.0270 -0.6277 -0.0448
 1317TIP3    H125442   5.550   1.823   4.451  0.0852 -0.0959  0.4412
 1317TIP3    H225443   5.464   1.827   4.326  0.2448 -1.2337  0.2854
 1318TIP3   OH225444   3.718   6.635   6.344 -0.0027 -0.0164  0.0728
 1318TIP3    H125445   3.651   6.570   6.323  1.6360 -1.0904 -2.2281
 1318TIP3    H225446   3.776   6.591   6.405  0.2353 -0.1264 -0.2363
 1319TIP3   OH225447   2.553   3.988  13.946  0.2333 -0.0433  0.4406
 1319TIP3    H125448   2.479   3.955  13.895 -0.2459 -0.1890  1.2187
 1319TIP3    H225449   2.566   3.923  14.015 -0.0260  0.8186  1.3406
 1320TIP3   OH225450   5.670   4.291   3.740 -0.2780 -0.2439 -0.4723
 1320TIP3    H125451   5.733   4.360   3.762 -0.9126  1.0019 -2.2482
 1320TIP3    H225452   5.721   4.227   3.690  0.3700 -1.2316  1.3972
 1321TIP3   OH225453   3.424   1.532  15.489 -0.0326 -0.0365  0.0772
 1321TIP3    H125454   3.467   1.489  15.415 -0.4680  0.9036 -0.7419
 1321TIP3    H225455   3.334   1.546  15.460 -0.2453  0.2270  0.8380
 1322TIP3   OH225456   6.757   5.885   5.323  0.4251 -0.2434 -0.7762
 1322TIP3    H125457   6.807   5.961   5.292  0.6365  0.2333  0.6077
 1322TIP3    H225458   6.675   5.889   5.275 -0.2589  1.8859  0.4215
 1323TIP3   OH225459   3.586   6.169   5.868  0.6848 -0.2356  1.0211
 1323TIP3    H125460   3.542   6.096   5.825  1.1624  0.5293 -0.8661
 1323TIP3    H225461   3.517   6.215   5.915  0.0585 -0.8799  0.7414
 1324TIP3   OH225462   4.444   2.355   1.414 -0.4789  0.2400 -0.1991
 1324TIP3    H125463   4.468   2.438   1.372  0.3085  0.7066  1.0959
 1324TIP3    H225464   4.396   2.381   1.493 -0.9961 -0.5699 -0.2336
 1325TIP3   OH225465   6.460   1.930   1.048 -0.1141  0.5710 -0.3020
 1325TIP3    H125466   6.546   1.963   1.074  0.1972 -0.0649 -0.5081
 1325TIP3    H225467   6.449   1.849   1.099  0.1109 -0.2029 -1.4385
 1326TIP3   OH225468   5.690   5.497  12.347  0.2768  0.1683 -0.6027
 1326TIP3    H125469   5.761   5.457  12.298  0.1008  0.0099 -0.7316
 1326TIP3    H225470   5.643   5.550  12.282 -1.7415 -2.3414 -1.3544
 1327TIP3   OH225471   4.755   5.025  11.186  0.6023  0.3582  0.0631
 1327TIP3    H125472   4.829   5.066  11.141 -0.6989  0.1471 -2.4186
 1327TIP3    H225473   4.702   4.987  11.116 -0.7250 -1.4395  1.9296
 1328TIP3   OH225474   4.899   6.124  12.274  0.1207 -0.4526 -0.4150
 1328TIP3    H125475   4.879   6.034  12.300 -1.7956  0.1255  0.2639
 1328TIP3    H225476   4.883   6.176  12.353 -1.4228  0.7985 -1.5059
 1329TIP3   OH225477   6.367   1.506  13.292 -0.1691 -0.7385  0.1384
 1329TIP3    H125478   6.361   1.479  13.384 -0.1067  0.9189  0.6533
 1329TIP3    H225479   6.309   1.582  13.286 -0.0615 -0.7462 -1.1624
 1330TIP3   OH225480   1.523   1.502  14.206 -0.3214  0.0996 -0.4562
 1330TIP3    H125481   1.543   1.568  14.272  0.3276 -0.1567 -0.3948
 1330TIP3    H225482   1.604   1.453  14.195 -0.9262 -0.9957 -0.1655
 1331TIP3   OH225483   5.828   3.958  11.058 -0.2856 -0.0988 -0.0837
 1331TIP3    H125484   5.897   3.928  10.999  0.7223  0.2679  0.8881
 1331TIP3    H225485   5.753   3.901  11.037  0.3622 -0.6315 -1.0176
 1332TIP3   OH225486   6.298   0.115  11.754  0.4039 -0.0842  0.0050
 1332TIP3    H125487   6.352   0.194  11.749 -0.4441  0.5855  1.0139
 1332TIP3    H225488   6.259   0.106  11.667  2.1990 -0.6654 -0.7989
 1333TIP3   OH225489   0.283   1.240   5.489  0.2305 -0.2349 -0.5047
 1333TIP3    H125490   0.332   1.205   5.415 -0.0244 -0.3917 -0.6017
 1333TIP3    H225491   0.252   1.326   5.459  0.1126 -0.3058 -0.5866
 1334TIP3   OH225492   5.296   1.298   0.211  0.7913  0.8718  0.0569
 1334TIP3    H125493   5.211   1.261   0.235  1.0487  1.6580  2.3941
 1334TIP3    H225494   5.275   1.366   0.146 -0.7809  3.0264  2.6149
 1335TIP3   OH225495   6.795   0.528   0.435  0.5616  0.1591 -0.4056
 1335TIP3    H125496   6.724   0.566   0.486 -2.4586 -1.7332 -2.9010
 1335TIP3    H225497   6.803   0.438   0.467  0.2913 -0.3047 -1.5803
 1336TIP3   OH225498   2.417   2.415   2.669  0.1429 -0.9771  0.6372
 1336TIP3    H125499   2.442   2.326   2.644  1.5271 -0.8302  1.4200
 1336TIP3    H225500   2.494   2.451   2.714  0.4257  1.3462 -1.4605
 1337TIP3   OH225501   3.180   2.019   5.123  0.0764 -0.3502  0.0308
 1337TIP3    H125502   3.140   1.937   5.152 -1.0267  0.3127  0.4591
 1337TIP3    H225503   3.123   2.050   5.053 -0.6870  0.9996  1.1747
 1338TIP3   OH225504   6.012   3.255   2.511 -0.5296 -0.5217 -0.1923
 1338TIP3    H125505   6.063   3.275   2.589  0.7613  1.3878 -1.4225
 1338TIP3    H225506   5.987   3.164   2.521 -0.0013 -0.4739  2.1934
 1339TIP3   OH225507   5.968   2.989  13.445 -0.2470 -0.1937 -0.4851
 1339TIP3    H125508   6.001   3.066  13.492 -0.4050 -0.0954 -0.5340
 1339TIP3    H225509   5.987   2.916  13.503  1.6352 -0.3676 -1.2511
 1340TIP3   OH225510   5.574   5.996   1.613  0.3067  0.3436 -0.3461
 1340TIP3    H125511   5.512   6.000   1.686  1.1870 -1.0444  0.5284
 1340TIP3    H225512   5.657   6.024   1.652  0.3940  1.5372 -1.3374
 1341TIP3   OH225513   3.172   1.929   0.789 -0.2100  0.4031 -0.0548
 1341TIP3    H125514   3.195   2.016   0.756 -0.6778  0.6651  0.2960
 1341TIP3    H225515   3.248   1.901   0.839 -0.2725  0.8488  0.2895
 1342TIP3   OH225516   1.957   5.946   6.652 -0.4862  0.5478 -0.0309
 1342TIP3    H125517   1.874   5.918   6.691  0.0356 -0.4247  0.4230
 1342TIP3    H225518   1.934   5.978   6.565 -1.3957  0.7531  0.2777
 1343TIP3   OH225519   0.614   2.042  12.519 -0.1089  0.1212  0.2921
 1343TIP3    H125520   0.535   1.991  12.500  0.3809  0.0611 -1.7989
 1343TIP3    H225521   0.584   2.109  12.581 -1.9176  0.3846 -0.7908
 1344TIP3   OH225522   1.299   0.317  11.438 -0.3158 -0.0550 -0.4275
 1344TIP3    H125523   1.227   0.286  11.493 -0.4610  0.4453 -0.3270
 1344TIP3    H225524   1.370   0.336  11.499 -0.6374  0.9537 -0.3499
 1345TIP3   OH225525   5.192   4.697  15.130 -0.1561 -0.2478 -0.3747
 1345TIP3    H125526   5.274   4.746  15.124  0.1369 -0.6672  0.0799
 1345TIP3    H225527   5.197   4.653  15.215 -1.8237  1.4776  0.7383
 1346TIP3   OH225528   5.726   2.419   3.401 -0.1428 -0.5197  0.1593
 1346TIP3    H125529   5.811   2.441   3.440 -1.5133  1.9600  2.0064
 1346TIP3    H225530   5.722   2.471   3.321  0.5679 -1.6876 -0.6729
 1347TIP3   OH225531   4.014   4.574  11.416 -0.3269  0.0350 -0.2144
 1347TIP3    H125532   3.951   4.506  11.392 -0.9479  0.5543 -0.0902
 1347TIP3    H225533   4.061   4.594  11.335 -0.2327 -0.4459 -0.2808
 1348TIP3   OH225534   2.070   0.069  12.354 -0.0157 -0.2679 -0.6746
 1348TIP3    H125535   1.989   0.058  12.303  0.0567 -1.8854 -0.5071
 1348TIP3    H225536   2.051   0.028  12.438  0.1045  1.7500  0.3917
 1349TIP3   OH225537   3.192   5.194   3.989  0.2862  0.3343 -0.6260
 1349TIP3    H125538   3.207   5.275   4.037 -0.0827 -0.5180  0.9791
 1349TIP3    H225539   3.275   5.176   3.945  0.1993  1.8524 -1.4547
 1350TIP3   OH225540   3.138   1.696   2.899 -0.0441  0.0102 -0.2521
 1350TIP3    H125541   3.210   1.758   2.881  0.5751 -0.6172 -0.0035
 1350TIP3    H225542   3.062   1.735   2.856  0.4365  0.7073 -0.5065
 1351TIP3   OH225543   6.548   2.323  13.399 -0.1095  0.6070 -0.4242
 1351TIP3    H125544   6.525   2.232  13.382 -0.5649  0.6487 -0.0502
 1351TIP3    H225545   6.503   2.345  13.480 -0.6911  1.4132 -0.9389
 1352TIP3   OH225546   3.371   5.096  13.315  0.0269 -0.1440  0.4009
 1352TIP3    H125547   3.301   5.032  13.325  0.5428 -0.9359 -0.8849
 1352TIP3    H225548   3.341   5.172  13.366 -1.4331 -0.7171  0.4466
 1353TIP3   OH225549   3.986   1.218   2.190  0.2042  0.3944 -0.0850
 1353TIP3    H125550   4.054   1.244   2.127  1.1184  0.1750  0.7979
 1353TIP3    H225551   3.977   1.123   2.177  0.4383  0.3392  0.1665
 1354TIP3   OH225552   6.313   4.221  11.621  0.5591  0.8861 -0.3013
 1354TIP3    H125553   6.329   4.279  11.695 -1.7417  0.5437  0.5353
 1354TIP3    H225554   6.235   4.257  11.578 -1.1151 -1.6288  0.4054
 1355TIP3   OH225555   6.382   0.430  16.482 -0.3436 -0.6426 -0.0634
 1355TIP3    H125556   6.337   0.432  16.566 -1.0308  0.7942 -0.4263
 1355TIP3    H225557   6.472   0.402  16.503 -0.8812 -1.7215  0.9233
 1356TIP3   OH225558   6.765   3.188  11.666  0.3252 -0.6931  0.0713
 1356TIP3    H125559   6.745   3.250  11.737  0.7964 -0.1901 -0.2239
 1356TIP3    H225560   6.690   3.195  11.607  1.0205  0.6927 -0.6953
 1357TIP3   OH225561   4.301   3.478  10.882  0.2313  0.0638  0.0053
 1357TIP3    H125562   4.360   3.537  10.930 -1.6525  2.9757 -0.9870
 1357TIP3    H225563   4.222   3.474  10.936 -0.5975  0.5365 -1.1437
 1358TIP3   OH225564   4.731   4.177  16.882 -0.5308  0.4613  0.1140
 1358TIP3    H125565   4.708   4.237  16.811 -1.9684  0.1749  0.3066
 1358TIP3    H225566   4.661   4.112  16.882 -0.6595  0.5535  1.9239
 1359TIP3   OH225567   2.555   3.719  15.250  0.2545 -0.2961 -0.0180
 1359TIP3    H125568   2.637   3.730  15.202 -0.1808  0.1632 -0.6690
 1359TIP3    H225569   2.546   3.798  15.302 -0.7646  0.6052 -1.4861
 1360TIP3   OH225570   1.217   3.865  11.677 -0.0250 -0.1626 -0.5131
 1360TIP3    H125571   1.143   3.907  11.633  0.7947  0.9940 -0.8416
 1360TIP3    H225572   1.259   3.813  11.608 -0.4036 -0.6401 -0.3825
 1361TIP3   OH225573   2.722   4.070   3.648  0.3052 -0.0003 -0.0066
 1361TIP3    H125574   2.684   4.121   3.719  0.7680  1.4530 -0.7569
 1361TIP3    H225575   2.651   4.060   3.585  0.0841 -0.6977  0.3506
 1362TIP3   OH225576   6.147   1.838   4.981 -0.2948  0.1697  0.1673
 1362TIP3    H125577   6.109   1.753   4.957 -2.4704  0.5764  1.8024
 1362TIP3    H225578   6.219   1.851   4.919  0.3469 -3.0055  0.1129
 1363TIP3   OH225579   5.083   4.888   0.529 -0.7916 -0.4550 -0.4431
 1363TIP3    H125580   5.133   4.940   0.591  0.2467 -1.0179 -0.7937
 1363TIP3    H225581   5.084   4.938   0.448 -3.4278  1.0309  0.3094
 1364TIP3   OH225582   3.942   2.861   0.882 -0.1226  0.4885 -0.3566
 1364TIP3    H125583   4.024   2.857   0.831 -0.0730 -1.5624 -0.2151
 1364TIP3    H225584   3.886   2.919   0.831  0.3273 -0.5982 -2.2127
 1365TIP3   OH225585   2.638   2.473  15.730 -0.0111  0.1829  0.1061
 1365TIP3    H125586   2.711   2.429  15.774 -0.2963  1.8886  2.5028
 1365TIP3    H225587   2.649   2.450  15.638  2.4644 -1.1092  0.6105
 1366TIP3   OH225588   1.350   4.740   2.846 -0.1372 -0.4281  0.0660
 1366TIP3    H125589   1.404   4.773   2.917 -1.2686 -0.9552  1.2287
 1366TIP3    H225590   1.396   4.663   2.814  0.0763 -0.5556  0.6737
 1367TIP3   OH225591   1.016   0.945  14.033  0.0334 -0.4034  0.2399
 1367TIP3    H125592   1.078   0.886  13.990 -0.1562  0.6538 -1.6352
 1367TIP3    H225593   0.931   0.904  14.019 -0.2286  0.7188 -2.0404
 1368TIP3   OH225594   3.786   3.245   3.955 -0.1866  0.3933  0.6016
 1368TIP3    H125595   3.734   3.276   4.028 -1.5794  0.2814 -0.2996
 1368TIP3    H225596   3.722   3.208   3.894  0.9872 -0.0791 -0.3909
 1369TIP3   OH225597   6.649   4.947   5.340  0.0413  0.2062 -0.0043
 1369TIP3    H125598   6.647   5.016   5.406 -0.7251 -1.5866  1.9512
 1369TIP3    H225599   6.734   4.957   5.297  0.5376  1.4727  1.2005
 1370TIP3   OH225600   4.140   4.413  12.888  0.4959  0.3419 -0.3346
 1370TIP3    H125601   4.190   4.482  12.845  0.4535  1.0754  0.7636
 1370TIP3    H225602   4.052   4.421  12.850  0.7452  0.2069 -0.9615
 1371TIP3   OH225603   2.017   6.277  14.378  0.0001  0.1439 -0.6618
 1371TIP3    H125604   2.052   6.266  14.467 -0.9589 -0.5936 -0.3634
 1371TIP3    H225605   2.095   6.292  14.324  0.5205  2.0785  0.4998
 1372TIP3   OH225606   2.273   5.539   2.701 -0.4160 -0.2608 -0.6864
 1372TIP3    H125607   2.311   5.485   2.633  2.5980  1.3149 -0.4402
 1372TIP3    H225608   2.287   5.629   2.671  0.7265  0.4743  1.7686
 1373TIP3   OH225609   6.434   6.388   4.647  0.3481 -0.0550  0.8266
 1373TIP3    H125610   6.423   6.294   4.657 -1.3733  0.2287  2.1233
 1373TIP3    H225611   6.395   6.426   4.727 -1.1330  1.8283 -0.6755
 1374TIP3   OH225612   4.452   3.623  11.047  0.3677 -0.0816 -0.1048
 1374TIP3    H125613   4.477   3.704  11.003  0.6200  1.4714  2.6580
 1374TIP3    H225614   4.532   3.594  11.090  0.3852 -2.0955 -1.3799
 1375TIP3   OH225615   6.389   4.086   0.753 -0.3395 -0.1424  0.0334
 1375TIP3    H125616   6.470   4.057   0.711  0.7450  0.4685  1.6240
 1375TIP3    H225617   6.363   4.013   0.809 -0.2759  0.0871  0.3662
 1376TIP3   OH225618   3.436   6.443   2.151 -0.7969 -0.0726 -0.2390
 1376TIP3    H125619   3.429   6.373   2.216  0.1764 -0.4031 -0.4696
 1376TIP3    H225620   3.490   6.406   2.081  0.5773  1.2244  0.0855
 1377TIP3   OH225621   0.905   1.611  12.853 -0.4597 -0.0139  0.0396
 1377TIP3    H125622   0.974   1.568  12.802 -0.8134 -0.1636 -0.3149
 1377TIP3    H225623   0.838   1.634  12.789 -0.5451  0.5290  0.3180
 1378TIP3   OH225624   6.496   1.857   4.281 -0.2290  0.6947  1.0502
 1378TIP3    H125625   6.533   1.857   4.193 -0.3942  1.7107  0.9736
 1378TIP3    H225626   6.561   1.811   4.334  0.3621  0.9887  0.5950
 1379TIP3   OH225627   6.408   2.838   6.075  0.1522 -0.4093 -0.0302
 1379TIP3    H125628   6.394   2.869   6.165  0.2728 -0.7938  0.1232
 1379TIP3    H225629   6.332   2.785   6.056  1.6975 -3.2635  1.1382
 1380TIP3   OH225630   0.216   5.631   3.568  0.0069  0.3977 -0.4502
 1380TIP3    H125631   0.246   5.544   3.594 -0.2513  0.5869  0.5028
 1380TIP3    H225632   0.142   5.615   3.510 -0.4590 -0.0101  0.2534
 1381TIP3   OH225633   3.093   5.440  12.085  0.1724 -0.0115  0.3023
 1381TIP3    H125634   3.124   5.359  12.127 -0.2918 -0.8889 -1.0005
 1381TIP3    H225635   2.998   5.429  12.079  0.3255 -0.4715 -2.0353
 1382TIP3   OH225636   2.419   4.393   1.213 -0.6364 -0.1329  0.1837
 1382TIP3    H125637   2.448   4.447   1.287 -2.9854 -0.0673  1.1676
 1382TIP3    H225638   2.329   4.421   1.197 -1.0043 -1.8596 -1.0925
 1383TIP3   OH225639   4.694   6.328   1.234 -0.1031 -0.0933  0.0265
 1383TIP3    H125640   4.602   6.335   1.210 -0.3649  0.6308  1.1820
 1383TIP3    H225641   4.708   6.235   1.250 -0.9399 -0.0769  0.9613
 1384TIP3   OH225642   2.580   2.272   4.992 -0.3704 -0.2554  0.8721
 1384TIP3    H125643   2.651   2.323   5.032  0.0021  0.0532 -0.1392
 1384TIP3    H225644   2.603   2.269   4.899 -3.0752  2.2542 -0.0532
 1385TIP3   OH225645   0.055   6.680   4.856 -0.3389  0.3831 -0.1066
 1385TIP3    H125646   0.045   6.593   4.894  0.1321  0.7844  0.9698
 1385TIP3    H225647   0.143   6.679   4.818  0.4319  0.9760  1.5650
 1386TIP3   OH225648   2.414   4.507   1.915  0.2015  0.7611  1.0508
 1386TIP3    H125649   2.425   4.602   1.905 -1.3498  0.7793 -1.2840
 1386TIP3    H225650   2.322   4.496   1.939  0.5320 -0.1493  1.9672
 1387TIP3   OH225651   4.146   1.896  14.605 -0.4457  0.3749 -0.2580
 1387TIP3    H125652   4.059   1.892  14.646  0.6251  0.9057  2.2700
 1387TIP3    H225653   4.183   1.979  14.634  0.4753  0.7371 -2.3028
 1388TIP3   OH225654   3.968   2.458   2.115 -0.2447 -0.4689 -0.8929
 1388TIP3    H125655   3.968   2.437   2.209  0.4130 -0.0957 -0.8048
 1388TIP3    H225656   3.878   2.442   2.087 -0.6187  0.0613 -0.0479
 1389TIP3   OH225657   1.013   2.309  16.259 -0.5664  0.2464  0.5464
 1389TIP3    H125658   0.990   2.392  16.300  0.4979  0.3845  0.8783
 1389TIP3    H225659   1.101   2.322  16.226 -0.0858 -0.9967  1.2801
 1390TIP3   OH225660   3.181   4.811   4.793 -0.1790 -0.0001 -0.2758
 1390TIP3    H125661   3.200   4.754   4.867  0.2177 -1.3171 -1.3519
 1390TIP3    H225662   3.128   4.757   4.734 -2.4399  1.7543  0.0340
 1391TIP3   OH225663   4.550   6.041   3.709 -0.3791  0.0937 -0.1943
 1391TIP3    H125664   4.638   6.007   3.729 -0.7136 -0.4873  0.3331
 1391TIP3    H225665   4.513   6.064   3.795 -1.0299 -0.4097 -0.3291
 1392TIP3   OH225666   0.789   4.944   2.631  0.0884  0.0957 -0.1815
 1392TIP3    H125667   0.805   4.854   2.659 -0.1518  0.2673  0.5240
 1392TIP3    H225668   0.729   4.979   2.696  0.5646  0.9191 -0.1711
 1393TIP3   OH225669   3.819   0.808   5.302 -0.7640  0.1440  0.1961
 1393TIP3    H125670   3.805   0.816   5.397  1.0583  1.1452  0.4263
 1393TIP3    H225671   3.911   0.784   5.293 -0.5881  1.2312 -1.3359
 1394TIP3   OH225672   6.736   2.032   6.642  0.4050 -0.2772 -0.1935
 1394TIP3    H125673   6.731   1.940   6.617 -0.7471 -0.0796 -0.7645
 1394TIP3    H225674   6.754   2.031   6.736 -0.7210 -1.1084  0.0318
 1395TIP3   OH225675   5.724   5.564  16.872 -0.3313 -0.0288  0.4432
 1395TIP3    H125676   5.762   5.534  16.789 -0.2944  0.2175  0.3697
 1395TIP3    H225677   5.730   5.488  16.930  0.4494  0.0637  0.4938
 1396TIP3   OH225678   2.536   3.812   6.039 -0.3923 -0.3016 -0.1189
 1396TIP3    H125679   2.493   3.879   6.092  0.0871 -0.3766  0.3733
 1396TIP3    H225680   2.518   3.730   6.086 -0.1077 -0.3911 -0.1659
 1397TIP3   OH225681   0.027   4.476  16.268  0.1826  0.0211 -0.5659
 1397TIP3    H125682  -0.065   4.490  16.292  0.1109  2.8433 -2.0113
 1397TIP3    H225683   0.075   4.542  16.318  1.2573 -0.6081 -0.7506
 1398TIP3   OH225684   2.288   2.988   2.485 -0.0022  0.8810  0.0986
 1398TIP3    H125685   2.260   2.903   2.451  2.4899  0.3456 -0.8140
 1398TIP3    H225686   2.280   2.980   2.580  1.2386 -0.8158  0.1001
 1399TIP3   OH225687   3.577   5.041  13.116  0.6045  0.2814 -0.1872
 1399TIP3    H125688   3.506   5.072  13.173 -0.8176 -0.0511 -1.6745
 1399TIP3    H225689   3.645   5.012  13.176 -0.2798  1.1392  1.3119
 1400TIP3   OH225690   0.772   4.694   1.962  0.2056  0.0183  0.0499
 1400TIP3    H125691   0.842   4.642   2.001 -0.2917  1.3546  2.9715
 1400TIP3    H225692   0.715   4.629   1.920  3.5716 -1.0593 -3.5013
 1401TIP3   OH225693   5.721   4.245  12.108  0.2732 -0.2491 -0.2372
 1401TIP3    H125694   5.674   4.262  12.026  1.0255  2.3234 -0.2128
 1401TIP3    H225695   5.798   4.195  12.080 -1.4553 -2.9866 -0.4891
 1402TIP3   OH225696   4.901   0.777   4.844 -0.5198  0.0801 -0.0822
 1402TIP3    H125697   4.940   0.862   4.865 -1.0194  0.5759 -1.0793
 1402TIP3    H225698   4.832   0.765   4.910  0.0228  0.1033  0.4971
 1403TIP3   OH225699   1.330   4.730  14.463 -0.3763  0.2391 -0.4696
 1403TIP3    H125700   1.355   4.793  14.396  0.1397 -0.0494 -0.5524
 1403TIP3    H225701   1.287   4.782  14.531  0.5033  0.7569 -0.2971
 1404TIP3   OH225702   2.173   4.858  14.222 -0.2543  0.9335 -0.0053
 1404TIP3    H125703   2.224   4.935  14.197  0.3245  1.2763  2.0784
 1404TIP3    H225704   2.160   4.867  14.316  2.5510 -3.0384  1.0057
 1405TIP3   OH225705   1.731   2.610   1.413  0.2994  0.3371 -1.1981
 1405TIP3    H125706   1.820   2.601   1.382 -0.0186 -0.0557 -2.0271
 1405TIP3    H225707   1.692   2.677   1.357 -0.1487 -0.0493 -1.3602
 1406TIP3   OH225708   3.996   3.636   4.593 -0.2952  0.4916 -0.0125
 1406TIP3    H125709   4.081   3.679   4.596 -1.4276  2.8174  0.8945
 1406TIP3    H225710   3.958   3.649   4.680 -1.4335 -0.8770 -0.2526
 1407TIP3   OH225711   1.334   1.380   5.945 -0.6645 -0.4399  0.3043
 1407TIP3    H125712   1.381   1.327   6.009 -1.9398 -1.8074  0.1495
 1407TIP3    H225713   1.244   1.382   5.976 -0.3574  3.5260  1.5020
 1408TIP3   OH225714   4.385   3.444  10.628  0.4832 -1.0056  0.1330
 1408TIP3    H125715   4.475   3.461  10.600 -0.1713  2.1534 -0.3110
 1408TIP3    H225716   4.379   3.485  10.714 -0.8644 -0.0740 -0.3846
 1409TIP3   OH225717   4.941   4.157   4.225  0.3846 -0.1326 -0.2127
 1409TIP3    H125718   4.999   4.126   4.295 -1.7678  0.7886  2.1743
 1409TIP3    H225719   4.902   4.237   4.261  0.4813  1.4512 -3.2715
 1410TIP3   OH225720   5.134   1.305   1.836 -0.0910 -0.2728  0.6143
 1410TIP3    H125721   5.170   1.218   1.854 -0.8675 -0.4539  1.3726
 1410TIP3    H225722   5.206   1.365   1.852  0.9291 -0.8599 -1.4553
 1411TIP3   OH225723   5.128   0.772   1.873 -0.0686  0.5017 -0.3322
 1411TIP3    H125724   5.124   0.679   1.850 -2.1210  0.0585  1.5079
 1411TIP3    H225725   5.170   0.773   1.959 -0.2443  1.2543 -0.2514
 1412TIP3   OH225726   1.238   2.784  16.779  0.0192 -0.7255  0.5671
 1412TIP3    H125727   1.291   2.835  16.840 -1.0832  0.7047  0.3698
 1412TIP3    H225728   1.191   2.849  16.727  0.6049 -1.8998 -1.5458
 1413TIP3   OH225729   5.009   5.287  15.848  0.2099 -0.0696 -0.3799
 1413TIP3    H125730   5.009   5.209  15.903  1.0641  0.1970  0.0190
 1413TIP3    H225731   4.922   5.290  15.809  0.1213 -1.1266 -0.2684
 1414TIP3   OH225732   5.990   3.306  14.283  0.2133 -0.6474 -0.2506
 1414TIP3    H125733   5.962   3.275  14.197  0.1882 -0.6418 -0.2443
 1414TIP3    H225734   5.938   3.256  14.345 -1.9755  1.4337 -0.2891
 1415TIP3   OH225735   1.313   3.167   2.691  0.4870  0.5842  0.1011
 1415TIP3    H125736   1.311   3.263   2.693  3.0994  0.8533 -2.4218
 1415TIP3    H225737   1.356   3.142   2.774  0.7065  1.6798  0.3336
 1416TIP3   OH225738   4.229   1.547   1.434 -0.1119 -0.1025  0.2347
 1416TIP3    H125739   4.143   1.590   1.429 -0.0547  0.1296  1.0557
 1416TIP3    H225740   4.212   1.467   1.484 -0.3099 -1.3049 -1.6701
 1417TIP3   OH225741   3.523   0.276   1.371 -0.5143  1.0548  0.1454
 1417TIP3    H125742   3.507   0.213   1.441 -1.4799  0.9545 -0.1627
 1417TIP3    H225743   3.463   0.252   1.301  0.7619  0.8711 -0.9256
 1418TIP3   OH225744   5.423   5.474   4.034  0.3476  0.2866  0.0392
 1418TIP3    H125745   5.504   5.522   4.017  0.4613  0.4657  1.0411
 1418TIP3    H225746   5.392   5.509   4.118  0.6325 -1.6797  0.9986
 1419TIP3   OH225747   4.191   4.742   1.831 -0.4526  0.2907  0.0393
 1419TIP3    H125748   4.158   4.825   1.866  1.9772  1.0764  0.6593
 1419TIP3    H225749   4.286   4.751   1.834 -0.1275 -2.1628 -0.8161
 1420TIP3   OH225750   3.920   1.607  15.748 -0.3917  0.1248 -0.2173
 1420TIP3    H125751   3.898   1.616  15.655 -0.6083 -1.3420 -0.3420
 1420TIP3    H225752   3.981   1.678  15.765 -1.1690  1.0629 -1.2092
 1421TIP3   OH225753   4.926   4.445   2.852  0.6223  0.1613 -0.2521
 1421TIP3    H125754   4.944   4.507   2.922  0.8651  0.2737 -0.4105
 1421TIP3    H225755   4.864   4.383   2.889 -0.7607  1.3194 -0.5258
 1422TIP3   OH225756   6.076   5.728   3.837 -0.6759 -0.2724 -0.2136
 1422TIP3    H125757   6.126   5.747   3.758 -1.9368  1.5386 -0.6412
 1422TIP3    H225758   6.082   5.808   3.889 -1.5637 -0.6917  0.5658
 1423TIP3   OH225759   2.545   0.901  14.156  0.0920 -0.5386  0.5155
 1423TIP3    H125760   2.598   0.840  14.207  0.1353 -0.7247  0.2520
 1423TIP3    H225761   2.468   0.851  14.129  0.4856 -0.7061 -0.3310
 1424TIP3   OH225762   0.147   1.856   3.739  0.0575 -0.1167 -0.1276
 1424TIP3    H125763   0.236   1.883   3.719 -0.3932  1.0219 -0.6592
 1424TIP3    H225764   0.097   1.937   3.747 -0.6900 -0.6795  1.4375
 1425TIP3   OH225765   6.211   2.780   0.017  0.4036  0.2141 -0.0509
 1425TIP3    H125766   6.304   2.802   0.011  0.7308 -1.0627  0.0102
 1425TIP3    H225767   6.178   2.787  -0.073  0.4628  0.9983 -0.0213
 1426TIP3   OH225768   4.021   6.130   3.523  0.3206  0.6831  0.0382
 1426TIP3    H125769   4.078   6.207   3.517  2.1511 -0.5709  0.3028
 1426TIP3    H225770   3.945   6.152   3.470 -0.1675  3.4259  1.7465
 1427TIP3   OH225771   0.302   6.722   5.585  0.4208 -0.0331  0.0553
 1427TIP3    H125772   0.275   6.813   5.581  0.4120 -0.0004  0.7541
 1427TIP3    H225773   0.343   6.705   5.500  1.6671  1.0159  0.4176
 1428TIP3   OH225774   3.016   6.166  16.998 -0.5412  0.5351 -0.2884
 1428TIP3    H125775   2.991   6.255  17.024 -0.8181  0.3813 -0.0203
 1428TIP3    H225776   2.941   6.112  17.023  0.0278  0.0758  0.4594
 1429TIP3   OH225777   5.451   6.033  13.363  0.0271 -0.2245  0.0483
 1429TIP3    H125778   5.413   6.071  13.441 -2.3266  0.0403 -1.1412
 1429TIP3    H225779   5.500   5.957  13.394  0.4286  0.7361  1.8867
 1430TIP3   OH225780   0.068   4.644  16.666  0.1460  1.1349  0.0546
 1430TIP3    H125781   0.002   4.577  16.650  0.4598  0.7006  0.5605
 1430TIP3    H225782   0.111   4.656  16.581  1.1426 -0.4507  0.2871
 1431TIP3   OH225783   4.727   4.145   1.695  0.0074  0.0073  0.0185
 1431TIP3    H125784   4.816   4.177   1.710  0.2665 -0.0891 -1.2545
 1431TIP3    H225785   4.671   4.219   1.718  0.5584  1.1024 -1.9444
 1432TIP3   OH225786   2.914   5.305   5.401  0.0656  0.6670  0.1903
 1432TIP3    H125787   2.996   5.330   5.445 -0.6727  2.5425  0.6142
 1432TIP3    H225788   2.882   5.386   5.363 -1.5170 -0.0667 -0.1177
 1433TIP3   OH225789   3.056   3.484  15.536  0.0915  0.3567 -0.3898
 1433TIP3    H125790   3.083   3.544  15.607  0.2788  1.5872 -1.4706
 1433TIP3    H225791   3.137   3.470  15.486 -0.1753 -0.0023 -0.7185
 1434TIP3   OH225792   5.339   2.294   2.751  0.4693  0.1070 -0.2735
 1434TIP3    H125793   5.315   2.380   2.718  1.9585  0.2655 -0.9979
 1434TIP3    H225794   5.410   2.310   2.813  0.5901 -0.5746 -0.2226
 1435TIP3   OH225795   4.969   6.387  13.518 -0.6186  0.1661  0.1849
 1435TIP3    H125796   5.001   6.341  13.441 -0.0904 -1.6562  1.4009
 1435TIP3    H225797   5.006   6.475  13.512  2.0689 -0.8892 -0.0934
 1436TIP3   OH225798   3.861   4.760  13.934 -0.5719  0.4749  0.4616
 1436TIP3    H125799   3.893   4.822  13.999 -1.2448 -2.5380  4.0230
 1436TIP3    H225800   3.934   4.700  13.920 -0.5071  0.9480 -1.5554
 1437TIP3   OH225801   4.778   6.656   3.617  0.0063 -0.1238  0.1922
 1437TIP3    H125802   4.697   6.606   3.606 -0.0470 -0.3604  1.4635
 1437TIP3    H225803   4.840   6.593   3.655 -0.4657  1.0368  3.1143
 1438TIP3   OH225804   3.785   4.991  15.713 -0.4312 -0.1840  0.5878
 1438TIP3    H125805   3.744   4.906  15.703 -0.6731  0.0032 -0.0625
 1438TIP3    H225806   3.792   5.026  15.624  0.8544 -0.0769  0.7015
 1439TIP3   OH225807   3.357   4.869  15.908  0.4688 -0.2006  0.4954
 1439TIP3    H125808   3.407   4.805  15.959  0.0485 -0.9175  0.0272
 1439TIP3    H225809   3.372   4.844  15.816 -0.3533 -0.1434  0.3328
 1440TIP3   OH225810   6.406   0.076  11.007 -0.0255  0.2675 -0.4991
 1440TIP3    H125811   6.350   0.040  10.939  0.0703  0.2164 -0.5515
 1440TIP3    H225812   6.441  -0.001  11.053  0.2166  0.2907 -0.6411
 1441TIP3   OH225813   0.770   0.016   3.407 -0.7156  0.1088 -0.3597
 1441TIP3    H125814   0.813  -0.055   3.360  1.3109  1.1924 -0.2531
 1441TIP3    H225815   0.696  -0.026   3.450  1.9645 -2.6349  2.0645
 1442TIP3   OH225816   2.403   1.713   0.530  0.1943  0.4143 -0.1438
 1442TIP3    H125817   2.401   1.668   0.445 -1.4872 -0.1222  0.1523
 1442TIP3    H225818   2.468   1.783   0.518 -0.2104  0.5236 -1.9729
 1443TIP3   OH225819   2.938   4.165   5.322  0.0796 -0.2336  0.3252
 1443TIP3    H125820   3.006   4.218   5.279 -0.8795  0.5053 -0.3221
 1443TIP3    H225821   2.987   4.102   5.375  1.2835  1.5373  1.4308
 1444TIP3   OH225822   2.751   2.784  12.418  0.1228  0.5226  0.3590
 1444TIP3    H125823   2.695   2.849  12.376 -0.0728 -0.6035 -1.1929
 1444TIP3    H225824   2.815   2.836  12.468 -0.6076  1.8678 -0.0565
 1445TIP3   OH225825   5.662   5.558   2.669 -0.5738  0.0325 -0.3785
 1445TIP3    H125826   5.694   5.485   2.723  2.9928  2.3781  1.0497
 1445TIP3    H225827   5.594   5.599   2.723 -1.5608 -1.2945 -0.5588
 1446TIP3   OH225828   5.637   0.265   1.046 -0.6313 -0.3995 -0.0217
 1446TIP3    H125829   5.682   0.184   1.069 -0.7518 -0.2908  0.6089
 1446TIP3    H225830   5.545   0.241   1.040 -1.0016  0.1138  2.4294
 1447TIP3   OH225831   2.847   4.149  15.190  0.2174 -0.5949 -0.3816
 1447TIP3    H125832   2.758   4.147  15.225  0.4210 -0.5397  0.1612
 1447TIP3    H225833   2.902   4.157  15.268  0.6327  0.7311 -0.7982
 1448TIP3   OH225834   2.409   6.577   1.373 -0.4665  0.6485  0.3975
 1448TIP3    H125835   2.323   6.535   1.382 -0.0811 -0.2107  0.1491
 1448TIP3    H225836   2.427   6.575   1.280  1.4456 -2.6179  0.6731
 1449TIP3   OH225837   1.561   3.778  12.190  0.2487 -0.5421  0.0774
 1449TIP3    H125838   1.646   3.738  12.172 -0.4816 -1.8937 -0.5742
 1449TIP3    H225839   1.521   3.721  12.255  0.2091  0.6268  1.0988
 1450TIP3   OH225840   5.954   2.580   6.064 -0.3480  0.0184 -0.2337
 1450TIP3    H125841   5.930   2.524   6.139  0.2617 -0.3667 -0.3142
 1450TIP3    H225842   5.880   2.639   6.053  0.1051  0.9800  1.5267
 1451TIP3   OH225843   5.148   4.212  12.148 -0.0952  0.3108  0.3659
 1451TIP3    H125844   5.202   4.253  12.081 -0.2487  1.2193  0.7767
 1451TIP3    H225845   5.156   4.118  12.132 -1.0980  0.5132 -1.6913
 1452TIP3   OH225846   5.068   4.629   3.596 -0.2373 -0.1819 -0.4686
 1452TIP3    H125847   5.117   4.591   3.669  0.2703  1.0704 -0.1423
 1452TIP3    H225848   4.990   4.668   3.636 -0.3085 -0.0920 -0.6904
 1453TIP3   OH225849   0.712   1.406   5.010  0.0315  0.4111 -0.4730
 1453TIP3    H125850   0.800   1.372   5.023  0.3557  1.1811 -0.6464
 1453TIP3    H225851   0.673   1.407   5.097 -0.7354 -2.3748 -0.6864
 1454TIP3   OH225852   0.360   0.571  12.471  0.1944 -0.0661  0.2700
 1454TIP3    H125853   0.275   0.595  12.435 -0.0412 -0.4764  0.5425
 1454TIP3    H225854   0.372   0.479  12.446  0.4920 -0.0512  0.3511
 1455TIP3   OH225855   3.405   5.465   1.867 -0.2347 -0.5616 -0.0478
 1455TIP3    H125856   3.444   5.437   1.785  1.3040 -0.3034  0.5473
 1455TIP3    H225857   3.320   5.502   1.843  0.9614  1.2376 -1.7680
 1456TIP3   OH225858   0.546   3.328  14.573  0.1190 -0.5681  0.9034
 1456TIP3    H125859   0.631   3.372  14.570  0.7283 -1.7147 -1.8651
 1456TIP3    H225860   0.566   3.241  14.610 -0.1366 -0.3648  1.5379
 1457TIP3   OH225861   6.770   6.471   2.078  0.4127  0.3191 -0.3219
 1457TIP3    H125862   6.768   6.535   2.006  1.0304  2.5692  1.5361
 1457TIP3    H225863   6.689   6.421   2.068 -1.0893  2.6639 -0.8117
 1458TIP3   OH225864   6.732   2.363  11.874  0.5476 -0.5106 -0.1917
 1458TIP3    H125865   6.659   2.352  11.936  0.3918 -1.4404 -0.5282
 1458TIP3    H225866   6.805   2.392  11.929 -0.2213  1.0572  0.0562
 1459TIP3   OH225867   5.600   1.811   0.601  0.2615 -0.4636  0.0738
 1459TIP3    H125868   5.657   1.861   0.543  0.8548  0.4607  1.4044
 1459TIP3    H225869   5.512   1.824   0.565  0.5854  0.3425 -0.4534
 1460TIP3   OH225870   0.794   0.291  16.758 -0.4915 -0.7241 -0.1066
 1460TIP3    H125871   0.837   0.292  16.844 -0.5111  2.2765 -0.0231
 1460TIP3    H225872   0.865   0.302  16.696 -0.6792 -0.6622 -0.3108
 1461TIP3   OH225873   6.257   0.575  13.178  0.3255 -0.5333 -0.2347
 1461TIP3    H125874   6.352   0.576  13.187  0.2496  3.0886  2.3566
 1461TIP3    H225875   6.227   0.511  13.244  0.9398  0.5132  1.1087
 1462TIP3   OH225876   3.521   6.072   3.115 -0.1955 -0.7496 -0.5649
 1462TIP3    H125877   3.608   6.077   3.076 -0.5969 -0.6749 -1.4694
 1462TIP3    H225878   3.498   5.979   3.109 -1.8441 -0.2905 -4.1685
 1463TIP3   OH225879   2.887   1.434   3.527  0.5059  0.5991 -0.0513
 1463TIP3    H125880   2.859   1.391   3.445  0.7161 -1.0639  0.6951
 1463TIP3    H225881   2.964   1.384   3.554 -1.1922 -0.8254  2.6162
 1464TIP3   OH225882   5.843   1.965  11.729 -0.5336 -0.3650 -0.0517
 1464TIP3    H125883   5.760   1.931  11.764 -0.3328 -2.1480 -1.1980
 1464TIP3    H225884   5.896   1.983  11.807 -1.7235  0.1505  0.6702
 1465TIP3   OH225885   5.160   2.083  13.295  0.6297 -0.1462  0.5080
 1465TIP3    H125886   5.086   2.134  13.260  0.4534 -0.1153  0.9118
 1465TIP3    H225887   5.217   2.069  13.220  1.4653  1.9993  0.6670
 1466TIP3   OH225888   0.993   3.312   3.110  0.1634  0.2043 -0.3829
 1466TIP3    H125889   1.077   3.269   3.124  0.1183  0.3462  0.3902
 1466TIP3    H225890   0.935   3.242   3.079 -0.1045 -0.4939  1.5746
 1467TIP3   OH225891   0.419   2.439  15.580  0.1786  0.2228  0.2902
 1467TIP3    H125892   0.468   2.422  15.660  1.0680 -0.7321 -0.4333
 1467TIP3    H225893   0.478   2.414  15.509 -0.3804  1.5728 -0.7006
 1468TIP3   OH225894   2.598   3.609   1.829  0.5493  0.1081  0.5045
 1468TIP3    H125895   2.658   3.535   1.841  1.5114  0.4197 -1.8029
 1468TIP3    H225896   2.529   3.575   1.772 -0.2236  0.3928  1.2589
 1469TIP3   OH225897   6.099   5.477   3.975 -0.4274 -0.0494 -0.0401
 1469TIP3    H125898   6.019   5.511   3.936 -0.1993 -0.1414 -0.5988
 1469TIP3    H225899   6.169   5.521   3.927 -0.1422  0.4709  0.8381
 1470TIP3   OH225900   3.454   0.152   3.699 -0.0619  0.3507 -0.4400
 1470TIP3    H125901   3.484   0.240   3.720 -0.1892  0.0203  1.2237
 1470TIP3    H225902   3.532   0.106   3.668  0.6644  0.2223  1.4856
 1471TIP3   OH225903   3.840   3.096  13.069  0.3248 -0.4424  0.0413
 1471TIP3    H125904   3.892   3.061  12.997 -0.7702  0.1712 -1.1007
 1471TIP3    H225905   3.814   3.183  13.039 -1.1656 -0.6453  0.6499
 1472TIP3   OH225906   4.552   0.371  16.474  0.0710  0.6654  0.3736
 1472TIP3    H125907   4.537   0.421  16.555 -0.1352 -0.5321  1.0878
 1472TIP3    H225908   4.555   0.280  16.502  0.9993  0.2977 -0.8405
 1473TIP3   OH225909   2.386   2.548   1.596  0.0046  0.1959  0.5847
 1473TIP3    H125910   2.348   2.550   1.683  1.0253 -0.0149  1.0519
 1473TIP3    H225911   2.451   2.619   1.596  0.4065 -0.1640  0.1909
 1474TIP3   OH225912   2.200   1.678   2.487  0.0042 -0.3300 -0.3526
 1474TIP3    H125913   2.166   1.763   2.458  0.2069 -0.4283 -0.8944
 1474TIP3    H225914   2.127   1.637   2.533 -0.0806  0.1585 -0.0464
 1475TIP3   OH225915   4.985   0.426   2.526  0.3993 -0.2055  0.1579
 1475TIP3    H125916   4.939   0.372   2.590  0.4990 -2.6749 -1.6755
 1475TIP3    H225917   4.939   0.510   2.527 -1.3101 -1.0909  1.5225
 1476TIP3   OH225918   4.332   4.162  14.913 -0.6044  0.2809  0.2521
 1476TIP3    H125919   4.320   4.168  15.007 -1.0975 -0.0680  0.2141
 1476TIP3    H225920   4.261   4.214  14.876 -0.1183  0.8318  0.0777
 1477TIP3   OH225921   4.915   3.166  16.674 -0.1153  0.2175 -0.0097
 1477TIP3    H125922   4.888   3.085  16.716 -2.7171  0.6258 -0.7236
 1477TIP3    H225923   4.972   3.138  16.602  0.6553 -0.7876  0.9582
 1478TIP3   OH225924   6.439   2.786  15.470 -0.2388 -0.1754 -0.9054
 1478TIP3    H125925   6.368   2.789  15.406 -0.8348  0.3865 -0.2356
 1478TIP3    H225926   6.406   2.836  15.545  1.0632  0.5338 -0.7790
 1479TIP3   OH225927   3.925   6.267  16.783  0.3929  0.7710  0.0233
 1479TIP3    H125928   3.852   6.261  16.722  1.9539  0.5572 -1.9050
 1479TIP3    H225929   3.962   6.354  16.768  0.1023  1.1768  1.5281
 1480TIP3   OH225930   0.630   4.103  17.097 -0.3496 -0.5766 -0.1408
 1480TIP3    H125931   0.713   4.110  17.049  1.0647 -0.8384  2.1534
 1480TIP3    H225932   0.643   4.031  17.158 -1.9107  0.0570  1.0060
 1481TIP3   OH225933   6.160   3.394  13.431 -0.0430  0.8830 -0.2887
 1481TIP3    H125934   6.172   3.488  13.421  1.3812  0.8851  1.0158
 1481TIP3    H225935   6.248   3.360  13.448 -0.8162 -0.3208  1.8218
 1482TIP3   OH225936   3.359   0.037   1.804  0.1822  0.0816  1.1144
 1482TIP3    H125937   3.292   0.092   1.763  2.0726  2.2307  0.6818
 1482TIP3    H225938   3.440   0.064   1.761  1.5723 -1.1162  2.8887
 1483TIP3   OH225939   2.806   0.232  11.541 -0.7444  0.1117  0.0213
 1483TIP3    H125940   2.842   0.184  11.616 -0.8677  2.0801  1.4029
 1483TIP3    H225941   2.827   0.177  11.465  0.4904 -1.3338  1.3441
 1484TIP3   OH225942   3.512   5.357  11.394  0.0777 -0.5882  0.2104
 1484TIP3    H125943   3.513   5.433  11.453 -1.1793 -0.5960  0.2654
 1484TIP3    H225944   3.542   5.392  11.310  0.6382 -0.2949  0.5257
 1485TIP3   OH225945   0.444   6.028   4.813  0.3011  0.2890  0.2990
 1485TIP3    H125946   0.518   6.072   4.771  1.1230 -1.0567  0.2796
 1485TIP3    H225947   0.430   5.949   4.761 -0.5330  0.0384  0.8742
 1486TIP3   OH225948   5.068   6.734   4.623 -0.6035 -0.7187 -0.3168
 1486TIP3    H125949   5.126   6.704   4.552  0.1326 -0.5815  0.2134
 1486TIP3    H225950   5.083   6.671   4.693 -1.3373 -0.8556 -0.2819
 1487TIP3   OH225951   6.183   3.911  14.812  0.7968 -0.3923  0.0743
 1487TIP3    H125952   6.192   4.002  14.840  0.0317 -0.7255  1.5150
 1487TIP3    H225953   6.106   3.911  14.755 -0.7360 -0.5002  2.0398
 1488TIP3   OH225954   1.482   5.832  14.684  0.2262 -0.6794 -0.4780
 1488TIP3    H125955   1.392   5.820  14.653  0.5551 -0.2095 -1.6756
 1488TIP3    H225956   1.536   5.808  14.609  1.1285 -1.5207  0.4167
 1489TIP3   OH225957   2.605   1.645  16.773  0.4241  0.7792 -0.2081
 1489TIP3    H125958   2.529   1.629  16.828  0.4208  2.5833  0.3673
 1489TIP3    H225959   2.673   1.587  16.808 -0.4842 -0.4243 -0.3662
 1490TIP3   OH225960   6.478   4.805  16.748  0.4132  0.6382 -0.2795
 1490TIP3    H125961   6.483   4.886  16.697  0.4071 -0.6923 -2.5308
 1490TIP3    H225962   6.567   4.790  16.779 -0.1321  3.0768  2.9443
 1491TIP3   OH225963   3.680   2.784   4.995  0.1517  0.1537 -0.4855
 1491TIP3    H125964   3.724   2.750   4.917 -0.0832  0.1963 -0.6366
 1491TIP3    H225965   3.629   2.858   4.963  0.9575  0.9013 -0.1021
 1492TIP3   OH225966   4.207   5.487   0.909 -0.7355 -0.3198  0.2029
 1492TIP3    H125967   4.269   5.495   0.981  1.3309  1.5355 -1.6294
 1492TIP3    H225968   4.227   5.403   0.869 -1.2305 -0.9066  1.1413
 1493TIP3   OH225969   3.968   4.446  15.062  0.0605  0.3861 -0.2114
 1493TIP3    H125970   3.916   4.453  14.981  0.5649 -0.3318 -0.6118
 1493TIP3    H225971   3.976   4.536  15.093 -0.4243  0.6347 -0.7877
 1494TIP3   OH225972   5.287   2.964   6.127 -0.1467 -0.3465  0.0960
 1494TIP3    H125973   5.236   3.013   6.192  0.2655 -0.5048  0.5476
 1494TIP3    H225974   5.285   3.019   6.049  0.2305  0.3538  0.5694
 1495TIP3   OH225975   3.920   2.144  12.327 -0.4020  0.2180 -0.5490
 1495TIP3    H125976   3.934   2.141  12.233 -0.3451  1.4234 -0.5918
 1495TIP3    H225977   3.911   2.237  12.347 -0.4782 -0.0291  0.6266
 1496TIP3   OH225978   1.837   4.350  12.585 -0.6746  0.4437 -0.2543
 1496TIP3    H125979   1.834   4.332  12.491 -3.8849 -0.8626 -0.0292
 1496TIP3    H225980   1.863   4.442  12.592  1.6273  0.0306 -2.2484
 1497TIP3   OH225981   6.224   4.253  15.416 -0.1773 -0.2698 -0.7597
 1497TIP3    H125982   6.144   4.267  15.467 -0.9490 -0.5885 -1.8364
 1497TIP3    H225983   6.237   4.158  15.419  1.2699 -0.0552  1.0009
 1498TIP3   OH225984   3.462   0.679   3.743 -0.6389  0.9540 -0.0715
 1498TIP3    H125985   3.479   0.762   3.698 -1.6940  2.2071  1.7000
 1498TIP3    H225986   3.471   0.700   3.836 -0.4804 -1.0555  0.4009
 1499TIP3   OH225987   4.019   4.758  14.208 -0.1209 -0.3121 -0.0642
 1499TIP3    H125988   3.973   4.711  14.277 -0.8185 -2.4440 -1.8568
 1499TIP3    H225989   4.102   4.711  14.198 -0.3344 -0.5058 -1.1159
 1500TIP3   OH225990   5.027   2.765  11.742  0.4632  0.2027 -0.5342
 1500TIP3    H125991   5.113   2.778  11.703  0.4710  0.1555 -0.5331
 1500TIP3    H225992   4.982   2.706  11.681  0.3703  0.3660 -0.6222
 1501TIP3   OH225993   2.960   1.238  13.320  0.3735  0.3963 -0.1605
 1501TIP3    H125994   2.930   1.189  13.397 -0.0301 -0.6663 -0.9619
 1501TIP3    H225995   2.986   1.323  13.354 -3.2788  1.3330  0.7064
 1502TIP3   OH225996   2.102   6.592  14.203  0.4007  0.1044 -0.3604
 1502TIP3    H125997   2.076   6.587  14.111  1.9221 -1.8750 -0.7355
 1502TIP3    H225998   2.197   6.601  14.201  0.6743 -1.8480  0.9884
 1503TIP3   OH225999   0.473   4.698  14.318 -0.0436 -0.0810 -0.5044
 1503TIP3    H126000   0.400   4.746  14.357  1.2551  1.2563  0.4169
 1503TIP3    H226001   0.438   4.611  14.299 -1.8273  0.4865 -0.0049
 1504TIP3   OH226002   0.966   5.323   2.300  0.4193 -0.5738  0.5481
 1504TIP3    H126003   0.892   5.285   2.348  0.8060 -0.4446  1.2700
 1504TIP3    H226004   1.006   5.384   2.362 -1.4301  2.7255 -1.2477
 1505TIP3   OH226005   1.285   5.889  13.170 -0.4927 -0.3140  0.1646
 1505TIP3    H126006   1.243   5.975  13.161 -1.8031 -1.0300 -1.0437
 1505TIP3    H226007   1.234   5.845  13.238 -0.8379 -0.6872 -0.3293
 1506TIP3   OH226008   1.380   0.867  15.439  0.1674 -0.2618  0.5559
 1506TIP3    H126009   1.461   0.838  15.396  0.0941 -0.1059  0.3118
 1506TIP3    H226010   1.370   0.958  15.411  0.4584  0.0453  1.4084
 1507TIP3   OH226011   3.896   3.354   3.521 -0.0707  0.0821 -0.7441
 1507TIP3    H126012   3.819   3.312   3.483  0.3448 -0.4204 -1.0387
 1507TIP3    H226013   3.920   3.422   3.459 -0.8581  0.9131 -0.1757
 1508TIP3   OH226014   5.890   1.884  14.984  0.5322 -0.4207 -0.0406
 1508TIP3    H126015   5.967   1.859  14.933  0.0265 -2.0320 -0.0731
 1508TIP3    H226016   5.925   1.908  15.069  1.0964 -0.9138 -0.1234
 1509TIP3   OH226017   5.368   2.822  14.043 -0.4178 -0.3190  0.2843
 1509TIP3    H126018   5.404   2.747  13.997 -0.7155 -0.5196  0.3710
 1509TIP3    H226019   5.331   2.877  13.974 -0.8735 -0.6248  0.2804
 1510TIP3   OH226020   4.155   3.563  13.436 -0.1566 -0.4194 -0.5778
 1510TIP3    H126021   4.063   3.585  13.422 -1.3770 -3.6723  1.0550
 1510TIP3    H226022   4.191   3.551  13.349 -1.7384 -0.5444 -1.2468
 1511TIP3   OH226023   6.766   0.660   1.891  0.2137 -0.1894 -0.2877
 1511TIP3    H126024   6.681   0.618   1.894  0.1436 -0.0010  0.9003
 1511TIP3    H226025   6.753   0.744   1.936  1.1582 -0.4410  0.4955
 1512TIP3   OH226026   2.874   6.332   2.792  0.4408  0.7169  0.3360
 1512TIP3    H126027   2.875   6.245   2.834 -0.7867 -0.3132 -1.6472
 1512TIP3    H226028   2.960   6.339   2.750 -1.2234 -2.1562 -4.2845
 1513TIP3   OH226029   2.399   5.279   1.333  0.0044 -0.1295 -0.1666
 1513TIP3    H126030   2.423   5.214   1.267 -2.8485 -0.2723 -1.2001
 1513TIP3    H226031   2.303   5.284   1.328 -0.1222  1.6473  2.2997
 1514TIP3   OH226032   1.292   1.866  12.469  0.2850  0.0751  0.2638
 1514TIP3    H126033   1.310   1.876  12.562  1.3585 -1.0877  0.2183
 1514TIP3    H226034   1.208   1.821  12.465 -0.0236  0.6110  0.6490
 1515TIP3   OH226035   1.204   3.738   5.272  0.5642  0.2938 -0.5073
 1515TIP3    H126036   1.151   3.674   5.223 -0.0066  0.2495  0.1484
 1515TIP3    H226037   1.276   3.759   5.213  0.5599 -0.6793 -0.8884
 1516TIP3   OH226038   5.065   2.905  15.081 -0.2916 -0.0482 -0.5432
 1516TIP3    H126039   5.111   2.855  15.014 -0.3123  0.3048 -0.8260
 1516TIP3    H226040   4.973   2.882  15.068 -0.1858 -0.8546  0.1075
 1517TIP3   OH226041   6.746   3.287   0.354 -0.1267  0.3356  0.0874
 1517TIP3    H126042   6.794   3.319   0.278 -0.1167 -1.9443 -0.9265
 1517TIP3    H226043   6.801   3.216   0.389 -0.5361  0.7932  1.7435
 1518TIP3   OH226044   4.005   1.862   4.554 -0.0032 -0.1136 -0.8852
 1518TIP3    H126045   3.951   1.840   4.630  1.1141  2.2538  0.7609
 1518TIP3    H226046   3.947   1.851   4.479 -1.8570 -0.4706  0.5096
 1519TIP3   OH226047   3.677   1.334  13.305 -0.3027 -0.5429 -0.6520
 1519TIP3    H126048   3.689   1.389  13.383  0.1199 -0.6998 -0.6043
 1519TIP3    H226049   3.720   1.251  13.327  0.4819 -0.3307 -1.3318
 1520TIP3   OH226050   6.601   5.612   5.513 -0.2348 -0.4673 -0.4042
 1520TIP3    H126051   6.574   5.699   5.542 -1.1707 -0.7823 -0.2867
 1520TIP3    H226052   6.520   5.572   5.480  0.4644 -0.7462 -1.8614
 1521TIP3   OH226053   2.377   5.942   5.694 -0.3814  0.1926  0.0766
 1521TIP3    H126054   2.282   5.948   5.686 -0.5127 -0.5864  0.9400
 1521TIP3    H226055   2.401   6.014   5.753 -0.7511 -1.1611  1.9500
 1522TIP3   OH226056   4.954   2.607  11.141  0.3054 -0.5828  0.1129
 1522TIP3    H126057   5.015   2.548  11.186 -0.4672 -1.0126  0.6182
 1522TIP3    H226058   4.909   2.552  11.077 -0.0768 -0.4377  0.2539
 1523TIP3   OH226059   0.290   0.589  11.534 -0.3890 -0.2683 -0.1968
 1523TIP3    H126060   0.289   0.680  11.505 -0.6459 -0.3297 -0.3855
 1523TIP3    H226061   0.295   0.537  11.454 -2.1660 -0.4655 -0.2348
 1524TIP3   OH226062   5.117   3.503  14.470  0.0475 -0.0978  0.1353
 1524TIP3    H126063   5.071   3.467  14.394  0.6554  1.6849 -1.1581
 1524TIP3    H226064   5.210   3.496  14.448  0.3551 -1.5444  1.7087
 1525TIP3   OH226065   6.419   6.783   0.406 -0.1031 -0.0799 -0.1255
 1525TIP3    H126066   6.435   6.784   0.311  0.1573  0.8915 -0.0777
 1525TIP3    H226067   6.497   6.741   0.443 -0.0254 -0.0959 -0.3062
 1526TIP3   OH226068   5.302   2.885  16.069  0.5650  0.1960  0.1068
 1526TIP3    H126069   5.277   2.792  16.066  2.0475 -0.2372  0.1703
 1526TIP3    H226070   5.379   2.891  16.011  1.7365  0.9461  1.6694
 1527TIP3   OH226071   2.654   6.497  10.719 -0.1883  0.0289  0.3438
 1527TIP3    H126072   2.694   6.553  10.653 -0.5834 -0.9192 -0.7358
 1527TIP3    H226073   2.720   6.431  10.739 -0.8411 -1.0047 -0.7789
 1528TIP3   OH226074   2.361   4.276  13.776  0.0821 -0.5290  0.0739
 1528TIP3    H126075   2.335   4.196  13.821  0.7750 -0.8509 -0.0871
 1528TIP3    H226076   2.454   4.286  13.797  0.8430 -1.5230 -2.4766
 1529TIP3   OH226077   0.688   4.187  15.337 -1.0121 -0.0054 -0.0482
 1529TIP3    H126078   0.755   4.227  15.393  0.1566  0.6129 -1.7756
 1529TIP3    H226079   0.605   4.222  15.369 -0.2142  1.9277  0.0577
 1530TIP3   OH226080   0.152   2.161   4.843 -0.0807  0.1343 -0.7265
 1530TIP3    H126081   0.121   2.098   4.778  1.8519 -1.6609 -0.0115
 1530TIP3    H226082   0.195   2.229   4.792 -1.2262  0.3207 -1.4647
 1531TIP3   OH226083   3.833   5.154   2.279 -0.0775 -0.3480 -0.1077
 1531TIP3    H126084   3.916   5.170   2.323  0.5645 -2.0299 -0.6057
 1531TIP3    H226085   3.843   5.067   2.240 -0.9667  0.5967 -2.7041
 1532TIP3   OH226086   3.387   2.059   0.923 -0.3551 -0.1432  0.5607
 1532TIP3    H126087   3.399   1.969   0.950  0.1042 -0.2951 -0.1202
 1532TIP3    H226088   3.475   2.098   0.929 -0.2259 -0.1966 -0.7088
 1533TIP3   OH226089   6.491   6.371   3.567 -0.4859  0.0960 -0.2306
 1533TIP3    H126090   6.449   6.324   3.639 -0.4891 -1.0657 -0.9516
 1533TIP3    H226091   6.443   6.454   3.561 -0.3451  0.3041  1.2201
 1534TIP3   OH226092   0.567   0.280  12.250 -0.1482 -0.7757 -0.0239
 1534TIP3    H126093   0.546   0.286  12.343 -3.4817  1.4348 -0.7369
 1534TIP3    H226094   0.513   0.207  12.218 -0.5499 -0.2696 -0.5244
 1535TIP3   OH226095   2.937   5.573   2.968 -0.1395  0.5156  0.3586
 1535TIP3    H126096   2.890   5.580   3.051 -0.9788  0.6269 -0.1185
 1535TIP3    H226097   3.022   5.614   2.985 -0.8836  1.9485  0.7259
 1536TIP3   OH226098   1.117   3.614   6.031 -0.5420 -0.0356  0.6988
 1536TIP3    H126099   1.041   3.577   5.987 -0.3179 -2.5018  2.2062
 1536TIP3    H226100   1.094   3.613   6.124 -0.2690  3.2333  0.9167
 1537TIP3   OH226101   4.192   4.140   2.341 -0.2512 -1.0956  0.4864
 1537TIP3    H126102   4.100   4.113   2.338 -0.1633 -1.6418 -3.7501
 1537TIP3    H226103   4.238   4.064   2.377 -1.1672 -2.2282 -0.6446
 1538TIP3   OH226104   1.538   3.255  11.461  0.4595 -0.1497 -0.0009
 1538TIP3    H126105   1.596   3.200  11.514  1.9586  2.2940  1.0717
 1538TIP3    H226106   1.534   3.338  11.508 -0.7158  1.0968 -2.1365
 1539TIP3   OH226107   6.079   2.547  11.294 -0.5058  0.3103 -0.1301
 1539TIP3    H126108   6.121   2.616  11.345 -1.4550  0.0913  0.9831
 1539TIP3    H226109   6.113   2.466  11.331 -0.1501  0.1537 -0.7812
 1540TIP3   OH226110   3.459   6.713  11.434  0.2588 -0.6355  0.3639
 1540TIP3    H126111   3.404   6.786  11.405 -0.3585 -1.7325 -1.4176
 1540TIP3    H226112   3.418   6.684  11.516 -0.0071  0.4508  0.6330
 1541TIP3   OH226113   2.423   3.274  14.339  0.5146  0.1543  0.3268
 1541TIP3    H126114   2.479   3.208  14.298 -0.3263 -0.3909  0.0495
 1541TIP3    H226115   2.422   3.249  14.432  1.4270  0.6836  0.5018
 1542TIP3   OH226116   4.661   2.617   1.361 -0.6428  0.2721  0.4929
 1542TIP3    H126117   4.741   2.666   1.342 -0.2258 -0.2795  0.7754
 1542TIP3    H226118   4.621   2.601   1.276  0.8707 -1.6309  0.0605
 1543TIP3   OH226119   3.178   0.330  16.126 -0.1082  0.1120  0.5375
 1543TIP3    H126120   3.172   0.363  16.215 -1.8850 -0.5146  0.6774
 1543TIP3    H226121   3.253   0.269  16.128  0.1064  0.4006  1.4887
 1544TIP3   OH226122   6.090   0.248  13.994 -0.6268  0.5203 -0.9724
 1544TIP3    H126123   6.030   0.180  13.961  1.0805 -0.8194 -1.4563
 1544TIP3    H226124   6.142   0.273  13.918  1.1583 -0.2257 -0.0459
 1545TIP3   OH226125   6.111   6.223   4.492  0.4025  0.4872 -0.7788
 1545TIP3    H126126   6.144   6.244   4.405  0.8261  1.9908 -0.2882
 1545TIP3    H226127   6.092   6.308   4.532 -0.7269 -0.2087  0.2470
 1546TIP3   OH226128   5.010   3.513   0.559 -0.5749 -0.4625 -0.3643
 1546TIP3    H126129   4.994   3.584   0.497 -3.1957 -1.2131 -0.6710
 1546TIP3    H226130   5.106   3.506   0.564 -0.2513  0.4370 -3.4028
 1547TIP3   OH226131   4.096   3.454  14.684  0.9466  0.4734  0.0398
 1547TIP3    H126132   4.089   3.382  14.747 -0.0224 -0.4884 -1.1084
 1547TIP3    H226133   4.040   3.523  14.721  2.3811  0.9321  1.4710
 1548TIP3   OH226134   5.685   0.473   3.413  0.6189  0.6472 -0.5366
 1548TIP3    H126135   5.767   0.433   3.441  0.6402 -0.7303 -2.3424
 1548TIP3    H226136   5.673   0.548   3.471  2.1279 -0.2710  1.0552
 1549TIP3   OH226137   6.579   1.718   4.726 -0.6597  0.0297 -0.0164
 1549TIP3    H126138   6.494   1.750   4.693 -0.6388 -0.3180 -0.4161
 1549TIP3    H226139   6.643   1.774   4.683 -0.7358  1.4153  1.5651
 1550TIP3   OH226140   6.330   0.978   0.531  0.5541  0.1157 -0.0957
 1550TIP3    H126141   6.234   0.978   0.525  0.5250  0.2318  0.3494
 1550TIP3    H226142   6.359   1.001   0.443  0.1909 -0.7873 -0.4697
 1551TIP3   OH226143   2.229   2.669  13.691 -0.7662  0.1050  0.0472
 1551TIP3    H126144   2.317   2.632  13.695 -0.6137  0.1659 -1.8818
 1551TIP3    H226145   2.242   2.763  13.684 -1.0094  0.1564  0.2546
 1552TIP3   OH226146   5.324   5.371  15.985 -0.1127 -0.0187 -0.2876
 1552TIP3    H126147   5.417   5.381  15.968 -0.0681 -1.4426 -1.0020
 1552TIP3    H226148   5.297   5.296  15.931 -1.0015 -1.6420  2.2487
 1553TIP3   OH226149   6.665   1.528  13.235 -0.1906  0.1307  0.2053
 1553TIP3    H126150   6.593   1.493  13.289 -0.5302  0.3512 -0.1066
 1553TIP3    H226151   6.705   1.450  13.197  0.5998 -0.0995  1.4588
 1554TIP3   OH226152   3.787   0.845  15.214  0.2302  0.0478  0.2790
 1554TIP3    H126153   3.739   0.786  15.272 -0.1584 -2.1324 -2.1037
 1554TIP3    H226154   3.865   0.869  15.264 -0.3949 -1.1762  1.9323
 1555TIP3   OH226155   1.043   5.421   4.574  0.1745 -0.4322  0.1539
 1555TIP3    H126156   1.138   5.420   4.586  0.1016 -0.0585  0.7913
 1555TIP3    H226157   1.029   5.379   4.489  0.8693 -1.0703  0.3459
 1556TIP3   OH226158   1.252   0.763   2.475 -0.0902 -0.1101 -0.1545
 1556TIP3    H126159   1.251   0.730   2.564 -2.2353  1.3888  0.4566
 1556TIP3    H226160   1.334   0.813   2.469 -0.7309  1.2492  1.5973
 1557TIP3   OH226161   6.241   2.190   4.414 -0.2431 -0.9075  0.2026
 1557TIP3    H126162   6.213   2.230   4.497  2.1060  0.4502  0.4192
 1557TIP3    H226163   6.173   2.216   4.351 -1.1545 -0.4892  1.3223
 1558TIP3   OH226164   3.048   4.960   1.814  0.3908  0.1776 -0.1883
 1558TIP3    H126165   3.012   4.981   1.900  2.5184 -1.2238  1.1548
 1558TIP3    H226166   2.988   4.894   1.779 -0.0458  0.1255  0.6259
 1559TIP3   OH226167   1.935   5.745   2.495  0.0258  0.0067  0.4548
 1559TIP3    H126168   1.842   5.724   2.498 -0.2610  1.0178 -0.6870
 1559TIP3    H226169   1.943   5.814   2.429  1.3330  1.2387  1.8095
 1560TIP3   OH226170   0.824   5.247  16.839  0.1006 -0.0940 -0.0406
 1560TIP3    H126171   0.853   5.199  16.761 -2.8131 -0.4395 -1.0066
 1560TIP3    H226172   0.822   5.338  16.811 -0.9993 -0.2244 -0.4172
 1561TIP3   OH226173   5.128   6.245  13.736 -0.7425  0.0308 -0.0499
 1561TIP3    H126174   5.117   6.328  13.783 -0.5513 -0.0091  0.0649
 1561TIP3    H226175   5.101   6.264  13.646 -1.6667 -0.0356  0.1982
 1562TIP3   OH226176   2.696   5.757  15.209 -0.0841 -0.2598 -0.7487
 1562TIP3    H126177   2.613   5.797  15.233 -0.3816 -0.8967 -0.7062
 1562TIP3    H226178   2.748   5.829  15.173  0.4251  0.7945  1.8831
 1563TIP3   OH226179   1.650   4.235   6.356 -0.1215 -0.1948  0.5667
 1563TIP3    H126180   1.721   4.210   6.297 -0.5253  0.9001 -0.4358
 1563TIP3    H226181   1.647   4.166   6.421  2.6183  0.2657  1.3214
 1564TIP3   OH226182   1.734   6.046   0.010  0.3119  0.4843  0.0604
 1564TIP3    H126183   1.814   5.996   0.022  0.3619  0.0771 -1.7210
 1564TIP3    H226184   1.676   6.017   0.081  0.9437 -0.8508  0.0469
 1565TIP3   OH226185   4.738   3.657  12.951 -0.0862  0.7173 -0.0023
 1565TIP3    H126186   4.740   3.725  13.020  0.1452 -0.9772  1.7524
 1565TIP3    H226187   4.815   3.675  12.898  1.0366  0.7700  1.5706
 1566TIP3   OH226188   0.846   0.361   2.133  0.2935 -0.3436  0.0703
 1566TIP3    H126189   0.831   0.387   2.224 -0.7775 -0.0112 -0.1933
 1566TIP3    H226190   0.799   0.426   2.082  1.2859 -0.2480 -0.7539
 1567TIP3   OH226191   1.838   5.758   0.517  0.6031  0.3452 -0.1596
 1567TIP3    H126192   1.785   5.700   0.462 -1.6567  1.4020  0.8163
 1567TIP3    H226193   1.865   5.702   0.591  0.2514 -0.0206 -0.3041
 1568TIP3   OH226194   1.141   2.560  12.176 -0.2521 -0.2014 -0.1647
 1568TIP3    H126195   1.118   2.639  12.127  0.4513 -0.5207 -1.0451
 1568TIP3    H226196   1.125   2.583  12.268 -0.2477  0.8904 -0.4234
 1569TIP3   OH226197   6.490   4.590  13.298  0.5520  0.1799 -0.2620
 1569TIP3    H126198   6.450   4.547  13.222 -1.2073  1.1298  0.0783
 1569TIP3    H226199   6.583   4.597  13.275  0.7246 -2.6478 -0.8535
 1570TIP3   OH226200   6.452   6.084  15.638 -0.2139  0.5069 -0.5528
 1570TIP3    H126201   6.489   6.164  15.677  0.9924  0.3531 -1.3685
 1570TIP3    H226202   6.512   6.061  15.568 -0.1157 -1.5817  0.1700
 1571TIP3   OH226203   3.135   2.777   2.053 -0.3914  0.2737  0.0293
 1571TIP3    H126204   3.052   2.822   2.038 -1.1256 -0.6332  1.1477
 1571TIP3    H226205   3.184   2.788   1.972 -1.3973  1.2556 -0.4690
 1572TIP3   OH226206   1.193   2.112  15.417 -0.5343 -0.3834  0.1001
 1572TIP3    H126207   1.133   2.156  15.478 -1.7047  0.7808 -1.7882
 1572TIP3    H226208   1.272   2.167  15.418 -0.8410  0.0692  0.0011
 1573TIP3   OH226209   6.395   5.553   1.748  0.1687  0.1067  0.3771
 1573TIP3    H126210   6.403   5.648   1.759  1.4363 -0.1940  2.3731
 1573TIP3    H226211   6.321   5.543   1.688  1.9649  2.4391 -2.5739
 1574TIP3   OH226212   3.359   5.541   0.554  0.0513 -0.3254 -0.5832
 1574TIP3    H126213   3.330   5.469   0.499  0.5492 -0.9403 -0.0527
 1574TIP3    H226214   3.453   5.549   0.536 -0.0207  0.2876 -0.7384
 1575TIP3   OH226215   1.773   3.374  13.355 -0.2174  0.2441 -0.2711
 1575TIP3    H126216   1.837   3.378  13.284 -0.4925 -0.1036 -0.5469
 1575TIP3    H226217   1.788   3.289  13.396  0.7170  0.9153  0.8458
 1576TIP3   OH226218   3.397   2.066  12.433 -0.4373  0.1706 -0.1073
 1576TIP3    H126219   3.448   2.046  12.512 -0.2847  0.9716  0.0128
 1576TIP3    H226220   3.393   1.984  12.385  0.0142 -0.1740  0.4314
 1577TIP3   OH226221   1.012   4.789   0.290 -0.4487  0.2248  0.2624
 1577TIP3    H126222   0.979   4.872   0.256  0.2071  0.2899 -0.2249
 1577TIP3    H226223   0.934   4.735   0.300 -0.8627  0.8347  0.4150
 1578TIP3   OH226224   0.931   0.819  17.169  0.2587 -0.4963 -0.1463
 1578TIP3    H126225   1.022   0.836  17.192  0.0708  0.0239  0.2557
 1578TIP3    H226226   0.881   0.872  17.232 -0.3070 -0.3235 -0.7356
 1579TIP3   OH226227   3.550   0.983  13.443 -0.0115  0.2735  0.2345
 1579TIP3    H126228   3.499   1.023  13.373  2.1553  3.8265  0.4376
 1579TIP3    H226229   3.630   0.953  13.400  0.4116  0.5169  0.8331
 1580TIP3   OH226230   3.929   5.427  13.886 -0.3285 -0.2466 -0.2200
 1580TIP3    H126231   3.889   5.414  13.972  0.2866  0.7919  0.2463
 1580TIP3    H226232   3.997   5.494  13.901  1.7103 -2.0393 -0.9181
 1581TIP3   OH226233   1.194   3.596  12.097 -0.0391  0.2164  0.1811
 1581TIP3    H126234   1.273   3.605  12.043  0.7070 -1.2798  0.9524
 1581TIP3    H226235   1.153   3.516  12.066 -0.4461  0.1819  0.8038
 1582TIP3   OH226236   0.182   2.135  11.332  0.1299  0.0114 -0.4509
 1582TIP3    H126237   0.201   2.115  11.240 -1.3614  0.2070 -0.8323
 1582TIP3    H226238   0.087   2.145  11.335  0.0937 -0.5558  1.2448
 1583TIP3   OH226239   4.828   0.983   0.250  0.0171 -0.2182  0.1094
 1583TIP3    H126240   4.762   1.012   0.186 -0.7290 -0.1619  0.8856
 1583TIP3    H226241   4.778   0.964   0.329  0.6690 -2.1874  0.1129
 1584TIP3   OH226242   6.769   2.995   4.795  0.0157 -0.3816 -0.7432
 1584TIP3    H126243   6.715   3.034   4.726 -0.8060  1.2266  0.7424
 1584TIP3    H226244   6.841   3.056   4.806  0.1156 -0.6056 -0.1528
 1585TIP3   OH226245   6.489   6.598  11.494  0.3750 -0.3798  0.5051
 1585TIP3    H126246   6.414   6.657  11.500  0.8231  0.0939  1.9440
 1585TIP3    H226247   6.491   6.553  11.579  1.3453 -0.8432  0.2480
 1586TIP3   OH226248   4.593   0.731   1.383 -0.3171 -0.4158  0.0121
 1586TIP3    H126249   4.526   0.754   1.448  0.0153  0.1508  0.1606
 1586TIP3    H226250   4.643   0.660   1.424  1.0861  1.1762  1.2084
 1587TIP3   OH226251   3.449   6.586   3.978 -0.3819  0.0879 -0.3372
 1587TIP3    H126252   3.436   6.631   3.894 -0.1404 -1.8059 -1.4309
 1587TIP3    H226253   3.418   6.497   3.963  0.5859 -0.5674  1.2946
 1588TIP3   OH226254   0.853   1.947  15.203  0.2766 -0.0611  0.4123
 1588TIP3    H126255   0.927   2.000  15.172  0.8455 -1.0034  0.1014
 1588TIP3    H226256   0.833   1.890  15.129 -0.3363 -0.2689  0.7367
 1589TIP3   OH226257   5.082   1.559   0.507 -0.0246  0.1963  0.3089
 1589TIP3    H126258   5.044   1.600   0.430 -2.4242 -0.5580  1.0116
 1589TIP3    H226259   5.032   1.478   0.519  1.6202 -0.7188  1.5295
 1590TIP3   OH226260   4.305   4.512   4.047  0.3118  0.0178 -0.2800
 1590TIP3    H126261   4.291   4.546   3.958  1.4497 -0.6375 -0.7370
 1590TIP3    H226262   4.344   4.425   4.033 -1.8938 -1.2626  0.8298
 1591TIP3   OH226263   5.527   2.977  15.664  0.0980  0.3733  0.2678
 1591TIP3    H126264   5.461   2.925  15.618  0.9636 -0.6877  0.1712
 1591TIP3    H226265   5.495   3.067  15.661 -1.9866 -0.2817  1.3473
 1592TIP3   OH226266   4.772   5.727  15.966 -0.5742 -0.2446 -0.1642
 1592TIP3    H126267   4.717   5.791  15.921 -1.1434 -1.1677 -0.8367
 1592TIP3    H226268   4.833   5.697  15.898 -1.3695 -1.5786 -0.3175
 1593TIP3   OH226269   1.029   4.360   6.369  0.4036 -0.3684  0.4418
 1593TIP3    H126270   1.115   4.382   6.334  0.3322  0.6537  0.8771
 1593TIP3    H226271   1.047   4.296   6.438  0.8815  0.2233  0.8852
 1594TIP3   OH226272   4.061   4.168  13.825 -0.3370 -0.3639  0.0142
 1594TIP3    H126273   4.130   4.102  13.830  1.6418  1.5689  0.1207
 1594TIP3    H226274   4.013   4.159  13.907  0.4562 -1.0743  0.4216
 1595TIP3   OH226275   3.008   0.331  15.210 -0.1623  0.0701 -0.5337
 1595TIP3    H126276   3.081   0.270  15.224 -0.7171 -0.8011 -1.2990
 1595TIP3    H226277   2.985   0.360  15.298  2.0148  1.5065 -0.3440
 1596TIP3   OH226278   2.472   6.565   0.263  0.1043 -0.3037 -0.2212
 1596TIP3    H126279   2.474   6.470   0.250 -2.0275 -0.3678 -0.3028
 1596TIP3    H226280   2.454   6.601   0.176 -0.0377  0.1232 -0.0195
 1597TIP3   OH226281   6.374   0.962  14.317 -0.8078  0.0705 -0.7843
 1597TIP3    H126282   6.319   1.034  14.288 -0.2840  0.0413 -1.9204
 1597TIP3    H226283   6.346   0.887  14.264  0.0508 -0.0278 -1.1300
 1598TIP3   OH226284   0.497   2.408  16.851  0.2219  0.6259  0.4528
 1598TIP3    H126285   0.527   2.352  16.780  2.5151  1.3476  0.7837
 1598TIP3    H226286   0.442   2.351  16.904 -0.0782 -0.4167 -0.9028
 1599TIP3   OH226287   0.448   0.194   1.089 -0.0041 -0.3690  0.2258
 1599TIP3    H126288   0.375   0.238   1.045 -0.0765 -1.1381 -0.4652
 1599TIP3    H226289   0.507   0.264   1.116 -0.7353  0.2246  0.3053
 1600TIP3   OH226290   4.358   5.340  14.234  0.1516 -0.1165 -0.0872
 1600TIP3    H126291   4.362   5.418  14.290 -2.7199  0.4519 -0.5293
 1600TIP3    H226292   4.319   5.371  14.153  0.8465 -1.6760 -1.0536
 1601TIP3   OH226293   4.105   2.364  10.504  0.2514 -0.4142  0.2243
 1601TIP3    H126294   4.199   2.378  10.518  0.6681 -3.0078  0.5793
 1601TIP3    H226295   4.092   2.378  10.410  0.3588  2.7206  0.5818
 1602TIP3   OH226296   6.636   0.225   4.621 -0.2051 -0.0794 -0.0232
 1602TIP3    H126297   6.713   0.255   4.668 -0.2847 -0.2062  0.1900
 1602TIP3    H226298   6.562   0.267   4.666 -0.2894 -0.2911  0.0411
 1603TIP3   OH226299   6.523   0.477   3.275 -0.4045 -0.7520 -0.1117
 1603TIP3    H126300   6.610   0.437   3.275  0.3017  0.5987  1.7836
 1603TIP3    H226301   6.491   0.464   3.364 -0.9946  1.0321 -0.0237
 1604TIP3   OH226302   0.135   1.568   3.618  0.6225  0.0360  0.0757
 1604TIP3    H126303   0.110   1.568   3.710  1.0652 -1.1769  0.2059
 1604TIP3    H226304   0.081   1.637   3.579 -0.6352 -0.4217  0.9537
 1605TIP3   OH226305   4.797   0.072  14.660 -0.7018  0.5534  0.0923
 1605TIP3    H126306   4.709   0.035  14.661 -0.9183  1.0618  1.4883
 1605TIP3    H226307   4.851   0.002  14.622 -1.6814  0.2399 -0.8075
 1606TIP3   OH226308   3.345   0.136  16.789  0.0828 -0.2772  0.9322
 1606TIP3    H126309   3.391   0.187  16.722  1.4092 -1.6388  0.7514
 1606TIP3    H226310   3.253   0.140  16.764  0.4694 -0.1248 -0.5311
 1607TIP3   OH226311   1.014   1.879  14.086 -0.0849 -0.5173  0.2356
 1607TIP3    H126312   1.092   1.914  14.044 -0.4788 -1.5227 -1.4291
 1607TIP3    H226313   1.046   1.808  14.141  0.1281 -1.6293 -1.2536
 1608TIP3   OH226314   1.037   2.567   0.586  0.2023  0.6783  0.0202
 1608TIP3    H126315   0.977   2.561   0.512 -1.5927  0.4061  1.4483
 1608TIP3    H226316   0.982   2.587   0.661  1.5688 -1.7296  1.8091
 1609TIP3   OH226317   6.100   1.572  17.200  0.2468 -0.3591 -0.3920
 1609TIP3    H126318   6.013   1.612  17.199 -0.1241 -1.1276  0.2273
 1609TIP3    H226319   6.097   1.509  17.128  0.1833 -0.6089 -0.1705
 1610TIP3   OH226320   3.846   4.167   4.368 -0.0931  0.5228  0.6492
 1610TIP3    H126321   3.897   4.248   4.371 -1.2904  1.6348 -3.1399
 1610TIP3    H226322   3.755   4.197   4.356 -0.5654 -1.3247 -0.7710
 1611TIP3   OH226323   6.431   4.589   6.749 -0.1232  0.3621 -0.1439
 1611TIP3    H126324   6.479   4.510   6.775 -1.8341 -0.7458 -0.2013
 1611TIP3    H226325   6.455   4.655   6.814  0.3161 -0.5963  0.6793
 1612TIP3   OH226326   5.364   4.412  14.843 -0.0310 -0.2841  0.4652
 1612TIP3    H126327   5.370   4.425  14.938 -0.3686 -0.1505  0.4669
 1612TIP3    H226328   5.451   4.436  14.811 -0.2909  0.9141  0.5996
 1613TIP3   OH226329   3.226   5.831  13.257 -0.6556  0.1055 -0.1366
 1613TIP3    H126330   3.297   5.831  13.194 -1.4885 -0.6664 -1.1012
 1613TIP3    H226331   3.152   5.868  13.210 -1.4620 -1.0589  0.1738
 1614TIP3   OH226332   2.153   1.594   0.868 -0.2919  0.1170 -0.0597
 1614TIP3    H126333   2.058   1.583   0.876 -0.7670  2.8441 -0.9249
 1614TIP3    H226334   2.177   1.546   0.789 -0.9093 -0.6349  0.1988
 1615TIP3   OH226335   4.647   4.872  13.716  0.0889 -0.3440  0.6709
 1615TIP3    H126336   4.607   4.800  13.666 -1.2218  0.2303  0.8411
 1615TIP3    H226337   4.572   4.921  13.750  0.9510 -0.2527  2.5487
 1616TIP3   OH226338   6.178   1.243   0.834  0.2127 -0.2167 -0.7422
 1616TIP3    H126339   6.147   1.334   0.841 -0.8503 -0.6232  0.0242
 1616TIP3    H226340   6.099   1.192   0.821  0.7408 -1.1097 -0.5056
 1617TIP3   OH226341   3.441   0.527   0.786 -0.4625 -0.3712 -0.3515
 1617TIP3    H126342   3.435   0.445   0.737  0.0019 -0.0543 -0.9479
 1617TIP3    H226343   3.534   0.538   0.805 -0.7617 -1.1912  1.8545
 1618TIP3   OH226344   4.173   5.075  11.467  0.3100 -0.0652  0.2149
 1618TIP3    H126345   4.228   5.110  11.538 -0.6885  0.8630  0.5519
 1618TIP3    H226346   4.185   4.980  11.473 -0.6191 -0.1029  2.3911
 1619TIP3   OH226347   2.683   0.441   5.660 -0.1186  0.4433 -0.1002
 1619TIP3    H126348   2.747   0.499   5.618  1.7022 -0.3576  1.3976
 1619TIP3    H226349   2.696   0.356   5.618  1.3009 -0.2171  1.5282
 1620TIP3   OH226350   1.601   2.818  16.536 -0.4909  0.1301  0.0064
 1620TIP3    H126351   1.576   2.911  16.530 -0.6814 -0.0139 -1.9638
 1620TIP3    H226352   1.696   2.820  16.543 -0.3571  0.4819 -1.5027
 1621TIP3   OH226353   6.593   5.834  15.067  0.2451 -0.0561 -0.2578
 1621TIP3    H126354   6.585   5.924  15.037  3.7427  1.8408  3.4911
 1621TIP3    H226355   6.507   5.811  15.101 -0.1422  2.9023  0.9964
 1622TIP3   OH226356   2.946   1.832  12.502  0.3803 -0.2423  0.8240
 1622TIP3    H126357   2.961   1.908  12.446  1.2238 -1.5851 -0.8978
 1622TIP3    H226358   2.875   1.858  12.560 -0.8417  1.1557 -1.1540
 1623TIP3   OH226359   2.128   6.342  13.179  0.9341 -0.0066  0.5735
 1623TIP3    H126360   2.171   6.392  13.249 -0.3308  0.2054  1.2476
 1623TIP3    H226361   2.199   6.300  13.131  2.0587  2.2666  0.1073
 1624TIP3   OH226362   0.005   2.746  13.359 -0.2421  0.0135 -0.1462
 1624TIP3    H126363   0.013   2.664  13.310  1.2729 -0.6775  1.1671
 1624TIP3    H226364   0.081   2.746  13.418 -0.7921  1.8661  0.6221
 1625TIP3   OH226365   3.213   4.614  14.715 -0.5579  0.5724 -0.0135
 1625TIP3    H126366   3.284   4.648  14.661  0.2686 -1.4504 -0.3091
 1625TIP3    H226367   3.245   4.620  14.805 -0.0427 -0.2063 -0.1349
 1626TIP3   OH226368   2.437   0.563  14.177  0.6038  0.8346 -0.2312
 1626TIP3    H126369   2.513   0.557  14.118 -0.7844 -1.0246 -1.9807
 1626TIP3    H226370   2.424   0.473  14.207  0.2491  1.4781  1.6226
 1627TIP3   OH226371   3.636   1.341  12.224  0.0656 -0.3812 -0.3669
 1627TIP3    H126372   3.603   1.429  12.206 -1.5457 -1.0611 -0.8749
 1627TIP3    H226373   3.728   1.344  12.196  0.1908  1.2717  0.1191
 1628TIP3   OH226374   5.338   2.687  16.522  0.5236 -0.3520 -0.2975
 1628TIP3    H126375   5.312   2.713  16.433 -1.3042 -0.9448  0.0182
 1628TIP3    H226376   5.304   2.757  16.577  0.5682 -0.5901  0.0327
 1629TIP3   OH226377   0.763   0.709  11.330  0.2899  0.8214  0.0621
 1629TIP3    H126378   0.774   0.631  11.276 -1.0321  1.2109 -0.8324
 1629TIP3    H226379   0.851   0.744  11.340  0.9207 -0.7656  0.4952
 1630TIP3   OH226380   2.204   0.057   4.867 -0.3979  0.4803 -0.1283
 1630TIP3    H126381   2.283   0.104   4.843 -0.1948 -0.3165 -1.0792
 1630TIP3    H226382   2.170   0.022   4.785 -1.6768  0.7072  0.2809
 1631TIP3   OH226383   6.673   0.670  12.255 -0.1398  0.3418  0.4171
 1631TIP3    H126384   6.746   0.618  12.221 -0.1897 -0.9763  2.2332
 1631TIP3    H226385   6.603   0.607  12.268 -0.9027  1.2337  0.7371
 1632TIP3   OH226386   1.978   2.485   3.982 -0.1038 -0.3122  0.0585
 1632TIP3    H126387   2.005   2.570   3.946  0.1791 -0.4627 -0.0899
 1632TIP3    H226388   2.047   2.425   3.954 -0.7921 -0.7875 -0.6286
 1633TIP3   OH226389   3.212   5.377   2.976  0.6731  0.1052  0.0939
 1633TIP3    H126390   3.230   5.292   2.936  0.1300  0.7134 -1.5413
 1633TIP3    H226391   3.186   5.433   2.903 -1.3007  1.0512  1.4402
 1634TIP3   OH226392   0.382   4.701   0.879  0.1100 -0.4010  0.3544
 1634TIP3    H126393   0.463   4.727   0.835 -0.0078  0.4536  0.6219
 1634TIP3    H226394   0.323   4.676   0.808  0.6336 -1.1358  0.1623
 1635TIP3   OH226395   4.616   6.292   4.640  0.3478 -0.0906 -0.3701
 1635TIP3    H126396   4.678   6.242   4.587  0.3046 -0.4882 -0.0517
 1635TIP3    H226397   4.654   6.294   4.728  0.3377  0.4211 -0.3767
 1636TIP3   OH226398   0.259   4.359   5.612 -0.1119  0.1175  0.0759
 1636TIP3    H126399   0.347   4.341   5.644 -0.4868 -0.0288  1.0535
 1636TIP3    H226400   0.226   4.273   5.583 -0.6692 -0.2345  1.6306
 1637TIP3   OH226401   2.206   0.068  13.158 -0.5605 -0.7354 -0.0415
 1637TIP3    H126402   2.147  -0.007  13.168  0.3101 -1.4830 -0.3600
 1637TIP3    H226403   2.288   0.030  13.128  0.0819  0.2955  0.3579
 1638TIP3   OH226404   6.438   5.588   6.213 -0.4236  0.6192  0.4467
 1638TIP3    H126405   6.396   5.635   6.140 -1.2140  0.9193  1.0830
 1638TIP3    H226406   6.441   5.651   6.284  2.6158  1.1657 -0.0123
 1639TIP3   OH226407   2.209   1.536   1.107  0.6135 -0.3073  0.1479
 1639TIP3    H126408   2.276   1.594   1.144  0.2347  0.2578 -0.0480
 1639TIP3    H226409   2.206   1.559   1.014  0.1678 -0.3565  0.1491
 1640TIP3   OH226410   5.048   4.742  16.002  0.2780 -0.0309 -0.2291
 1640TIP3    H126411   5.130   4.738  16.053  0.5117 -0.6805 -0.6505
 1640TIP3    H226412   5.074   4.720  15.913 -0.0503  1.5372 -0.7492
 1641TIP3   OH226413   1.309   4.670   1.637 -0.1491 -0.3673 -0.0952
 1641TIP3    H126414   1.348   4.645   1.721 -0.7144 -1.5119 -0.1545
 1641TIP3    H226415   1.216   4.679   1.656  0.1102  2.9303  0.1847
 1642TIP3   OH226416   0.261   0.455   4.614 -0.3201  0.2018 -0.0965
 1642TIP3    H126417   0.281   0.363   4.632  1.4144  0.4136 -0.7544
 1642TIP3    H226418   0.220   0.454   4.528  0.2260  0.0952 -0.3563
 1643TIP3   OH226419   0.494   2.148   4.195  0.3323  0.2483 -0.3633
 1643TIP3    H126420   0.509   2.187   4.281 -1.0089  0.5838 -0.2610
 1643TIP3    H226421   0.445   2.214   4.147 -0.8051 -0.7488 -0.6407
 1644TIP3   OH226422   4.521   2.892   0.041 -0.3534 -0.3550  0.2692
 1644TIP3    H126423   4.575   2.914  -0.034 -0.3333 -0.3900  0.2731
 1644TIP3    H226424   4.554   2.807   0.070  0.2073  0.0447  0.8334
 1645TIP3   OH226425   5.387   4.748  13.802 -0.3530 -0.2062  0.4831
 1645TIP3    H126426   5.335   4.813  13.848 -0.7514  0.2433 -0.5680
 1645TIP3    H226427   5.468   4.794  13.779 -1.2364  0.4344 -1.5716
 1646TIP3   OH226428   3.294   0.252   1.189 -0.4424 -0.7828  0.2704
 1646TIP3    H126429   3.296   0.311   1.114  3.5768 -0.4823  0.3892
 1646TIP3    H226430   3.249   0.302   1.257  1.8534  1.8522  0.0264
 1647TIP3   OH226431   3.240   4.926  14.454 -0.2426 -0.3653  0.1746
 1647TIP3    H126432   3.202   4.884  14.377  0.2605  0.2208 -0.4007
 1647TIP3    H226433   3.188   5.006  14.466  1.5340  1.1077 -1.3749
 1648TIP3   OH226434   5.667   3.321  13.767  0.1655  0.4123  0.1052
 1648TIP3    H126435   5.628   3.342  13.852  2.1530  0.3435  1.0977
 1648TIP3    H226436   5.658   3.401  13.715 -0.0461  0.8436  0.7976
 1649TIP3   OH226437   1.238   1.737  14.602 -0.6793 -0.4586  0.0639
 1649TIP3    H126438   1.169   1.803  14.609 -0.0807  0.4060 -1.5211
 1649TIP3    H226439   1.270   1.726  14.691 -0.6346  1.5811  0.3566
 1650TIP3   OH226440   6.703   3.146  15.025  0.3111  0.4722  0.2838
 1650TIP3    H126441   6.616   3.184  15.013  0.3102 -0.2532 -3.0273
 1650TIP3    H226442   6.757   3.189  14.958  1.6677 -1.3725  0.1286
 1651TIP3   OH226443   2.767   3.805   4.235 -0.2686  0.1915 -0.3623
 1651TIP3    H126444   2.830   3.766   4.295 -0.8100  0.9244  0.7012
 1651TIP3    H226445   2.774   3.752   4.155 -0.7018 -1.8385  0.8745
 1652TIP3   OH226446   3.092   1.611  12.006  0.4930 -0.1664 -0.1078
 1652TIP3    H126447   3.002   1.637  12.026  0.5685 -0.9698  1.4410
 1652TIP3    H226448   3.096   1.519  12.033  1.2445 -0.7407 -2.0049
 1653TIP3   OH226449   4.032   5.163   1.780  0.7108 -0.3384  0.3061
 1653TIP3    H126450   3.937   5.177   1.776  0.9688  1.8328  0.5013
 1653TIP3    H226451   4.050   5.097   1.714 -0.8254 -0.0769 -0.4089
 1654TIP3   OH226452   4.329   3.842   4.286 -0.3806  0.1415 -0.4140
 1654TIP3    H126453   4.261   3.869   4.348 -0.8532 -0.2493 -0.7467
 1654TIP3    H226454   4.320   3.746   4.281 -0.1953  0.1478 -0.9051
 1655TIP3   OH226455   0.796   2.571  16.756 -0.1958  0.2847  0.1631
 1655TIP3    H126456   0.812   2.479  16.774  0.4920  0.9877  3.9668
 1655TIP3    H226457   0.883   2.612  16.757 -0.6612  1.3655  1.8200
 1656TIP3   OH226458   3.512   2.411  11.099 -0.0988  0.2678  0.2818
 1656TIP3    H126459   3.485   2.322  11.077 -2.8686  0.7389  1.4011
 1656TIP3    H226460   3.512   2.413  11.194 -1.5785  1.8517  0.2784
 1657TIP3   OH226461   0.111   5.037   0.705 -0.5302 -0.0696 -0.1663
 1657TIP3    H126462   0.176   5.048   0.635 -0.5688  1.1952 -0.0349
 1657TIP3    H226463   0.082   4.947   0.696 -0.8272  0.1590 -2.0670
 1658TIP3   OH226464   3.646   4.301  11.984 -0.0229 -0.0768 -0.1616
 1658TIP3    H126465   3.602   4.216  11.986  2.7285 -1.6390 -0.4086
 1658TIP3    H226466   3.704   4.299  12.061 -0.3033  1.8658  0.1610
 1659TIP3   OH226467   5.015   3.126   3.125 -0.8164 -0.6800  0.1731
 1659TIP3    H126468   5.041   3.209   3.084  0.8286 -1.6105 -0.7275
 1659TIP3    H226469   4.941   3.096   3.072  0.1790 -1.0032 -1.0622
 1660TIP3   OH226470   1.726   6.183   4.186 -0.1526 -0.1023  0.0430
 1660TIP3    H126471   1.668   6.231   4.246  0.0358  1.0930 -0.6956
 1660TIP3    H226472   1.810   6.180   4.231 -0.2689 -0.0797  0.2632
 1661TIP3   OH226473   2.010   2.978   1.422  0.2486  0.3555 -0.1707
 1661TIP3    H126474   2.099   2.947   1.439 -0.2597 -1.3937 -0.5222
 1661TIP3    H226475   2.022   3.060   1.374  1.6567  1.0940  1.3518
 1662TIP3   OH226476   3.092   0.371  12.424 -0.0170  0.0100  0.2036
 1662TIP3    H126477   3.143   0.355  12.345 -0.7306  0.1320 -0.2887
 1662TIP3    H226478   3.099   0.290  12.475  2.2244  0.6608  1.0519
 1663TIP3   OH226479   1.041   4.576  14.161 -0.6520 -0.1139 -0.5042
 1663TIP3    H126480   1.044   4.613  14.250  0.8213  0.4744 -0.7792
 1663TIP3    H226481   0.979   4.632  14.115 -0.6167  0.2291 -0.1429
 1664TIP3   OH226482   1.642   6.372  13.129  0.3778  0.2727  0.0390
 1664TIP3    H126483   1.579   6.440  13.106 -0.7825 -0.6535  0.4150
 1664TIP3    H226484   1.727   6.414  13.117 -0.2727  2.5026  2.3698
 1665TIP3   OH226485   2.510   5.222  14.341 -0.2720  0.2115 -0.8333
 1665TIP3    H126486   2.474   5.257  14.422  0.1685  0.4397 -0.7351
 1665TIP3    H226487   2.563   5.147  14.368  0.3683  0.6607 -0.8526
 1666TIP3   OH226488   1.831   1.132  14.498 -0.0902  0.1925 -0.6700
 1666TIP3    H126489   1.819   1.114  14.405  0.2151  0.4556 -0.7600
 1666TIP3    H226490   1.862   1.223  14.501 -1.2005  0.5760 -0.2500
 1667TIP3   OH226491   3.953   3.942  11.903 -0.0936  0.1047  0.0918
 1667TIP3    H126492   3.860   3.955  11.887 -0.2490  1.2767  1.6638
 1667TIP3    H226493   3.978   3.869  11.846 -2.0881 -0.6134  0.0699
 1668TIP3   OH226494   2.901   1.656  15.657 -0.2726  0.0589  0.4185
 1668TIP3    H126495   2.873   1.708  15.582  0.2260 -0.5906 -0.2219
 1668TIP3    H226496   2.895   1.717  15.731 -1.1341  0.5912 -0.0694
 1669TIP3   OH226497   0.793   3.863  14.692 -0.0914 -0.4650  0.2861
 1669TIP3    H126498   0.848   3.882  14.768 -0.2672  0.3903  0.2145
 1669TIP3    H226499   0.853   3.824  14.628  0.6194  1.0826 -0.0532
 1670TIP3   OH226500   0.669   4.416   2.890 -0.0987  0.3837  0.0350
 1670TIP3    H126501   0.731   4.440   2.958 -0.5675 -0.8214  0.9186
 1670TIP3    H226502   0.645   4.499   2.849 -0.3785  1.2289  1.8403
 1671TIP3   OH226503   0.692   1.954  14.054 -0.1252 -0.1764  0.4209
 1671TIP3    H126504   0.697   1.924  14.145  0.0495 -0.8388  0.2031
 1671TIP3    H226505   0.773   2.001  14.040  0.0274 -0.4127  0.4964
 1672TIP3   OH226506   2.985   2.416   0.694  0.3468  0.6088  0.1716
 1672TIP3    H126507   3.060   2.467   0.724  0.0689  0.3127  1.4612
 1672TIP3    H226508   2.911   2.477   0.700 -0.0801 -0.0367  2.2345
 1673TIP3   OH226509   5.690   3.087   3.685 -0.6436 -0.7556  0.2743
 1673TIP3    H126510   5.633   3.045   3.621 -2.1992  2.7303 -0.8606
 1673TIP3    H226511   5.776   3.089   3.643 -0.7778 -1.7122 -0.0870
 1674TIP3   OH226512   2.510   0.819  15.264  0.0532  0.6369 -0.4122
 1674TIP3    H126513   2.542   0.893  15.213  2.4075 -1.7088 -2.5900
 1674TIP3    H226514   2.585   0.761  15.272 -2.1296 -2.4138 -0.4714
 1675TIP3   OH226515   5.497   4.875  11.389  0.0776 -0.0006 -0.1652
 1675TIP3    H126516   5.406   4.884  11.417  0.1821  0.5903 -0.0081
 1675TIP3    H226517   5.545   4.853  11.469  0.0641 -0.3962 -0.2628
 1676TIP3   OH226518   1.426   3.785   5.081  0.5452 -0.4221 -0.6757
 1676TIP3    H126519   1.482   3.858   5.111 -0.6335  0.6318 -0.9446
 1676TIP3    H226520   1.421   3.796   4.986 -1.4819  0.5792 -0.5128
 1677TIP3   OH226521   2.352   1.980   4.470  0.4028  0.6267 -0.2652
 1677TIP3    H126522   2.330   1.955   4.560  0.4454  1.3519 -0.0434
 1677TIP3    H226523   2.415   1.914   4.441 -0.5869 -0.3476 -0.2229
 1678TIP3   OH226524   2.542   6.121   0.676 -0.0570  0.0873 -0.2687
 1678TIP3    H126525   2.636   6.140   0.672  0.3637 -1.7708  0.1658
 1678TIP3    H226526   2.520   6.125   0.769 -0.1061 -0.8089 -0.2370
 1679TIP3   OH226527   3.205   0.779   5.680  0.1002 -0.1482 -0.1303
 1679TIP3    H126528   3.150   0.755   5.755 -0.1337  0.2629 -0.1671
 1679TIP3    H226529   3.169   0.863   5.650 -0.3859 -0.7610 -1.2836
 1680TIP3   OH226530   5.263   6.168  13.966 -0.0022 -0.4003  0.4290
 1680TIP3    H126531   5.346   6.158  13.920 -0.2339  0.3300 -0.1811
 1680TIP3    H226532   5.202   6.200  13.898 -0.5217  0.0392  1.0870
 1681TIP3   OH226533   3.028   2.411   1.643 -0.0128  0.5593  0.3483
 1681TIP3    H126534   3.023   2.425   1.737 -0.1096  0.3211  0.3797
 1681TIP3    H226535   2.960   2.468   1.607 -2.0537 -1.5303  0.6600
 1682TIP3   OH226536   3.487   6.063   2.815  0.2222 -0.5987  0.3286
 1682TIP3    H126537   3.472   6.115   2.894  1.6961 -0.4361  0.5176
 1682TIP3    H226538   3.556   6.001   2.839  0.0230 -1.1843 -0.5510
 1683TIP3   OH226539   2.792   4.612   6.139 -0.4963  0.0334 -0.1812
 1683TIP3    H126540   2.760   4.571   6.220 -0.6362 -1.0805 -0.7739
 1683TIP3    H226541   2.729   4.583   6.072  0.8085 -0.8588 -1.0777
 1684TIP3   OH226542   6.208   2.742  11.428 -0.2069 -0.3687  0.2217
 1684TIP3    H126543   6.162   2.816  11.468 -1.6092 -0.4389 -1.1351
 1684TIP3    H226544   6.272   2.782  11.370 -1.2783 -0.1560 -0.8650
 1685TIP3   OH226545   6.027   6.522  12.776  0.1376  0.1088 -0.1977
 1685TIP3    H126546   6.085   6.598  12.786 -0.3972  0.4791  0.1185
 1685TIP3    H226547   6.051   6.464  12.848  0.9618 -0.3059 -0.7884
 1686TIP3   OH226548   4.058   6.181   2.293 -0.5000  0.0181 -0.0515
 1686TIP3    H126549   4.008   6.205   2.215 -0.6478 -0.1875 -0.0205
 1686TIP3    H226550   4.011   6.223   2.365 -2.1753 -2.2762  0.3086
 1687TIP3   OH226551   2.204   1.760   4.364  0.2468 -0.2225 -0.1128
 1687TIP3    H126552   2.284   1.708   4.372 -0.5026 -1.4249 -0.3002
 1687TIP3    H226553   2.228   1.846   4.399  0.8679 -1.3605  2.4834
 1688TIP3   OH226554   1.519   3.032   0.339  0.3570  0.0137 -0.0918
 1688TIP3    H126555   1.446   3.089   0.312 -2.4200 -2.3595  1.7722
 1688TIP3    H226556   1.564   3.081   0.407 -1.5846  0.3245  1.0509
 1689TIP3   OH226557   3.307   4.820   2.092 -0.5287 -0.5354  0.4886
 1689TIP3    H126558   3.217   4.789   2.103 -0.7428 -0.1871 -0.2028
 1689TIP3    H226559   3.298   4.900   2.040  0.0714  0.2641  1.5789
 1690TIP3   OH226560   3.638   0.139  13.363 -0.1598 -0.6759  0.2338
 1690TIP3    H126561   3.606   0.229  13.365  0.4498 -0.3914 -1.3913
 1690TIP3    H226562   3.583   0.093  13.426 -0.3953  0.8499  1.1845
 1691TIP3   OH226563   5.493   5.939  12.175 -0.2240  0.0003 -0.1314
 1691TIP3    H126564   5.519   5.848  12.164  2.2953  0.2691  2.5726
 1691TIP3    H226565   5.515   5.980  12.091 -1.5028 -1.7958 -1.4351
 1692TIP3   OH226566   2.066   0.324  13.744 -0.4081  0.2923 -0.2592
 1692TIP3    H126567   2.015   0.247  13.722 -1.0871  0.0102  2.0449
 1692TIP3    H226568   2.009   0.376  13.801  0.9207  1.2487  0.2615
 1693TIP3   OH226569   2.726   3.868  10.339  0.4800  0.0325 -0.2982
 1693TIP3    H126570   2.764   3.899  10.421 -0.2604  0.6462 -0.1819
 1693TIP3    H226571   2.758   3.778  10.331  0.4145 -0.0960  0.7509
 1694TIP3   OH226572   4.085   3.389   0.670  0.0223 -0.4032 -0.7273
 1694TIP3    H126573   4.114   3.312   0.622 -1.1233 -1.9955  0.9737
 1694TIP3    H226574   4.160   3.411   0.727 -0.2432 -1.3954  0.0435
 1695TIP3   OH226575   4.910   3.235  13.658  0.1487 -0.4312  0.1611
 1695TIP3    H126576   4.974   3.228  13.587 -0.6982  0.1892 -0.6980
 1695TIP3    H226577   4.847   3.165  13.641 -0.1622 -0.1600  0.1787
 1696TIP3   OH226578   2.868   3.161  11.523 -0.0522  0.2671 -0.3083
 1696TIP3    H126579   2.792   3.182  11.578 -0.1392 -1.6935  0.3940
 1696TIP3    H226580   2.941   3.156  11.585  0.0826 -0.7131 -0.5305
 1697TIP3   OH226581   4.500   4.944  13.314  0.3312  0.0045  0.1668
 1697TIP3    H126582   4.413   4.953  13.353 -0.3076  0.1975 -1.2338
 1697TIP3    H226583   4.537   5.033  13.319  0.0046  0.1650 -0.2244
 1698TIP3   OH226584   4.577   5.682  14.587 -0.3214  0.2224  0.3926
 1698TIP3    H126585   4.665   5.701  14.618 -0.7183  2.3443  0.4303
 1698TIP3    H226586   4.587   5.669  14.492  0.1569 -0.5986  0.5512
 1699TIP3   OH226587   5.837   3.180   4.949 -0.2032  0.2756 -0.2560
 1699TIP3    H126588   5.785   3.241   4.897 -0.6667  0.5280  0.4865
 1699TIP3    H226589   5.837   3.099   4.899 -0.9202  0.4113 -0.4802
 1700TIP3   OH226590   5.882   3.518  15.828 -0.0885  0.5345  0.5289
 1700TIP3    H126591   5.880   3.472  15.744  0.9203  2.8604 -0.8547
 1700TIP3    H226592   5.832   3.462  15.887 -0.6824 -1.2679 -1.5602
 1701TIP3   OH226593   4.676   4.687   2.752 -0.3774 -0.1498 -0.2226
 1701TIP3    H126594   4.679   4.624   2.680 -0.4837 -0.1655 -0.2140
 1701TIP3    H226595   4.662   4.634   2.830 -0.0154 -0.1537 -0.1574
 1702TIP3   OH226596   0.351   2.834   2.501  0.4723 -0.3752  0.3813
 1702TIP3    H126597   0.421   2.855   2.563  0.5143  0.0293  0.1939
 1702TIP3    H226598   0.278   2.889   2.527  0.7390  0.3685 -0.4031
 1703TIP3   OH226599   3.189   2.417  13.823  0.1583  0.0862  0.4357
 1703TIP3    H126600   3.202   2.434  13.916 -0.2729  0.2396  0.4697
 1703TIP3    H226601   3.097   2.393  13.816 -0.0014  0.8089 -0.0553
 1704TIP3   OH226602   3.780   3.433   1.741  0.3628  0.3662  0.0422
 1704TIP3    H126603   3.697   3.386   1.742  0.1768  0.6622  1.5984
 1704TIP3    H226604   3.759   3.520   1.775  0.8137  1.4213 -2.2130
 1705TIP3   OH226605   1.827   5.384  16.671  0.3247 -0.2684  0.3439
 1705TIP3    H126606   1.826   5.292  16.697 -0.8632 -0.0783  1.0496
 1705TIP3    H226607   1.765   5.390  16.598  0.0049  0.0564  0.6360
 1706TIP3   OH226608   5.474   0.662  11.990 -0.1644  0.3736 -0.5069
 1706TIP3    H126609   5.411   0.734  12.000  1.0598  1.2476  1.5765
 1706TIP3    H226610   5.473   0.642  11.897 -3.0568  0.7478 -0.6690
 1707TIP3   OH226611   6.811   1.751  13.904 -0.2124  0.2686  0.2692
 1707TIP3    H126612   6.843   1.840  13.887  1.1060 -0.1471  0.4244
 1707TIP3    H226613   6.874   1.715  13.967  0.9655 -1.7298 -1.8746
 1708TIP3   OH226614   5.796   4.344   6.737  0.0842  0.2497  0.8514
 1708TIP3    H126615   5.802   4.422   6.792 -1.7725 -0.2712  1.9102
 1708TIP3    H226616   5.770   4.377   6.651 -0.9351  0.8021  1.3520
 1709TIP3   OH226617   4.765   5.104  12.048  0.3443  0.3091  0.6496
 1709TIP3    H126618   4.828   5.116  12.119 -0.0660 -1.9941  1.4984
 1709TIP3    H226619   4.698   5.170  12.064  0.8831  0.6298  1.6754
 1710TIP3   OH226620   0.399   2.730   4.565 -0.0500 -0.1105 -0.5086
 1710TIP3    H126621   0.396   2.638   4.538  0.2822 -0.4215  0.4559
 1710TIP3    H226622   0.307   2.757   4.567 -0.1655 -0.4834 -0.6090
 1711TIP3   OH226623   1.560   2.219   5.878  0.0443  0.0408  0.0863
 1711TIP3    H126624   1.537   2.286   5.942 -0.7484  0.3401 -0.4929
 1711TIP3    H226625   1.492   2.152   5.888  2.3917 -2.2187  2.7204
 1712TIP3   OH226626   5.657   2.046   1.271  0.5555  0.0055  0.5752
 1712TIP3    H126627   5.711   2.017   1.197 -1.8620 -0.0915 -1.2637
 1712TIP3    H226628   5.604   1.970   1.294 -0.6428  0.7969  0.5590
 1713TIP3   OH226629   5.456   1.659  10.647 -0.0313 -0.3270  0.2139
 1713TIP3    H126630   5.518   1.643  10.719 -0.6771  0.3379  0.9347
 1713TIP3    H226631   5.512   1.684  10.573  0.5482  0.9069  1.0303
 1714TIP3   OH226632   3.876   2.482  15.933  0.0152 -0.4340  0.0698
 1714TIP3    H126633   3.832   2.562  15.959  0.2048 -0.1335 -0.5329
 1714TIP3    H226634   3.805   2.421  15.911 -0.1117  0.0600 -0.9384
 1715TIP3   OH226635   2.410   4.758   1.832  0.3211  0.2274 -0.6077
 1715TIP3    H126636   2.320   4.774   1.861  0.4158 -0.1062 -0.1059
 1715TIP3    H226637   2.418   4.805   1.749 -0.4906 -0.2178 -0.9446
 1716TIP3   OH226638   2.803   5.736  14.308 -0.1581 -0.1023 -0.1677
 1716TIP3    H126639   2.880   5.766  14.259 -0.7799 -0.7167 -1.5602
 1716TIP3    H226640   2.814   5.775  14.395  1.6867 -0.1288 -0.3555
 1717TIP3   OH226641   3.591   0.514   4.560  0.4228 -0.2303  0.6691
 1717TIP3    H126642   3.558   0.603   4.549  0.8132 -0.3926 -2.9482
 1717TIP3    H226643   3.516   0.464   4.592 -1.4393  0.4770 -2.1918
 1718TIP3   OH226644   2.992   3.798  10.645 -0.3126 -0.0029  0.2849
 1718TIP3    H126645   2.945   3.714  10.646 -1.4727  0.4784 -2.9207
 1718TIP3    H226646   3.083   3.774  10.625 -0.5090 -0.5508  0.0323
 1719TIP3   OH226647   3.714   2.223   3.032 -0.5827  0.1848  0.0921
 1719TIP3    H126648   3.709   2.264   3.119  1.4611 -0.5110  0.5986
 1719TIP3    H226649   3.688   2.132   3.047  1.8891 -0.5318  0.5094
 1720TIP3   OH226650   3.623   1.623   2.173  0.0642  0.4937  0.0179
 1720TIP3    H126651   3.591   1.637   2.084  0.8336  0.1278 -0.3232
 1720TIP3    H226652   3.682   1.549   2.166  1.0062  1.1587  0.6273
 1721TIP3   OH226653   6.378   3.273   0.843 -0.3888  0.4857 -0.0309
 1721TIP3    H126654   6.383   3.364   0.871 -3.1703  1.0191 -0.9323
 1721TIP3    H226655   6.300   3.269   0.788  0.7929 -2.0281 -1.7179
 1722TIP3   OH226656   5.092   3.428   2.160 -0.4289 -0.0788 -0.8335
 1722TIP3    H126657   5.153   3.370   2.114 -0.2328  0.1795 -0.8993
 1722TIP3    H226658   5.136   3.451   2.241  0.3169  1.4996 -1.6522
 1723TIP3   OH226659   6.431   4.389  15.309  0.0558 -0.0065  0.1452
 1723TIP3    H126660   6.361   4.352  15.363  0.1590 -0.5034 -0.0576
 1723TIP3    H226661   6.390   4.464  15.266 -0.4734 -0.5251 -0.2790
 1724TIP3   OH226662   6.383   6.183  13.816  0.4993 -0.3286 -0.0541
 1724TIP3    H126663   6.439   6.156  13.743 -0.3401 -0.9939 -0.4614
 1724TIP3    H226664   6.371   6.277  13.804  1.4542 -0.1848 -0.0004
 1725TIP3   OH226665   5.691   6.517   4.075  0.2473 -0.3024 -0.5646
 1725TIP3    H126666   5.676   6.580   4.146  2.8997  0.4191 -0.5040
 1725TIP3    H226667   5.633   6.444   4.095 -0.2248  0.5500  1.4673
 1726TIP3   OH226668   0.292   1.231   6.524 -0.1563 -0.1701 -0.4045
 1726TIP3    H126669   0.253   1.190   6.601 -1.2833  2.5283  0.5789
 1726TIP3    H226670   0.266   1.175   6.451 -3.4730 -0.1114  0.5691
 1727TIP3   OH226671   6.184   1.377  11.619 -0.3902 -0.0752 -0.0617
 1727TIP3    H126672   6.200   1.462  11.578 -1.5530  0.0798 -0.2173
 1727TIP3    H226673   6.203   1.390  11.712 -0.5655  0.3522 -0.0860
 1728TIP3   OH226674   2.283   3.750   3.851  0.4263 -0.0809 -0.7664
 1728TIP3    H126675   2.334   3.715   3.778  0.2079 -0.4379 -0.7554
 1728TIP3    H226676   2.192   3.730   3.828  0.3880 -0.7007 -0.1480
 1729TIP3   OH226677   2.526   1.319   0.707  0.4236 -0.3099 -0.2943
 1729TIP3    H126678   2.520   1.340   0.800  0.0733  0.2576 -0.4367
 1729TIP3    H226679   2.600   1.371   0.675 -0.0856  0.2843 -0.5309
 1730TIP3   OH226680   6.046   0.628   2.093  0.0035 -0.0241  0.8500
 1730TIP3    H126681   6.057   0.690   2.021 -0.0333  0.4242  1.2266
 1730TIP3    H226682   6.123   0.572   2.088  0.1207  0.1561  0.6108
 1731TIP3   OH226683   0.181   1.900  16.931 -0.3096 -0.6240 -0.0612
 1731TIP3    H126684   0.141   1.969  16.879  0.4509  0.7056  1.0608
 1731TIP3    H226685   0.174   1.821  16.876  0.0258  0.5978 -1.9378
 1732TIP3   OH226686   2.003   0.699  10.763 -0.0934  0.2686 -0.3960
 1732TIP3    H126687   1.999   0.721  10.669  0.5075  0.2081 -0.4424
 1732TIP3    H226688   2.046   0.775  10.803 -3.4005  1.9088  0.3924
 1733TIP3   OH226689   3.312   1.343   4.349 -0.2391  0.4233  0.0540
 1733TIP3    H126690   3.233   1.380   4.309 -0.3196  0.2304  0.0359
 1733TIP3    H226691   3.331   1.265   4.298 -1.4746 -0.9477  1.5600
 1734TIP3   OH226692   0.248   5.129  11.961 -0.3429  0.2766  0.0467
 1734TIP3    H126693   0.236   5.218  11.928 -1.0900  0.3834  0.5917
 1734TIP3    H226694   0.162   5.089  11.954 -0.4303  0.1604  1.4097
 1735TIP3   OH226695   5.056   3.681   0.317  0.2239  0.2020  0.2005
 1735TIP3    H126696   5.134   3.686   0.262  0.5713 -0.6395  0.5971
 1735TIP3    H226697   4.986   3.657   0.257 -0.0327  2.3280 -0.4122
 1736TIP3   OH226698   5.240   1.682   5.588 -0.1555  0.1133 -0.1329
 1736TIP3    H126699   5.207   1.647   5.506 -1.2772 -0.7585  0.6463
 1736TIP3    H226700   5.260   1.604   5.641  0.8444  0.6561  0.3149
 1737TIP3   OH226701   4.906   2.353   0.361 -0.2200 -0.1180 -0.5006
 1737TIP3    H126702   4.973   2.406   0.405 -0.0037  0.0858 -1.0599
 1737TIP3    H226703   4.831   2.357   0.420  0.6648 -1.4441  0.7896
 1738TIP3   OH226704   6.341   5.421   1.222 -0.4545 -0.1156  0.6823
 1738TIP3    H126705   6.394   5.369   1.282  1.1579  1.1874  0.4411
 1738TIP3    H226706   6.381   5.408   1.136  1.3629  3.0793  0.9056
 1739TIP3   OH226707   2.484   2.234  15.448  0.2133  0.6738  0.5870
 1739TIP3    H126708   2.547   2.304  15.437 -1.0028  1.8444  0.7949
 1739TIP3    H226709   2.494   2.180  15.370  0.4164  1.6938 -0.1076
 1740TIP3   OH226710   1.883   1.198  11.894 -0.6351  0.4335  0.6480
 1740TIP3    H126711   1.947   1.157  11.836 -1.4262  0.8151 -0.5264
 1740TIP3    H226712   1.928   1.275  11.929  0.4043 -0.6697  1.8498
 1741TIP3   OH226713   4.446   3.218  11.661 -0.3545 -0.2681 -0.1006
 1741TIP3    H126714   4.482   3.256  11.580 -0.0521  1.2615  0.7085
 1741TIP3    H226715   4.358   3.190  11.637 -0.2863  0.2145 -0.9633
 1742TIP3   OH226716   4.049   6.777  16.724  0.1269 -0.6050  0.0964
 1742TIP3    H126717   4.142   6.774  16.703  0.4131 -1.4902  1.3913
 1742TIP3    H226718   4.036   6.862  16.767  0.0058  0.1794 -1.4217
 1743TIP3   OH226719   2.920   2.143   2.488 -0.3296 -0.5036 -0.4236
 1743TIP3    H126720   2.847   2.157   2.549 -0.6561 -0.2518 -0.8637
 1743TIP3    H226721   2.914   2.216   2.427  0.4055 -0.3841 -0.3619
 1744TIP3   OH226722   2.782   5.234  15.244  0.2882  0.1603 -0.4078
 1744TIP3    H126723   2.706   5.186  15.211  0.0667 -0.5834  1.0898
 1744TIP3    H226724   2.770   5.323  15.213 -1.7514  0.3021  0.6025
 1745TIP3   OH226725   6.084   3.372   1.059 -0.4204  0.2572 -0.2019
 1745TIP3    H126726   6.166   3.414   1.034  0.2573 -0.6913  0.3576
 1745TIP3    H226727   6.021   3.443   1.065  0.5805  1.1267  0.2468
 1746TIP3   OH226728   6.629   3.495   2.038 -0.3568 -0.0283  0.0822
 1746TIP3    H126729   6.565   3.558   2.069 -0.7234 -0.2917 -0.1349
 1746TIP3    H226730   6.687   3.545   1.981  0.9029  0.6892  1.8959
 1747TIP3   OH226731   4.129   4.148  12.790 -0.6246  0.3351  0.0911
 1747TIP3    H126732   4.037   4.129  12.769 -1.3237  0.1107  2.9708
 1747TIP3    H226733   4.133   4.243  12.796 -1.1689  0.2730  1.8026
 1748TIP3   OH226734   0.054   6.014  14.192  0.6110  0.4165  0.2417
 1748TIP3    H126735   0.072   5.923  14.219 -1.2335  0.1804  0.7829
 1748TIP3    H226736   0.081   6.017  14.100 -1.3704 -1.3735 -0.4910
 1749TIP3   OH226737   6.616   4.361  14.258 -0.1933  0.5073 -0.5308
 1749TIP3    H126738   6.565   4.334  14.181  0.3965 -1.0277 -0.4246
 1749TIP3    H226739   6.702   4.384  14.222  0.5206 -1.5188 -0.2371
 1750TIP3   OH226740   3.297   5.662   5.497 -0.5782  0.5228 -0.0291
 1750TIP3    H126741   3.391   5.668   5.515 -0.3959 -0.9315 -0.3068
 1750TIP3    H226742   3.288   5.688   5.405 -0.5763  1.4732  0.2312
 1751TIP3   OH226743   2.660   1.737  12.334 -0.3035 -0.2356 -0.4763
 1751TIP3    H126744   2.735   1.771  12.286 -1.0669 -1.4944 -2.7341
 1751TIP3    H226745   2.634   1.658  12.285 -1.6731 -1.1423  1.5763
 1752TIP3   OH226746   6.607   1.322  15.068  0.2823 -0.4592  0.1702
 1752TIP3    H126747   6.514   1.308  15.051  0.7464  0.0226 -3.4542
 1752TIP3    H226748   6.649   1.316  14.983  3.6176 -0.4877  1.6354
 1753TIP3   OH226749   1.662   6.155  12.969 -0.0398 -0.2091  0.4330
 1753TIP3    H126750   1.660   6.231  13.027  0.9309  0.3266 -0.2233
 1753TIP3    H226751   1.641   6.189  12.883 -0.7580 -0.8932  0.3171
 1754TIP3   OH226752   2.439   2.795  13.208 -0.5165 -0.4500  0.4327
 1754TIP3    H126753   2.442   2.758  13.120 -2.7873 -1.4787  0.7300
 1754TIP3    H226754   2.466   2.886  13.196 -0.7504 -0.5780 -1.3304
 1755TIP3   OH226755   6.771   0.735   1.088  0.4928  0.2434 -0.2261
 1755TIP3    H126756   6.791   0.739   1.181  0.6245 -1.4462 -0.1443
 1755TIP3    H226757   6.711   0.809   1.072 -0.9858 -0.4879  1.5789
 1756TIP3   OH226758   0.954   3.280   5.655 -0.1180 -0.2882  0.2002
 1756TIP3    H126759   1.048   3.269   5.649 -0.0010  0.5076  0.4582
 1756TIP3    H226760   0.926   3.217   5.721  0.1573 -0.8747 -0.2342
 1757TIP3   OH226761   4.695   3.901   4.679  0.1174 -0.4857  0.0749
 1757TIP3    H126762   4.744   3.894   4.761  2.0500  2.7343 -0.6220
 1757TIP3    H226763   4.757   3.940   4.617 -2.6675  1.8971 -1.4928
 1758TIP3   OH226764   4.969   4.143   6.129  0.0895 -0.3956  0.0358
 1758TIP3    H126765   4.882   4.139   6.090  0.4401 -1.5536 -0.6557
 1758TIP3    H226766   4.955   4.181   6.216 -1.6036 -3.5216  1.2898
 1759TIP3   OH226767   3.425   2.473   4.541  0.2042 -0.0225  0.4996
 1759TIP3    H126768   3.498   2.455   4.482  0.8005  0.2312  1.1460
 1759TIP3    H226769   3.403   2.565   4.524 -0.9863 -0.5092 -0.7823
 1760TIP3   OH226770   6.181   3.807   5.402 -0.2879  0.0477 -0.0761
 1760TIP3    H126771   6.101   3.761   5.428  0.1664 -1.5483 -1.3155
 1760TIP3    H226772   6.150   3.887   5.358 -1.4001 -1.7264 -2.8029
 1761TIP3   OH226773   6.177   4.157   4.682 -0.9840 -0.0446 -0.2022
 1761TIP3    H126774   6.213   4.090   4.740 -2.0300 -0.6940 -0.2682
 1761TIP3    H226775   6.241   4.163   4.611  0.3761  0.8666  1.0540
 1762TIP3   OH226776   4.761   1.796   0.134 -0.1554  0.3762  0.2233
 1762TIP3    H126777   4.808   1.871   0.170  0.5319  0.7727 -1.4378
 1762TIP3    H226778   4.798   1.783   0.047  0.3056 -2.3711  0.7198
 1763TIP3   OH226779   2.603   2.962  11.616  0.0967  0.0497 -0.7873
 1763TIP3    H126780   2.542   3.004  11.556 -1.6388 -1.3197 -0.0602
 1763TIP3    H226781   2.600   2.870  11.593  0.1061 -0.3674  0.7750
 1764TIP3   OH226782   5.827   2.015   1.046  0.9034  0.0585 -0.1648
 1764TIP3    H126783   5.863   2.075   0.981  1.6401  0.4476  0.5695
 1764TIP3    H226784   5.816   1.932   1.000 -0.1823  0.7549 -1.2161
 1765TIP3   OH226785   2.867   0.160  11.969 -0.1287 -0.1514  0.1415
 1765TIP3    H126786   2.962   0.166  11.973 -0.1779  0.5112  0.4979
 1765TIP3    H226787   2.849   0.106  11.892  0.5406 -0.4992  0.2311
 1766TIP3   OH226788   4.053   1.867  15.804  0.1681 -0.5378 -0.2849
 1766TIP3    H126789   4.133   1.838  15.846  0.2351 -0.1521 -0.1435
 1766TIP3    H226790   4.023   1.942  15.856 -0.6820 -1.1380  0.1084
 1767TIP3   OH226791   1.790   5.037  16.699  0.6599 -0.7328  0.3797
 1767TIP3    H126792   1.706   5.077  16.677  1.6347  3.1017  2.6960
 1767TIP3    H226793   1.798   4.963  16.638 -2.9909  0.4972 -1.9289
 1768TIP3   OH226794   3.328   4.718  14.970 -0.8362 -0.0965 -0.2625
 1768TIP3    H126795   3.343   4.804  15.008 -1.7944 -0.6811  1.6078
 1768TIP3    H226796   3.414   4.675  14.974 -0.7468  0.1301  0.6092
 1769TIP3   OH226797   4.203   6.773   1.424 -0.6336 -0.1214  0.2998
 1769TIP3    H126798   4.131   6.713   1.409 -0.1589 -1.2189  2.1204
 1769TIP3    H226799   4.215   6.774   1.519  2.0886 -0.3986  0.0450
 1770TIP3   OH226800   3.208   4.185  16.690 -0.6626  0.1414  0.4674
 1770TIP3    H126801   3.241   4.104  16.652 -1.7979 -0.0067 -0.2227
 1770TIP3    H226802   3.217   4.173  16.785  3.2465  0.9374  0.3970
 1771TIP3   OH226803   2.545   4.429  11.578  0.9156 -0.2188 -0.7609
 1771TIP3    H126804   2.478   4.479  11.532  0.1199 -0.0087  0.5971
 1771TIP3    H226805   2.497   4.361  11.625  1.5148  0.5233  1.0134
 1772TIP3   OH226806   3.891   1.213   4.323 -0.1074  0.1921 -0.4189
 1772TIP3    H126807   3.925   1.219   4.234 -0.9428 -0.2992 -0.7841
 1772TIP3    H226808   3.963   1.243   4.379 -0.2443  2.5290 -1.3827
 1773TIP3   OH226809   0.224   0.978  17.133  0.2325 -0.1202  0.9962
 1773TIP3    H126810   0.266   1.064  17.140  1.8782 -0.7708 -0.1709
 1773TIP3    H226811   0.243   0.949  17.044 -0.6632 -1.5224  1.2232
 1774TIP3   OH226812   5.170   2.101   1.608 -0.7295  0.3573  0.0699
 1774TIP3    H126813   5.117   2.180   1.594  0.2046  1.0548  0.3563
 1774TIP3    H226814   5.228   2.097   1.532 -0.8744 -0.1506 -0.0183
 1775TIP3   OH226815   1.984   0.038  16.178  0.5447 -0.1850  0.2272
 1775TIP3    H126816   1.889   0.041  16.183  0.6296  0.3536  1.9649
 1775TIP3    H226817   2.003   0.042  16.084 -1.1166  0.1873 -0.1230
 1776TIP3   OH226818   6.390   3.173   1.502  0.1392  0.4295  0.0456
 1776TIP3    H126819   6.362   3.224   1.426  0.7965 -0.3096 -0.7007
 1776TIP3    H226820   6.344   3.090   1.493 -1.0258  0.9050  1.3254
 1777TIP3   OH226821   3.170   6.110   4.076  0.1385 -0.6457  0.4663
 1777TIP3    H126822   3.158   6.040   4.011  1.1539  0.4879 -1.0105
 1777TIP3    H226823   3.247   6.082   4.126 -1.0698 -1.8727  1.7019
 1778TIP3   OH226824   2.179   0.176   0.092 -0.5431 -0.2169  0.1973
 1778TIP3    H126825   2.243   0.157   0.161  0.0381 -0.5384 -0.4267
 1778TIP3    H226826   2.136   0.257   0.121  1.2256  0.8893 -0.1418
 1779TIP3   OH226827   0.887   1.588  15.172  0.8539  0.4674  0.7544
 1779TIP3    H126828   0.920   1.669  15.209 -0.2953  0.7177  1.2780
 1779TIP3    H226829   0.873   1.530  15.247  2.6972 -0.6470  0.3049
 1780TIP3   OH226830   2.070   6.389   2.064 -0.4399 -0.1496 -0.0948
 1780TIP3    H126831   2.005   6.438   2.015  0.3234  1.3654  0.3286
 1780TIP3    H226832   2.152   6.402   2.016  0.3047  1.2852  1.4207
 1781TIP3   OH226833   5.068   2.287   4.251 -0.0612  0.4623 -0.2161
 1781TIP3    H126834   5.131   2.358   4.257  0.5688 -0.1515  0.7067
 1781TIP3    H226835   5.025   2.285   4.337 -0.3110 -0.0517 -0.3493
 1782TIP3   OH226836   3.856   1.899   2.388 -0.1276 -0.2986  0.3540
 1782TIP3    H126837   3.928   1.962   2.377 -0.1867 -0.3428 -0.3274
 1782TIP3    H226838   3.795   1.920   2.318  0.7455 -2.3146 -1.0943
 1783TIP3   OH226839   2.417   2.347   5.747  0.6235 -0.5359 -0.1442
 1783TIP3    H126840   2.442   2.434   5.718  2.4683 -0.6691  0.8565
 1783TIP3    H226841   2.405   2.355   5.842  1.5576 -1.4718  0.0816
 1784TIP3   OH226842   4.457   2.537   0.760 -0.3424  0.1091 -0.1389
 1784TIP3    H126843   4.517   2.600   0.720  0.9401 -1.7059 -1.1722
 1784TIP3    H226844   4.512   2.482   0.815 -1.3491 -0.5363  0.2599
 1785TIP3   OH226845   3.089   5.752  14.062  0.2112  0.3241  0.0491
 1785TIP3    H126846   3.030   5.811  14.016 -0.2627  0.7848  1.1977
 1785TIP3    H226847   3.065   5.665  14.032 -0.4249  0.5760 -0.1861
 1786TIP3   OH226848   4.703   6.389  12.216 -0.1409  0.9285 -0.6432
 1786TIP3    H126849   4.643   6.444  12.266 -2.3299 -1.3035 -0.5871
 1786TIP3    H226850   4.648   6.349  12.149  1.4465 -0.6749 -1.0767
 1787TIP3   OH226851   5.516   1.163  10.585  0.3087  0.0227  0.1135
 1787TIP3    H126852   5.492   1.219  10.658 -0.8465  0.7914 -0.8210
 1787TIP3    H226853   5.442   1.168  10.525  0.5869 -1.7443 -0.4527
 1788TIP3   OH226854   2.775   2.712  12.892 -0.4369 -0.3915 -0.9277
 1788TIP3    H126855   2.802   2.660  12.816  1.3337  1.0718 -1.3625
 1788TIP3    H226856   2.810   2.665  12.967  1.1196  0.0960 -1.3118
 1789TIP3   OH226857   1.966   1.220   1.453 -0.7002  0.1107 -0.0470
 1789TIP3    H126858   1.957   1.125   1.459 -1.6077  0.2165  0.4749
 1789TIP3    H226859   1.899   1.254   1.513 -0.4966  1.0806 -0.3562
 1790TIP3   OH226860   3.937   4.642  13.421 -0.1821  0.5332 -0.1019
 1790TIP3    H126861   3.890   4.724  13.408 -1.9834 -0.2208  1.2426
 1790TIP3    H226862   3.904   4.585  13.351  1.7756  1.1899 -1.6276
 1791TIP3   OH226863   0.685   0.860  16.636 -0.6391  0.3208 -0.2585
 1791TIP3    H126864   0.594   0.888  16.641 -1.0928 -1.1930  0.8975
 1791TIP3    H226865   0.682   0.767  16.658  1.3833  0.6407  1.6903
 1792TIP3   OH226866   3.813   2.853  14.269  0.1544 -0.4731 -0.5269
 1792TIP3    H126867   3.909   2.849  14.275  0.0917  0.0477  1.4160
 1792TIP3    H226868   3.796   2.920  14.202  1.1743  0.4576  0.1055
 1793TIP3   OH226869   1.951   2.490   2.819  0.1166 -0.0690  0.4218
 1793TIP3    H126870   1.983   2.415   2.870 -1.6461 -0.6729  0.6992
 1793TIP3    H226871   2.027   2.548   2.812  1.3627 -1.6070  0.6960
 1794TIP3   OH226872   4.550   4.965   5.365 -0.0356  0.1049 -0.2179
 1794TIP3    H126873   4.552   4.879   5.405  0.9414  0.2543  0.0724
 1794TIP3    H226874   4.540   4.948   5.271 -2.3019 -0.2420  0.0226
 1795TIP3   OH226875   6.301   5.579   4.719 -0.0318  0.0106 -0.4744
 1795TIP3    H126876   6.349   5.626   4.651  0.9246 -1.2680 -0.7283
 1795TIP3    H226877   6.226   5.541   4.674 -0.1405  0.2818 -0.5238
 1796TIP3   OH226878   6.266   4.328   0.844  0.1911  0.8073 -0.6180
 1796TIP3    H126879   6.272   4.334   0.939  1.0317  1.9100 -0.7179
 1796TIP3    H226880   6.277   4.235   0.824 -1.0147  0.4144  0.4110
 1797TIP3   OH226881   4.636   5.514   0.656 -0.2406 -0.1235  0.1333
 1797TIP3    H126882   4.620   5.442   0.595  0.1597  0.2752 -0.4486
 1797TIP3    H226883   4.671   5.471   0.734 -1.0226 -0.6641  0.2033
 1798TIP3   OH226884   1.232   0.056   4.907  0.3122  0.0090  0.0914
 1798TIP3    H126885   1.192  -0.028   4.885  0.3863  0.0837 -0.3461
 1798TIP3    H226886   1.240   0.101   4.823 -0.1652  0.6506  0.3798
 1799TIP3   OH226887   6.207   3.968  15.186  0.3496  0.2900  0.2565
 1799TIP3    H126888   6.240   3.936  15.102  0.3826  0.0964  0.3422
 1799TIP3    H226889   6.116   3.993  15.168  0.8515  1.8150 -0.2226
 1800TIP3   OH226890   5.848   5.978  16.711  0.1300 -0.1680 -0.5205
 1800TIP3    H126891   5.846   5.940  16.799  1.2083 -1.5221 -1.0393
 1800TIP3    H226892   5.783   5.928  16.662  1.3087 -1.1548 -1.1190
 1801TIP3   OH226893   6.202   5.527  14.341  0.4442 -0.1810 -0.0945
 1801TIP3    H126894   6.288   5.539  14.381  0.2300 -1.3072  0.7409
 1801TIP3    H226895   6.144   5.510  14.415 -0.6741  1.3516 -0.5566
 1802TIP3   OH226896   2.900   5.904  13.410  0.4176  0.0791  0.0158
 1802TIP3    H126897   2.823   5.935  13.458 -0.7414  0.1148 -1.7455
 1802TIP3    H226898   2.878   5.813  13.386  1.2354 -0.1467  0.1031
 1803TIP3   OH226899   4.179   4.148   1.609  0.0789  0.5384  0.0005
 1803TIP3    H126900   4.247   4.087   1.638 -0.7840 -0.9024 -0.9003
 1803TIP3    H226901   4.100   4.120   1.655 -0.9779 -0.8810 -2.4551
 1804TIP3   OH226902   4.822   3.971   0.483  0.3350 -0.1872  0.0893
 1804TIP3    H126903   4.889   3.971   0.550 -0.4239 -2.2572  0.9125
 1804TIP3    H226904   4.763   4.042   0.508  1.8457  1.2783 -0.3375
 1805TIP3   OH226905   2.676   2.221   1.185 -0.7713  0.3203  0.8270
 1805TIP3    H126906   2.642   2.137   1.216  2.3278 -1.0546  0.9794
 1805TIP3    H226907   2.638   2.232   1.098  0.5939 -2.6346 -0.3035
 1806TIP3   OH226908   0.033   5.991  14.719 -0.2087  0.1231 -0.3032
 1806TIP3    H126909  -0.022   5.997  14.641  0.1496  0.8501 -0.5048
 1806TIP3    H226910   0.057   6.081  14.739 -0.1841 -0.0709  0.5705
 1807TIP3   OH226911   1.740   6.455   5.480 -0.3204  0.0880  0.5144
 1807TIP3    H126912   1.776   6.543   5.491 -2.0497  0.8162  0.6015
 1807TIP3    H226913   1.657   6.457   5.527  0.3809 -2.1391  2.0322
 1808TIP3   OH226914   1.169   2.720   3.893  0.5573  0.5656  0.0217
 1808TIP3    H126915   1.110   2.785   3.932  0.6834  0.0465  1.0911
 1808TIP3    H226916   1.135   2.709   3.804 -0.4699  0.8749  0.3550
 1809TIP3   OH226917   3.971   5.769  11.457 -0.1407  0.1965 -0.0700
 1809TIP3    H126918   3.906   5.839  11.450 -0.9040 -0.4093  0.6839
 1809TIP3    H226919   3.957   5.717  11.378  0.2487  0.7377 -0.5016
 1810TIP3   OH226920   6.150   5.014   4.230 -0.6675 -0.2099 -0.3211
 1810TIP3    H126921   6.213   4.991   4.298  0.9906  0.1807 -1.6595
 1810TIP3    H226922   6.193   5.082   4.178 -2.3950  0.4172 -1.0183
 1811TIP3   OH226923   1.467   1.579  17.083 -0.2797  0.6271 -0.0110
 1811TIP3    H126924   1.421   1.609  17.162 -0.4292  1.6192 -0.4646
 1811TIP3    H226925   1.499   1.492  17.106  1.5607  1.7164  1.9207
 1812TIP3   OH226926   1.574   6.681   4.485 -0.9413 -0.0442 -0.3416
 1812TIP3    H126927   1.665   6.654   4.489 -0.7423  0.4720 -1.2279
 1812TIP3    H226928   1.524   6.600   4.483 -0.3791 -0.3727 -2.5552
 1813TIP3   OH226929   6.791   2.692  11.368  0.4155  0.0305 -0.0690
 1813TIP3    H126930   6.754   2.779  11.382  0.3403  0.0814 -0.5473
 1813TIP3    H226931   6.886   2.706  11.371  0.4099  0.2349 -0.7190
 1814TIP3   OH226932   3.760   3.298  17.077 -0.6703 -0.2392 -0.2840
 1814TIP3    H126933   3.744   3.274  17.169 -0.2424  0.6371  0.0311
 1814TIP3    H226934   3.848   3.264  17.059  0.1478  1.4081  0.3159
 1815TIP3   OH226935   4.669   3.393  16.768 -0.5200  0.2521 -0.4822
 1815TIP3    H126936   4.665   3.449  16.845 -0.9110 -1.1237  0.5127
 1815TIP3    H226937   4.761   3.395  16.742 -0.2247  0.0645  0.5202
 1816TIP3   OH226938   6.012   4.775  11.715 -0.1401  0.2228  0.4141
 1816TIP3    H126939   5.918   4.794  11.708 -0.0503  0.2591 -0.8051
 1816TIP3    H226940   6.017   4.680  11.713 -0.0745  0.2460 -0.6073
 1817TIP3   OH226941   3.511   5.700   1.117 -0.0122  0.5587 -0.6588
 1817TIP3    H126942   3.532   5.606   1.112  1.7532  0.7056  2.0110
 1817TIP3    H226943   3.420   5.703   1.144  0.2566 -0.4475  0.4311
 1818TIP3   OH226944   3.151   4.271   0.332  0.2505  0.2182 -0.5855
 1818TIP3    H126945   3.105   4.290   0.414 -0.1649  1.2188 -1.0378
 1818TIP3    H226946   3.243   4.269   0.355  0.0324 -1.8513  0.3517
 1819TIP3   OH226947   5.365   2.897   2.034  0.0349  0.4338 -0.2959
 1819TIP3    H126948   5.375   2.857   2.121  1.2148  0.8030 -0.2427
 1819TIP3    H226949   5.277   2.934   2.035 -1.3243 -2.5133 -0.5346
 1820TIP3   OH226950   5.203   1.049   0.528 -0.9325  0.2327  0.0988
 1820TIP3    H126951   5.188   0.979   0.464 -0.0040  0.4321 -0.3592
 1820TIP3    H226952   5.292   1.033   0.561 -0.3884  1.6415 -0.6003
 1821TIP3   OH226953   6.253   6.307  13.048  0.0761 -0.6084  0.2250
 1821TIP3    H126954   6.318   6.359  13.000 -1.7954  2.0228  0.2938
 1821TIP3    H226955   6.229   6.362  13.123 -3.0769 -0.8553 -0.4694
 1822TIP3   OH226956   4.797   0.228  12.027 -0.5952  0.0889  0.3038
 1822TIP3    H126957   4.764   0.138  12.020 -0.4733  0.0830 -0.2192
 1822TIP3    H226958   4.862   0.224  12.097  0.9174 -0.7027 -1.0776
 1823TIP3   OH226959   0.769   5.238   1.053  0.0325 -0.0875  0.3801
 1823TIP3    H126960   0.859   5.272   1.051 -0.8161  2.4246  1.4059
 1823TIP3    H226961   0.766   5.182   1.130  0.5721  0.2435  0.6468
 1824TIP3   OH226962   1.264   4.876   0.252 -0.0416  0.0596  0.0380
 1824TIP3    H126963   1.182   4.846   0.291 -0.0458  1.8451  1.5766
 1824TIP3    H226964   1.237   4.946   0.192  0.3087  0.5461  0.4346
 1825TIP3   OH226965   0.388   6.077   0.468  0.1790 -0.3266 -0.3122
 1825TIP3    H126966   0.315   6.085   0.408  0.4895 -0.1563 -0.6669
 1825TIP3    H226967   0.352   6.028   0.542 -0.2464 -0.3922 -0.5581
 1826TIP3   OH226968   4.731   5.591   1.525  0.7386 -0.2905  0.0744
 1826TIP3    H126969   4.724   5.618   1.433 -0.9762 -0.9971 -0.0309
 1826TIP3    H226970   4.752   5.498   1.521 -0.9609 -0.7151  0.3483
 1827TIP3   OH226971   0.269   0.829   5.970  0.3526  0.0774  0.1626
 1827TIP3    H126972   0.304   0.764   6.031  1.0897  0.1223 -0.2109
 1827TIP3    H226973   0.341   0.889   5.953  0.2965 -0.1606 -1.0532
 1828TIP3   OH226974   3.411   6.799   5.132 -0.1378 -0.4343  0.6744
 1828TIP3    H126975   3.339   6.776   5.073 -0.4849 -0.9091  1.2686
 1828TIP3    H226976   3.489   6.763   5.090  0.0588  1.6119 -0.8879
 1829TIP3   OH226977   6.406   2.522  13.785 -0.1259  0.4565 -0.2942
 1829TIP3    H126978   6.466   2.590  13.756  0.4795  0.8305  1.6791
 1829TIP3    H226979   6.437   2.498  13.873 -0.5605 -2.0816 -0.7429
 1830TIP3   OH226980   4.645   1.408  15.066 -0.4028 -0.1590  0.2987
 1830TIP3    H126981   4.626   1.317  15.043  0.1527 -0.1473 -0.2300
 1830TIP3    H226982   4.655   1.452  14.982 -0.8176  0.4274  0.5549
 1831TIP3   OH226983   1.771   0.695  13.867 -0.3670 -0.3607  0.2899
 1831TIP3    H126984   1.862   0.712  13.893 -0.5468  0.7397  0.2374
 1831TIP3    H226985   1.779   0.629  13.798  0.4158 -0.1393  0.1531
 1832TIP3   OH226986   5.070   3.412   1.049 -0.5729  0.5845  0.0535
 1832TIP3    H126987   5.078   3.439   0.958  1.2402 -2.1733 -0.7454
 1832TIP3    H226988   4.980   3.377   1.056 -0.4442  0.0110 -0.9575
 1833TIP3   OH226989   1.751   3.036   3.464 -0.0705 -0.5883  0.2879
 1833TIP3    H126990   1.835   3.010   3.502  0.0574 -0.2846  0.2145
 1833TIP3    H226991   1.772   3.058   3.373 -0.3101 -0.9482  0.1403
 1834TIP3   OH226992   0.365   0.164  13.395  0.1087  0.5985  0.0643
 1834TIP3    H126993   0.407   0.079  13.386 -0.0135  0.5225  0.2059
 1834TIP3    H226994   0.388   0.193  13.484 -0.9643  0.1038  0.5205
 1835TIP3   OH226995   0.093   2.450   2.942  0.6556  0.1319  0.3457
 1835TIP3    H126996   0.132   2.535   2.921 -0.0787  0.0401 -1.6183
 1835TIP3    H226997   0.051   2.463   3.027  0.5466  1.7515  0.0814
 1836TIP3   OH226998   1.983   5.546  15.448  0.0197 -0.2167 -0.4298
 1836TIP3    H126999   1.936   5.462  15.445  0.3484 -0.3975 -0.5655
 1836TIP3    H227000   1.923   5.605  15.492  0.2658 -0.8399  0.8088
 1837TIP3   OH227001   3.981   4.261   3.692  0.4574 -0.1185  0.1800
 1837TIP3    H127002   3.955   4.289   3.779 -0.2772 -0.2827  0.0237
 1837TIP3    H227003   3.927   4.313   3.633  1.6080  0.6617 -0.2125
 1838TIP3   OH227004   1.062   3.050  14.322  0.5709 -0.2016  0.1255
 1838TIP3    H127005   1.019   2.972  14.356 -0.2179  0.3606  0.4341
 1838TIP3    H227006   1.018   3.124  14.364  3.4281  0.3930  2.4389
 1839TIP3   OH227007   6.112   1.767   5.922 -0.3180  0.6048 -0.3099
 1839TIP3    H127008   6.137   1.783   6.013  0.5561 -0.6872 -0.2850
 1839TIP3    H227009   6.020   1.741   5.927  0.5735 -2.9373  0.7231
 1840TIP3   OH227010   1.674   3.876   5.312 -0.5417  0.3534 -0.8060
 1840TIP3    H127011   1.706   3.792   5.344  0.6537  1.1585  0.1857
 1840TIP3    H227012   1.752   3.924   5.285 -0.9733  1.9149  0.5667
 1841TIP3   OH227013   4.513   5.587  11.118 -0.5275 -0.3914 -0.0956
 1841TIP3    H127014   4.429   5.558  11.153 -0.0093 -2.3277 -0.3076
 1841TIP3    H227015   4.526   5.534  11.039  0.8535 -0.0942 -0.1064
 1842TIP3   OH227016   5.167   3.848  14.809 -0.2609  0.4521  0.3432
 1842TIP3    H127017   5.182   3.808  14.724 -0.1285  1.2489 -0.0142
 1842TIP3    H227018   5.197   3.782  14.872  1.4387  0.6022 -0.2628
 1843TIP3   OH227019   0.726   1.968   3.297 -0.1195  0.1619 -0.6594
 1843TIP3    H127020   0.708   1.952   3.390  2.0029 -1.0541 -0.3970
 1843TIP3    H227021   0.687   2.054   3.280 -1.4906 -0.0536  1.0557
 1844TIP3   OH227022   5.372   0.171   3.600  0.0293  0.6574 -0.7524
 1844TIP3    H127023   5.416   0.201   3.521  0.2056  1.8653 -0.2259
 1844TIP3    H227024   5.444   0.157   3.663 -0.2643  2.2881  0.0001
 1845TIP3   OH227025   4.009   6.382   2.521  0.2044  0.4324  0.5010
 1845TIP3    H127026   3.918   6.412   2.529  0.4851  1.3669  0.3026
 1845TIP3    H227027   4.025   6.332   2.601 -0.6285 -0.1565  0.3176
 1846TIP3   OH227028   1.878   2.688   5.163 -0.0011 -0.1397 -0.8134
 1846TIP3    H127029   1.878   2.619   5.230 -1.1219 -0.0119 -0.6499
 1846TIP3    H227030   1.938   2.656   5.096  1.7590  0.0785  0.5752
 1847TIP3   OH227031   5.551   4.917   3.708 -0.0859 -0.0906  0.0117
 1847TIP3    H127032   5.547   5.002   3.752  0.5620 -1.6429  3.4005
 1847TIP3    H227033   5.589   4.936   3.622  0.2768  2.9794  0.7447
 1848TIP3   OH227034   0.491   5.154  17.040 -0.5473  0.1146 -0.8416
 1848TIP3    H127035   0.575   5.186  17.072 -0.5444  0.0915 -0.8262
 1848TIP3    H227036   0.427   5.199  17.096 -0.5367 -0.0441 -0.6990
 1849TIP3   OH227037   5.390   2.883  11.819 -0.3009  0.0510 -0.2141
 1849TIP3    H127038   5.334   2.857  11.746  0.8052  0.7795 -1.3655
 1849TIP3    H227039   5.450   2.809  11.831  0.4211  0.5011 -0.9894
 1850TIP3   OH227040   1.293   2.390  13.426 -0.0380  0.3145 -0.1898
 1850TIP3    H127041   1.286   2.302  13.464  2.0562 -0.1438 -0.7323
 1850TIP3    H227042   1.298   2.375  13.332 -1.5445  1.1883 -0.4383
 1851TIP3   OH227043   2.132   2.074  12.027 -0.2872 -0.1643 -0.4751
 1851TIP3    H127044   2.202   2.048  11.967  0.0292  0.1329 -0.2351
 1851TIP3    H227045   2.072   2.125  11.972 -0.8698 -1.3082 -0.9286
 1852TIP3   OH227046   1.077   5.173  17.005 -0.4181  0.0510 -0.1204
 1852TIP3    H127047   0.987   5.179  16.974 -0.1275 -1.4480 -1.3892
 1852TIP3    H227048   1.109   5.089  16.970  0.8123 -0.4667  2.0350
 1853TIP3   OH227049   4.467   2.580   3.492 -0.3367 -0.0699  0.1079
 1853TIP3    H127050   4.461   2.645   3.562  1.8367 -0.6543  0.9214
 1853TIP3    H227051   4.469   2.496   3.537 -0.1789 -0.5306 -0.7357
 1854TIP3   OH227052   2.819   0.299   0.462  0.4009 -0.0696  0.0057
 1854TIP3    H127053   2.870   0.378   0.445 -0.8040  0.4912 -1.2172
 1854TIP3    H227054   2.846   0.238   0.393 -0.2542  0.1029 -0.4263
 1855TIP3   OH227055   5.726   6.068  15.133  0.5364  0.2027  0.0101
 1855TIP3    H127056   5.637   6.045  15.106  0.8538 -1.1357  0.0689
 1855TIP3    H227057   5.716   6.153  15.176 -0.6643  0.2250 -0.2707
 1856TIP3   OH227058   6.362   2.725  16.788  0.4309 -0.3303 -0.5335
 1856TIP3    H127059   6.399   2.764  16.709 -0.9205  1.7795 -0.1982
 1856TIP3    H227060   6.294   2.666  16.756 -0.5967  1.0463 -0.9910
 1857TIP3   OH227061   5.326   2.687   1.799 -0.4196 -0.5529 -0.4605
 1857TIP3    H127062   5.349   2.688   1.892 -0.9136 -1.2783 -0.3281
 1857TIP3    H227063   5.405   2.657   1.755 -0.4871 -1.1370 -0.1859
 1858TIP3   OH227064   1.092   6.696  13.413  0.4422  0.1412 -0.2432
 1858TIP3    H127065   1.001   6.720  13.394 -0.9062 -2.3505  2.3269
 1858TIP3    H227066   1.096   6.602  13.394  2.2139 -0.0022  0.6832
 1859TIP3   OH227067   4.843   5.867   3.957  0.1635 -0.1899  0.3513
 1859TIP3    H127068   4.894   5.808   3.901  0.9343 -1.0778  1.9196
 1859TIP3    H227069   4.863   5.954   3.925  1.0109 -0.6492 -0.4187
 1860TIP3   OH227070   4.901   0.142  11.784 -0.0680 -0.1602 -0.0968
 1860TIP3    H127071   4.906   0.221  11.839  3.2943  0.2293 -0.7358
 1860TIP3    H227072   4.859   0.077  11.840  0.9818  0.8912  2.0678
 1861TIP3   OH227073   5.684   1.039   2.685  0.7674 -0.6737  0.4875
 1861TIP3    H127074   5.654   0.948   2.692 -1.2911  0.0536  1.6893
 1861TIP3    H227075   5.716   1.060   2.772  1.3304 -0.2587  0.1837
 1862TIP3   OH227076   1.805   6.193   5.806 -0.0374 -0.1181 -0.0873
 1862TIP3    H127077   1.866   6.189   5.732  1.7231  1.3606  1.1946
 1862TIP3    H227078   1.854   6.236   5.876 -0.9638 -3.1221  2.6377
 1863TIP3   OH227079   0.310   6.315  13.498  0.3481 -0.7372  0.4450
 1863TIP3    H127080   0.315   6.368  13.578  0.2928  1.8453 -1.1583
 1863TIP3    H227081   0.233   6.349  13.452  0.4927 -2.0485 -0.8155
 1864TIP3   OH227082   2.508   2.545  14.929  0.3745  0.1674  0.4051
 1864TIP3    H127083   2.424   2.577  14.961  0.2045 -1.0503  1.2571
 1864TIP3    H227084   2.516   2.457  14.968  3.3313  1.3163  2.7762
 1865TIP3   OH227085   3.117   1.416  12.242 -0.0721 -0.9001 -0.2040
 1865TIP3    H127086   3.167   1.352  12.293 -0.4049 -0.1564  1.1258
 1865TIP3    H227087   3.088   1.481  12.307  0.0475  0.4714 -1.4527
 1866TIP3   OH227088   2.144   3.644   2.226 -0.2439  0.4097  0.0771
 1866TIP3    H127089   2.122   3.728   2.268  1.5354 -0.1762  2.3872
 1866TIP3    H227090   2.070   3.626   2.168 -1.1685  3.0507  0.3134
 1867TIP3   OH227091   2.795   4.024  10.570  0.0287  0.0846 -0.8136
 1867TIP3    H127092   2.852   4.069  10.508 -1.8829  0.3856 -2.4795
 1867TIP3    H227093   2.801   4.074  10.651  0.1706  1.6019 -1.7366
 1868TIP3   OH227094   3.338   6.535  13.391 -0.3832 -0.5760  0.1030
 1868TIP3    H127095   3.267   6.531  13.327 -0.5570 -0.5177  0.2940
 1868TIP3    H227096   3.355   6.444  13.414 -0.3686 -0.5927  0.0253
 1869TIP3   OH227097   0.304   3.386   2.742 -0.2552  0.0012  0.3175
 1869TIP3    H127098   0.273   3.472   2.714 -2.7881 -0.6318  0.9757
 1869TIP3    H227099   0.271   3.325   2.676 -1.4450 -0.8253  1.5972
 1870TIP3   OH227100   0.795   0.206  11.962 -0.1432  0.2801 -0.2883
 1870TIP3    H127101   0.749   0.289  11.974 -1.8477 -0.8489  1.7394
 1870TIP3    H227102   0.730   0.147  11.925  0.3260 -0.7784  0.5214
 1871TIP3   OH227103   4.726   3.228   5.596 -0.3825 -0.0518  0.0652
 1871TIP3    H127104   4.814   3.209   5.563 -0.3562 -1.8678  1.0473
 1871TIP3    H227105   4.670   3.222   5.519  0.3354  1.1350 -0.5735
 1872TIP3   OH227106   5.365   2.857  15.472  0.2453  0.2662  1.1573
 1872TIP3    H127107   5.410   2.897  15.396 -0.1598  1.3845  1.4907
 1872TIP3    H227108   5.272   2.860  15.449  0.1184  0.6287  1.6895
 1873TIP3   OH227109   1.760   2.020   5.690  0.3162 -0.0556  0.2108
 1873TIP3    H127110   1.778   2.114   5.684 -0.8543  0.1585 -0.0754
 1873TIP3    H227111   1.806   1.982   5.615 -0.7854  0.5447 -0.7936
 1874TIP3   OH227112   3.447   2.767   2.548 -0.0117 -0.5495  0.0878
 1874TIP3    H127113   3.535   2.793   2.524 -0.6357  0.5698 -1.0978
 1874TIP3    H227114   3.397   2.770   2.467 -1.3952 -0.1012  0.9059
 1875TIP3   OH227115   6.805   0.241   6.860 -0.6728 -0.4052 -0.0572
 1875TIP3    H127116   6.761   0.304   6.802  0.9179  0.2122 -0.6849
 1875TIP3    H227117   6.837   0.294   6.933  0.8872 -0.3702 -0.7073
 1876TIP3   OH227118   1.842   4.717  14.227  0.4307 -0.2878  0.3709
 1876TIP3    H127119   1.842   4.637  14.279 -1.0290  1.3844  3.1546
 1876TIP3    H227120   1.913   4.770  14.264 -1.2929  1.3509  1.5160
 1877TIP3   OH227121   3.400   2.173   4.169  0.1115  0.0301 -0.5785
 1877TIP3    H127122   3.454   2.100   4.200 -1.1556 -0.5519  0.3698
 1877TIP3    H227123   3.427   2.185   4.078  0.5667 -1.4419 -0.6776
 1878TIP3   OH227124   2.288   3.326  15.961 -0.3494 -0.2518 -0.7531
 1878TIP3    H127125   2.383   3.321  15.969 -0.2320 -0.4341 -2.0207
 1878TIP3    H227126   2.267   3.266  15.890 -1.7516 -2.5701  1.4398
 1879TIP3   OH227127   1.063   1.556   5.863 -0.4514 -0.0030  0.1243
 1879TIP3    H127128   1.141   1.605   5.885  0.3405 -0.6987 -1.0156
 1879TIP3    H227129   1.072   1.473   5.910 -0.7288  0.0964  0.3544
 1880TIP3   OH227130   0.554   3.308   6.623 -0.3071  0.3411  0.1007
 1880TIP3    H127131   0.637   3.315   6.575 -0.4826  0.3369 -0.2090
 1880TIP3    H227132   0.512   3.393   6.611 -0.2620  0.4071  0.4170
 1881TIP3   OH227133   4.850   2.314  14.503 -0.2231 -0.0391 -0.4329
 1881TIP3    H127134   4.903   2.393  14.489  1.4453 -0.8385  1.0492
 1881TIP3    H227135   4.792   2.338  14.575  1.1741 -0.5109  0.9079
 1882TIP3   OH227136   3.859   0.383  16.579  0.1313 -0.6160  0.5087
 1882TIP3    H127137   3.850   0.387  16.674 -0.7743  2.7986  0.3865
 1882TIP3    H227138   3.952   0.399  16.563 -0.1710  1.8082  0.8294
 1883TIP3   OH227139   2.345   1.811   3.406 -0.2565  0.1954 -0.0118
 1883TIP3    H127140   2.317   1.900   3.385 -0.5139 -0.0446 -0.7146
 1883TIP3    H227141   2.438   1.820   3.426 -0.5364  0.8022  1.1162
 1884TIP3   OH227142   0.383   1.967   3.678 -0.2238 -0.4203 -0.1964
 1884TIP3    H127143   0.385   1.997   3.588 -0.9436 -1.2513 -0.4969
 1884TIP3    H227144   0.394   2.047   3.730 -1.9366  0.3519 -0.9700
 1885TIP3   OH227145   4.972   4.861   5.618  0.0070  0.1543  0.2817
 1885TIP3    H127146   4.944   4.930   5.558  1.4185 -0.0882 -0.6999
 1885TIP3    H227147   5.042   4.816   5.572 -1.4918 -2.5961  0.4332
 1886TIP3   OH227148   6.645   4.998   1.050 -0.1868 -0.1593 -0.1973
 1886TIP3    H127149   6.575   4.933   1.041  0.0426 -0.5654  0.8896
 1886TIP3    H227150   6.722   4.954   1.013 -0.3876  0.1288 -0.9936
 1887TIP3   OH227151   2.297   3.437   0.050  0.8268 -0.2222 -0.8155
 1887TIP3    H127152   2.277   3.375   0.120  0.0778  0.6035 -0.2795
 1887TIP3    H227153   2.295   3.384  -0.030 -0.3682 -0.7962 -0.4326
 1888TIP3   OH227154   1.929   2.367   0.417 -0.2382 -0.0694 -0.1773
 1888TIP3    H127155   1.932   2.406   0.504 -5.5473 -0.3732  0.4713
 1888TIP3    H227156   1.926   2.273   0.433  0.4395 -0.2120 -0.8419
 1889TIP3   OH227157   0.635   6.129   5.273 -0.2903  0.0909  0.8905
 1889TIP3    H127158   0.589   6.195   5.324 -0.2323  0.8821 -0.0503
 1889TIP3    H227159   0.702   6.095   5.332  0.1442  1.3884  1.1713
 1890TIP3   OH227160   1.968   5.169  13.270 -0.0613  0.2414  0.0084
 1890TIP3    H127161   2.027   5.100  13.299 -2.1795 -1.3819  0.7326
 1890TIP3    H227162   2.024   5.230  13.222  2.2690 -0.8449  1.1900
 1891TIP3   OH227163   6.366   3.492  16.458 -0.4801 -0.3744  0.1227
 1891TIP3    H127164   6.275   3.466  16.465 -0.5951  0.1393  0.6241
 1891TIP3    H227165   6.365   3.570  16.403 -0.1742 -1.2185 -1.1071
 1892TIP3   OH227166   5.538   6.806   0.872  0.5392  0.1514 -0.2124
 1892TIP3    H127167   5.479   6.762   0.933  0.4093  1.0214  0.2942
 1892TIP3    H227168   5.621   6.812   0.920  1.2094 -1.4447 -1.0686
 1893TIP3   OH227169   6.107   4.618  16.983  0.9053 -0.2629 -0.0012
 1893TIP3    H127170   6.031   4.560  16.980  0.5520  0.2379 -0.8064
 1893TIP3    H227171   6.085   4.683  17.050 -0.1362  0.9093 -1.4383
 1894TIP3   OH227172   6.047   4.301  17.004  0.1134  0.1124  0.2395
 1894TIP3    H127173   6.137   4.302  16.971  0.6581 -0.7250  1.6034
 1894TIP3    H227174   6.056   4.283  17.098 -1.3427  2.4774  0.9230
 1895TIP3   OH227175   4.071   5.982  10.339 -0.5045  0.0215  0.0564
 1895TIP3    H127176   4.052   5.968  10.246 -2.4402  0.7163  0.2921
 1895TIP3    H227177   4.134   6.054  10.340 -0.7414  0.2478 -0.7295
 1896TIP3   OH227178   2.035   3.429   2.833 -0.4526  0.1927 -0.2524
 1896TIP3    H127179   2.053   3.338   2.809 -0.0929  0.1827  0.0425
 1896TIP3    H227180   1.976   3.423   2.908 -0.8371  0.2134 -0.5468
 1897TIP3   OH227181   2.672   0.556   1.407  0.2637 -0.1159  0.2358
 1897TIP3    H127182   2.704   0.469   1.383  0.8890  0.3121 -0.5258
 1897TIP3    H227183   2.578   0.553   1.389  0.7514  0.3468 -2.9297
 1898TIP3   OH227184   3.859   5.439  14.490 -0.0830 -0.2376  0.3915
 1898TIP3    H127185   3.862   5.474  14.579  1.5484 -2.0680  1.1309
 1898TIP3    H227186   3.824   5.351  14.500 -2.3509  0.3880 -1.1823
 1899TIP3   OH227187   4.274   5.796   1.065  0.3792 -0.1885  0.2154
 1899TIP3    H127188   4.306   5.706   1.059  1.2568  0.1958 -1.2137
 1899TIP3    H227189   4.296   5.836   0.981 -1.7209  0.8170  0.0560
 1900TIP3   OH227190   1.430   4.846  11.286 -0.2726  0.0079 -0.1704
 1900TIP3    H127191   1.433   4.844  11.190 -1.8080 -2.8930 -0.2594
 1900TIP3    H227192   1.512   4.806  11.314 -0.6045 -0.8158 -0.3473
 1901TIP3   OH227193   0.313   1.308  13.527 -0.9078 -0.2248 -0.6220
 1901TIP3    H127194   0.260   1.371  13.479  0.0334 -0.3078 -1.8179
 1901TIP3    H227195   0.350   1.357  13.600  0.0662  0.7157 -1.7144
 1902TIP3   OH227196   4.896   1.660   0.347 -0.1005  0.6680  0.4615
 1902TIP3    H127197   4.841   1.689   0.274 -0.4071 -0.5358  0.1927
 1902TIP3    H227198   4.843   1.677   0.425 -1.6555 -2.0174  0.1191
 1903TIP3   OH227199   4.853   5.908   4.292 -0.0606 -0.0085  0.0200
 1903TIP3    H127200   4.798   5.830   4.284  1.8464 -1.3719 -0.6955
 1903TIP3    H227201   4.876   5.929   4.201 -0.6196  1.4597  0.2076
 1904TIP3   OH227202   0.998   1.845   3.882 -0.0863  0.3237 -0.0414
 1904TIP3    H127203   0.969   1.800   3.802 -1.2233  1.1373 -0.1052
 1904TIP3    H227204   0.962   1.793   3.953  1.1623 -0.5629 -0.0173
 1905TIP3   OH227205   6.622   1.341   1.327 -0.1856  0.0237 -0.1666
 1905TIP3    H127206   6.571   1.317   1.404 -1.2202  0.3043 -0.7423
 1905TIP3    H227207   6.588   1.427   1.302  1.1901  0.6210 -0.0510
 1906TIP3   OH227208   3.835   6.561  11.047  0.1863  0.1891  0.1266
 1906TIP3    H127209   3.777   6.520  10.984  1.2295 -0.6000 -0.3395
 1906TIP3    H227210   3.777   6.589  11.118 -0.8527  0.1267 -0.6746
 1907TIP3   OH227211   4.289   1.586  16.684  0.1171 -1.2681 -0.9997
 1907TIP3    H127212   4.325   1.502  16.656  0.5906 -1.4419  0.0828
 1907TIP3    H227213   4.282   1.579  16.780  0.1794 -0.0737 -0.8904
 1908TIP3   OH227214   1.011   5.821   5.929 -0.0546  0.4519 -0.1382
 1908TIP3    H127215   1.088   5.878   5.938  0.2008  0.0254  0.4155
 1908TIP3    H227216   1.010   5.769   6.009 -0.4088 -0.1776 -0.5433
 1909TIP3   OH227217   2.519   5.842  16.296 -0.0395 -0.1240 -0.2872
 1909TIP3    H127218   2.532   5.888  16.378 -0.1752 -2.0577  0.8765
 1909TIP3    H227219   2.424   5.843  16.282 -0.0784 -0.3600 -0.0536
 1910TIP3   OH227220   5.919   1.733   4.379 -0.5266 -0.2767  0.4228
 1910TIP3    H127221   5.956   1.822   4.380 -0.7501 -0.1026 -1.6757
 1910TIP3    H227222   5.984   1.680   4.426  0.2032  0.7909  0.6663
 1911TIP3   OH227223   5.687   3.783  16.046 -0.2830  1.2184 -1.0634
 1911TIP3    H127224   5.709   3.701  16.092 -1.0373 -0.1289 -2.9882
 1911TIP3    H227225   5.701   3.851  16.112  0.4266 -0.4342  0.6035
 1912TIP3   OH227226   4.181   3.143   1.890  0.0082 -0.4662 -0.1500
 1912TIP3    H127227   4.099   3.125   1.936 -1.1380 -1.1847 -2.3741
 1912TIP3    H227228   4.157   3.150   1.798  1.9990  2.2587 -0.5985
 1913TIP3   OH227229   5.439   5.819   6.685 -0.3786  0.7095  0.1471
 1913TIP3    H127230   5.366   5.877   6.664 -1.2568 -0.9315 -1.6573
 1913TIP3    H227231   5.517   5.871   6.667 -1.0580  2.2845  1.4734
 1914TIP3   OH227232   3.433   6.400  11.558 -0.0875  0.1663  0.3297
 1914TIP3    H127233   3.483   6.369  11.483 -0.5124  3.0604 -1.2974
 1914TIP3    H227234   3.351   6.350  11.555  0.9956 -1.7323  0.6286
 1915TIP3   OH227235   4.170   6.483   0.912  0.1673 -0.4382 -0.2093
 1915TIP3    H127236   4.235   6.507   0.978 -1.2126  1.4689  0.5360
 1915TIP3    H227237   4.123   6.564   0.893 -1.4634 -1.5663 -1.3405
 1916TIP3   OH227238   2.040   6.447  14.852 -0.0883 -0.1082 -0.1840
 1916TIP3    H127239   2.120   6.487  14.887 -0.5213 -0.3543  1.1396
 1916TIP3    H227240   1.983   6.521  14.832 -0.1189  0.0140  0.3450
 1917TIP3   OH227241   4.437   4.337   6.168 -0.2743 -0.5231 -0.3938
 1917TIP3    H127242   4.364   4.356   6.227 -1.2257 -0.0342 -1.6647
 1917TIP3    H227243   4.469   4.251   6.197 -0.5004 -0.1606  1.0013
 1918TIP3   OH227244   2.252   1.850  15.132  0.0391 -0.2089  0.0823
 1918TIP3    H127245   2.243   1.763  15.092 -0.0165 -0.1715  0.0131
 1918TIP3    H227246   2.206   1.843  15.215 -1.3133  0.2058 -0.6015
 1919TIP3   OH227247   5.180   5.374  13.006  0.6784  0.7261 -0.8383
 1919TIP3    H127248   5.266   5.381  12.964  1.2197 -0.6146 -0.0247
 1919TIP3    H227249   5.193   5.409  13.094  0.7947 -0.7817 -0.2242
 1920TIP3   OH227250   0.502   2.600  13.162 -0.3880 -0.2282  0.0513
 1920TIP3    H127251   0.494   2.504  13.161 -1.9189 -0.1709  1.6218
 1920TIP3    H227252   0.497   2.624  13.070 -1.7254 -1.5966 -0.2985
 1921TIP3   OH227253   1.983   5.566   4.267 -0.1625 -0.2873  0.3903
 1921TIP3    H127254   1.976   5.487   4.213 -0.2497 -0.8156  1.1530
 1921TIP3    H227255   1.952   5.539   4.353 -0.9391  0.7848  0.4728
 1922TIP3   OH227256   3.378   0.593   1.729 -0.3195 -0.3058 -0.4087
 1922TIP3    H127257   3.299   0.579   1.678 -0.6413  0.4188 -0.1098
 1922TIP3    H227258   3.350   0.643   1.805  0.6129  0.9749 -0.8745
 1923TIP3   OH227259   3.861   5.749   4.217 -0.4228  0.3380 -0.3160
 1923TIP3    H127260   3.806   5.675   4.242 -0.0315  0.3477  0.6262
 1923TIP3    H227261   3.938   5.710   4.176  0.3882  0.1137  1.3289
 1924TIP3   OH227262   2.645   1.627  13.508 -0.1971 -0.5255 -0.4483
 1924TIP3    H127263   2.726   1.621  13.558  0.2133  0.8848 -0.9085
 1924TIP3    H227264   2.656   1.564  13.436  0.2746 -0.6992 -0.2264
 1925TIP3   OH227265   3.191   1.927  14.061  0.0331  0.3187  0.2233
 1925TIP3    H127266   3.247   1.980  14.117 -0.0025 -0.7201  1.2840
 1925TIP3    H227267   3.103   1.962  14.075  0.1341  0.5819  0.1953
 1926TIP3   OH227268   3.911   2.023  15.974 -0.8371  0.0365 -0.8218
 1926TIP3    H127269   3.837   1.963  15.982 -0.1502 -0.8234 -0.7407
 1926TIP3    H227270   3.871   2.108  15.953 -1.8471 -0.3729 -0.6272
 1927TIP3   OH227271   4.357   5.595  13.410  0.0944  0.0567  0.0435
 1927TIP3    H127272   4.310   5.539  13.472 -3.6645  2.7322 -0.0217
 1927TIP3    H227273   4.361   5.545  13.329  1.2315 -1.8623  1.2201
 1928TIP3   OH227274   5.088   5.384  14.495  0.3493  0.5870 -0.1408
 1928TIP3    H127275   5.124   5.372  14.407 -0.9562  0.0509 -0.6217
 1928TIP3    H227276   5.151   5.341  14.553  1.9858  2.1951 -0.6234
 1929TIP3   OH227277   2.510   0.767   3.000  0.6390  0.7859 -0.2349
 1929TIP3    H127278   2.554   0.827   2.940  2.6727 -2.0326 -1.7776
 1929TIP3    H227279   2.567   0.762   3.076  1.8210 -0.9540 -1.1677
 1930TIP3   OH227280   4.358   0.934   5.920 -0.1588  0.4137 -0.3599
 1930TIP3    H127281   4.422   1.005   5.929  0.0524  0.2005 -0.1820
 1930TIP3    H227282   4.290   0.957   5.984  0.0717  0.2829 -0.0624
 1931TIP3   OH227283   0.031   6.414  12.368 -0.0387 -0.5544  0.2915
 1931TIP3    H127284  -0.020   6.335  12.385 -0.6795  0.3153  2.9855
 1931TIP3    H227285  -0.035   6.484  12.367  0.6128  0.0645 -1.1050
 1932TIP3   OH227286   1.299   6.390  15.900  0.3045  0.0628  0.0192
 1932TIP3    H127287   1.338   6.343  15.973  0.3863 -1.4127 -0.9144
 1932TIP3    H227288   1.230   6.332  15.869  0.9249  0.1636 -1.6767
 1933TIP3   OH227289   4.145   0.165   0.871 -0.8063 -0.3571 -0.0336
 1933TIP3    H127290   4.088   0.211   0.933 -0.1051  0.6358 -0.1078
 1933TIP3    H227291   4.133   0.211   0.788 -1.1629 -1.2060 -0.4673
 1934TIP3   OH227292   0.203   1.919   0.210  0.3980 -1.0333  0.0160
 1934TIP3    H127293   0.259   1.976   0.262  0.2627  0.2205 -1.1739
 1934TIP3    H227294   0.125   1.905   0.263  0.5980 -0.4175  0.4684
 1935TIP3   OH227295   5.816   1.005  14.881 -0.2719 -0.0524 -0.1503
 1935TIP3    H127296   5.736   0.958  14.859 -0.1665 -0.0394 -0.5881
 1935TIP3    H227297   5.867   0.943  14.933 -0.7071  0.0599  0.4086
 1936TIP3   OH227298   2.760   4.974   1.685 -0.6521  0.9408  0.0051
 1936TIP3    H127299   2.692   5.017   1.633  0.9081  1.2631 -1.8831
 1936TIP3    H227300   2.783   4.896   1.635  1.2605  1.5219 -0.0726
 1937TIP3   OH227301   2.299   2.216  12.178 -0.0638 -0.5248  0.2351
 1937TIP3    H127302   2.226   2.159  12.153 -1.6492  0.8036  1.5009
 1937TIP3    H227303   2.332   2.178  12.260 -1.3446  0.4563  1.2653
 1938TIP3   OH227304   2.245   2.281  13.319  0.3544 -0.5201  0.6392
 1938TIP3    H127305   2.279   2.369  13.302 -0.9446 -0.3746 -1.6010
 1938TIP3    H227306   2.208   2.253  13.235 -2.2253 -1.8751  2.0997
 1939TIP3   OH227307   0.329   1.564   2.401 -0.1484  0.2848 -0.1899
 1939TIP3    H127308   0.302   1.516   2.323 -0.1678  1.9294 -1.2298
 1939TIP3    H227309   0.422   1.542   2.412 -0.2817 -0.3724 -0.3468
 1940TIP3   OH227310   6.286   2.332  12.482 -0.6122 -0.1718  0.3786
 1940TIP3    H127311   6.196   2.363  12.467  0.3073  2.2392 -0.5940
 1940TIP3    H227312   6.333   2.352  12.401  0.7740 -1.6976  0.7441
 1941TIP3   OH227313   5.278   0.677   4.838  0.4774  0.0003  0.2606
 1941TIP3    H127314   5.265   0.677   4.743  1.3586 -0.3069  0.1312
 1941TIP3    H227315   5.257   0.766   4.865  2.3235  0.7160 -0.5387
 1942TIP3   OH227316   4.332   4.337  15.898 -0.0252  0.1740  0.0134
 1942TIP3    H127317   4.360   4.265  15.956 -1.4954 -1.0217 -0.6829
 1942TIP3    H227318   4.261   4.380  15.945 -1.9057 -1.4151 -1.1795
 1943TIP3   OH227319   4.912   2.295   5.486  0.3295  0.2014 -0.1362
 1943TIP3    H127320   4.999   2.332   5.478 -0.1571  1.3749 -0.2098
 1943TIP3    H227321   4.882   2.283   5.396  0.2859  0.1397 -0.1132
 1944TIP3   OH227322   2.924   1.538  13.551 -0.0970  0.6235  0.7378
 1944TIP3    H127323   2.979   1.564  13.476  0.1148 -0.8758  0.3499
 1944TIP3    H227324   2.924   1.615  13.608 -0.2637  1.8030 -0.7933
 1945TIP3   OH227325   1.909   5.130  14.888 -0.2310 -0.2232 -0.3130
 1945TIP3    H127326   1.827   5.168  14.921 -1.2246 -1.3345 -1.3986
 1945TIP3    H227327   1.957   5.105  14.967 -0.9744  0.3419  0.3366
 1946TIP3   OH227328   3.821   6.405   5.096 -0.8908  0.0815 -0.9464
 1946TIP3    H127329   3.796   6.458   5.020 -3.0136 -1.2728 -1.2648
 1946TIP3    H227330   3.745   6.349   5.113  1.4718 -3.4857 -1.1336
 1947TIP3   OH227331   4.376   1.059  11.694 -0.4108  0.1868 -0.7079
 1947TIP3    H127332   4.459   1.012  11.701 -0.2577  0.6504  1.1177
 1947TIP3    H227333   4.316   0.996  11.653 -0.1250 -1.5238  1.3283
 1948TIP3   OH227334   2.320   4.949  13.832 -0.3905  0.6043 -1.0176
 1948TIP3    H127335   2.360   4.884  13.774  2.1755  0.0611  1.1330
 1948TIP3    H227336   2.394   5.003  13.860 -1.9776  2.5172 -0.3342
 1949TIP3   OH227337   2.090   5.799   4.375 -1.1209 -0.1248 -0.2770
 1949TIP3    H127338   2.025   5.734   4.347 -1.2131 -0.7503  1.2747
 1949TIP3    H227339   2.161   5.792   4.311 -2.1781 -0.0299 -1.5099
 1950TIP3   OH227340   0.309   4.921  11.068 -0.6579  0.2794  0.2467
 1950TIP3    H127341   0.326   4.885  10.981 -1.1780  1.1934 -0.2525
 1950TIP3    H227342   0.288   5.013  11.052 -0.7812  0.4542  1.3411
 1951TIP3   OH227343   6.170   3.625  14.480  0.1228  0.4697 -0.2529
 1951TIP3    H127344   6.139   3.630  14.390  0.0346 -0.2386 -0.2664
 1951TIP3    H227345   6.224   3.703  14.491 -0.5943  1.0375 -0.6325
 1952TIP3   OH227346   2.115   5.082  12.788 -0.1353 -0.3099 -0.1004
 1952TIP3    H127347   2.077   5.039  12.865 -0.6459 -1.6764 -1.0639
 1952TIP3    H227348   2.162   5.157  12.823 -1.8327  0.1493  1.3767
 1953TIP3   OH227349   1.324   1.707  10.362 -0.0754 -0.7050 -0.2905
 1953TIP3    H127350   1.322   1.783  10.304 -0.4383 -0.9463 -0.6041
 1953TIP3    H227351   1.246   1.717  10.418  1.7246  1.0031  2.1151
 1954TIP3   OH227352   3.689   3.215  13.785 -0.5864 -0.4514  0.4404
 1954TIP3    H127353   3.672   3.159  13.710 -0.9889  1.4346 -0.9266
 1954TIP3    H227354   3.615   3.276  13.788  0.8167  1.3437  0.5674
 1955TIP3   OH227355   3.332   4.928   1.225 -0.1426  0.0713 -0.3042
 1955TIP3    H127356   3.333   4.859   1.291  2.0253 -0.0798 -0.4003
 1955TIP3    H227357   3.264   4.988   1.254  1.8061  0.9155  3.1417
 1956TIP3   OH227358   4.288   3.263   3.751 -0.0806 -0.1028  0.3720
 1956TIP3    H127359   4.310   3.343   3.705 -0.3106  1.0227  2.1212
 1956TIP3    H227360   4.192   3.259   3.747 -0.0906 -0.0912  0.6135
 1957TIP3   OH227361   1.313   1.766   2.810 -0.6658 -0.8685  0.0618
 1957TIP3    H127362   1.309   1.733   2.899  0.8834 -1.6284 -0.1210
 1957TIP3    H227363   1.305   1.688   2.754 -0.3848 -0.5474 -0.4369
 1958TIP3   OH227364   0.805   0.151   2.435  0.4259  0.0132  0.8027
 1958TIP3    H127365   0.807   0.119   2.525 -3.3677 -1.3409  0.5843
 1958TIP3    H227366   0.795   0.245   2.442 -0.7875 -0.1791  1.8590
 1959TIP3   OH227367   2.899   3.859   2.574  0.1360  0.1232 -0.4576
 1959TIP3    H127368   2.816   3.813   2.559  1.2339 -2.5399  0.9583
 1959TIP3    H227369   2.926   3.833   2.662  1.6920  2.2896 -0.1989
 1960TIP3   OH227370   2.031   0.327   4.647  0.1027  0.2806 -0.0193
 1960TIP3    H127371   2.054   0.235   4.631  0.3039  0.2904  0.2162
 1960TIP3    H227372   1.940   0.334   4.618 -0.2868 -0.2768  1.0240
 1961TIP3   OH227373   5.254   2.760  14.632  0.6628 -0.3413 -0.0972
 1961TIP3    H127374   5.278   2.671  14.656  2.0798  0.0009 -0.1178
 1961TIP3    H227375   5.245   2.757  14.536 -0.1625 -0.6396 -0.0183
 1962TIP3   OH227376   1.193   5.348   2.756  0.5235 -0.1389  0.3959
 1962TIP3    H127377   1.139   5.316   2.828 -1.6247  1.9293 -0.1433
 1962TIP3    H227378   1.171   5.291   2.682  1.1532 -0.9694  0.8350
 1963TIP3   OH227379   3.224   4.350  12.415 -0.3298 -0.2196  0.2496
 1963TIP3    H127380   3.197   4.258  12.406 -0.5063 -0.7253  4.1109
 1963TIP3    H227381   3.314   4.345  12.447 -0.6811  0.8740  1.4646
 1964TIP3   OH227382   1.577   1.462  12.795 -0.1688  0.4819  0.4269
 1964TIP3    H127383   1.502   1.413  12.829  0.5886 -0.8259  0.2608
 1964TIP3    H227384   1.567   1.459  12.700 -0.2004  0.7967  0.4186
 1965TIP3   OH227385   6.133   4.026  12.387  0.0096 -0.4075  0.4826
 1965TIP3    H127386   6.129   3.942  12.341 -2.4544 -0.5949  0.8960
 1965TIP3    H227387   6.218   4.026  12.430  0.1223 -2.6277  0.3499
 1966TIP3   OH227388   3.123   2.178  11.910 -0.5227 -0.9676 -0.4035
 1966TIP3    H127389   3.214   2.202  11.922 -1.0996  1.0699  0.2609
 1966TIP3    H227390   3.097   2.220  11.828 -0.9156 -1.4377 -0.5315
 1967TIP3   OH227391   2.148   0.082  13.974 -0.2159 -0.0578 -0.1318
 1967TIP3    H127392   2.097   0.004  13.950  1.6821 -1.9470  1.5933
 1967TIP3    H227393   2.082   0.149  13.992 -2.0036 -1.7106 -0.1981
 1968TIP3   OH227394   0.417   1.415   5.135 -0.6247  0.1012 -0.3998
 1968TIP3    H127395   0.451   1.484   5.079  1.3000  0.0102  0.5516
 1968TIP3    H227396   0.410   1.338   5.078 -0.4175  0.4598 -0.9090
 1969TIP3   OH227397   2.119   5.771  16.725 -0.1062 -0.1628 -0.0636
 1969TIP3    H127398   2.128   5.840  16.791  1.0241 -0.4207  0.0768
 1969TIP3    H227399   2.054   5.711  16.762 -2.4485  1.6807 -0.9722
 1970TIP3   OH227400   6.710   6.550   3.376 -0.4218 -0.4675  0.0352
 1970TIP3    H127401   6.799   6.539   3.408 -0.5466 -1.7705 -0.0100
 1970TIP3    H227402   6.710   6.511   3.288 -0.5247  1.4585 -0.8617
 1971TIP3   OH227403   2.331   2.767   6.222 -0.4634 -0.0501  0.2413
 1971TIP3    H127404   2.306   2.679   6.191  0.4728  0.4643 -2.2076
 1971TIP3    H227405   2.384   2.750   6.300  0.9174 -1.8232 -0.9752
 1972TIP3   OH227406   1.929   2.201  11.836 -0.2917 -0.4675 -0.1331
 1972TIP3    H127407   1.938   2.118  11.789 -1.9394  0.6201 -2.5897
 1972TIP3    H227408   1.865   2.184  11.905 -0.7282 -1.2138 -0.7157
 1973TIP3   OH227409   3.557   0.745   2.390 -0.5872  0.6927  0.1041
 1973TIP3    H127410   3.536   0.792   2.309 -0.3574  0.1984 -0.2524
 1973TIP3    H227411   3.604   0.667   2.360  1.1811  1.4325  0.8168
 1974TIP3   OH227412   1.468   5.164  14.438  0.2979  0.5468 -0.1321
 1974TIP3    H127413   1.442   5.255  14.429 -1.3636  0.1855  0.6563
 1974TIP3    H227414   1.452   5.143  14.530  1.8880 -0.2004  0.0113
 1975TIP3   OH227415   4.448   3.642  13.428 -0.2167 -0.4168  0.1960
 1975TIP3    H127416   4.409   3.682  13.505  1.3110 -1.2453  1.4485
 1975TIP3    H227417   4.515   3.704  13.400  1.3939 -1.4956  1.4789
 1976TIP3   OH227418   3.772   6.172  16.982 -0.3508 -0.4652 -0.0923
 1976TIP3    H127419   3.827   6.151  17.057 -0.6696  3.1676  1.3963
 1976TIP3    H227420   3.834   6.198  16.914 -0.0542 -3.8879 -1.2873
 1977TIP3   OH227421   2.614   6.569  16.200  0.0500 -0.2816  0.1508
 1977TIP3    H127422   2.594   6.603  16.287  0.1907  1.4518 -0.4522
 1977TIP3    H227423   2.615   6.646  16.144  3.0058 -0.8898 -0.8368
 1978TIP3   OH227424   3.263   2.131  16.649  0.2880  0.3328  0.5544
 1978TIP3    H127425   3.260   2.036  16.634 -0.3085  0.2315  1.2725
 1978TIP3    H227426   3.352   2.147  16.681  0.8971  0.2508 -1.0294
 1979TIP3   OH227427   2.781   1.633   3.690 -0.5201 -0.1290  0.1543
 1979TIP3    H127428   2.739   1.580   3.758 -2.3037  1.7168  0.5702
 1979TIP3    H227429   2.824   1.569   3.634 -1.2643 -1.8998  1.4975
 1980TIP3   OH227430   0.382   1.379  15.051  0.2828  0.1722 -0.3948
 1980TIP3    H127431   0.307   1.321  15.060  0.0599  0.8111  3.1949
 1980TIP3    H227432   0.358   1.438  14.980 -1.7646 -0.8508 -0.6121
 1981TIP3   OH227433   2.088   3.407   5.376  0.6832 -0.0720  0.3891
 1981TIP3    H127434   2.064   3.494   5.344  0.8171 -0.4376 -0.7545
 1981TIP3    H227435   2.004   3.366   5.397  0.5721  0.0893  0.2695
 1982TIP3   OH227436   5.686   2.733  15.537 -0.2345  0.1314  0.2456
 1982TIP3    H127437   5.656   2.823  15.523 -0.5853  0.2001  1.3770
 1982TIP3    H227438   5.718   2.733  15.627  1.7080 -0.3462 -0.4023
 1983TIP3   OH227439   4.643   0.051  12.334  0.2823 -0.2680  0.2462
 1983TIP3    H127440   4.570   0.022  12.279  0.1001  0.3309  0.1626
 1983TIP3    H227441   4.603   0.065  12.420  0.2091  0.4494  0.1008
 1984TIP3   OH227442   0.399   1.411  12.165 -0.1020 -0.6468  0.0495
 1984TIP3    H127443   0.346   1.418  12.085  1.9546 -1.5461 -1.4731
 1984TIP3    H227444   0.402   1.317  12.183 -0.7037 -0.4365  1.3328
 1985TIP3   OH227445   3.546   5.843   2.163 -0.2186  0.0404  0.7227
 1985TIP3    H127446   3.641   5.835   2.177 -0.4067  1.2493  3.2922
 1985TIP3    H227447   3.515   5.896   2.237 -2.6887  1.0842 -0.9149
 1986TIP3   OH227448   2.470   6.442  11.901 -0.6871 -0.4234 -0.4329
 1986TIP3    H127449   2.384   6.438  11.859 -2.0785 -0.8185  2.2039
 1986TIP3    H227450   2.453   6.488  11.984  2.0202  1.0604 -0.5899
 1987TIP3   OH227451   0.998   6.044   2.288  0.2569  0.0186 -0.0910
 1987TIP3    H127452   0.945   6.008   2.217 -1.0290  0.3395  0.6833
 1987TIP3    H227453   1.054   6.109   2.245  1.0786 -1.3121 -1.1418
 1988TIP3   OH227454   2.317   1.416  15.356 -0.0858 -0.1452  0.2394
 1988TIP3    H127455   2.242   1.455  15.400 -1.0547 -1.4498 -0.2039
 1988TIP3    H227456   2.388   1.480  15.368 -0.9153  0.5402  1.7259
 1989TIP3   OH227457   5.733   0.105  12.013  0.1164  0.3129  0.3877
 1989TIP3    H127458   5.697   0.035  12.067 -1.8323  0.0985 -1.0579
 1989TIP3    H227459   5.711   0.186  12.059 -0.6499  0.0959  0.4120
 1990TIP3   OH227460   6.002   6.673  14.598 -0.4260  0.2025  0.0288
 1990TIP3    H127461   6.006   6.731  14.675 -0.2655  0.0082  0.1684
 1990TIP3    H227462   6.023   6.730  14.524  1.3106 -0.0051  0.3347
 1991TIP3   OH227463   6.441   4.666   4.058 -0.4482  0.3252  0.1532
 1991TIP3    H127464   6.375   4.706   4.001  0.7791  2.2802 -0.0098
 1991TIP3    H227465   6.506   4.735   4.071  2.2878 -1.8932 -0.7714
 1992TIP3   OH227466   0.197   6.323  15.727 -0.3315 -0.1032 -0.2625
 1992TIP3    H127467   0.150   6.275  15.659 -1.5481 -0.1478  0.5860
 1992TIP3    H227468   0.145   6.401  15.743 -0.5076 -0.4802  1.1728
 1993TIP3   OH227469   0.576   4.149   3.116  0.0095 -0.1553 -0.3023
 1993TIP3    H127470   0.551   4.119   3.204  1.1960  0.2016  0.1872
 1993TIP3    H227471   0.540   4.237   3.110  0.7532  0.2003  0.2340
 1994TIP3   OH227472   0.009   0.710  17.002  0.3676  0.3556 -0.4045
 1994TIP3    H127473  -0.021   0.630  17.045 -2.1317  0.6670 -1.3852
 1994TIP3    H227474  -0.026   0.781  17.056  1.8553  0.8236 -0.0039
 1995TIP3   OH227475   1.402   6.334  13.547 -0.3076 -0.8078  0.2382
 1995TIP3    H127476   1.325   6.364  13.499 -0.7469 -0.4892  1.1282
 1995TIP3    H227477   1.367   6.290  13.625  0.4016 -0.7088  0.6271
 1996TIP3   OH227478   4.373   1.901   2.903  0.4405 -0.0087  0.1117
 1996TIP3    H127479   4.399   1.941   2.820  1.2436 -2.8337 -1.1035
 1996TIP3    H227480   4.307   1.835   2.878  0.1962 -0.4534  1.8149
 1997TIP3   OH227481   3.260   6.095   2.661 -0.2706 -0.3382  0.3125
 1997TIP3    H127482   3.230   6.183   2.684 -0.8919 -0.4926  0.1061
 1997TIP3    H227483   3.335   6.080   2.718  0.1933  0.5490 -0.0455
 1998TIP3   OH227484   2.198   6.610   1.086  0.1128 -0.2059 -0.4761
 1998TIP3    H127485   2.289   6.592   1.062 -0.0129  0.0899 -1.1850
 1998TIP3    H227486   2.146   6.558   1.026 -0.2164  0.9381 -1.2226
 1999TIP3   OH227487   2.795   1.836   1.742  0.2127  0.3653  0.1656
 1999TIP3    H127488   2.782   1.808   1.833  0.2850 -1.0596 -0.2263
 1999TIP3    H227489   2.804   1.931   1.746 -0.0430  0.3434  1.6160
 2000TIP3   OH227490   6.763   6.576   5.098 -0.7454 -0.0385 -0.5701
 2000TIP3    H127491   6.672   6.566   5.070 -0.1088  0.3488 -3.0368
 2000TIP3    H227492   6.777   6.670   5.100 -0.6825 -0.0575  0.9609
 2001TIP3   OH227493   5.722   0.117  13.484  0.0940 -0.5725  0.2752
 2001TIP3    H127494   5.659   0.151  13.421  0.3620 -1.0853 -0.2819
 2001TIP3    H227495   5.673   0.109  13.566 -0.8419 -1.8863 -0.3814
 2002TIP3   OH227496   4.821   6.698   1.633 -0.3031  0.5480 -0.4625
 2002TIP3    H127497   4.902   6.657   1.603 -0.3014  1.1355 -1.3010
 2002TIP3    H227498   4.833   6.711   1.727 -0.3989 -1.5815 -0.1159
 2003TIP3   OH227499   5.594   0.511   4.004 -0.1613 -0.3596  0.7310
 2003TIP3    H127500   5.647   0.463   4.067  0.6221  1.2288  1.3505
 2003TIP3    H227501   5.560   0.444   3.945  0.3232 -1.7228  1.9306
 2004TIP3   OH227502   5.417   3.339   5.288  0.4541 -0.0706  0.1184
 2004TIP3    H127503   5.429   3.403   5.357  0.3776  0.0416  0.0271
 2004TIP3    H227504   5.500   3.291   5.284  0.2490 -0.4804  0.6994
 2005TIP3   OH227505   5.478   4.241  10.745  0.2062  0.0027  0.5738
 2005TIP3    H127506   5.560   4.289  10.738  0.2105  0.0841  1.1632
 2005TIP3    H227507   5.488   4.187  10.824  0.9384 -2.3782 -1.0207
 2006TIP3   OH227508   6.697   5.957  11.075 -0.2795 -0.1629 -0.4725
 2006TIP3    H127509   6.679   5.969  11.168 -2.2786  0.1684 -0.8680
 2006TIP3    H227510   6.611   5.946  11.034  0.6220 -2.1815 -2.0433
 2007TIP3   OH227511   3.226   0.621  13.348  0.1824 -0.4341 -0.4096
 2007TIP3    H127512   3.295   0.634  13.414  0.3878 -1.5048 -0.3972
 2007TIP3    H227513   3.154   0.676  13.378  1.1959  1.1096 -0.6884
 2008TIP3   OH227514   0.609   2.316   5.833 -0.3542  0.3438  0.0268
 2008TIP3    H127515   0.628   2.224   5.815  0.8546  0.7391 -0.8528
 2008TIP3    H227516   0.651   2.333   5.917 -0.2821  0.1744  0.0263
 2009TIP3   OH227517   3.315   4.639  10.810 -0.5604 -0.4534 -0.7652
 2009TIP3    H127518   3.364   4.578  10.755  0.2607 -1.1901  0.7235
 2009TIP3    H227519   3.301   4.715  10.754  0.4069 -1.0854 -1.9268
 2010TIP3   OH227520   0.193   4.821  11.323 -0.2013  0.3036  0.1785
 2010TIP3    H127521   0.116   4.878  11.329 -0.9721 -0.1838 -2.9758
 2010TIP3    H227522   0.225   4.834  11.234  2.7606 -0.3592  1.0432
 2011TIP3   OH227523   6.340   2.563  16.202 -0.7463  0.2622 -0.3321
 2011TIP3    H127524   6.385   2.532  16.123 -1.1808 -0.5321 -0.2830
 2011TIP3    H227525   6.332   2.657  16.189 -1.7015  0.0294 -1.7117
 2012TIP3   OH227526   3.307   5.598  13.415  0.0101  0.3002  0.2809
 2012TIP3    H127527   3.383   5.609  13.472 -1.3165  0.9177  2.0148
 2012TIP3    H227528   3.292   5.685  13.378 -0.2697  0.3440  0.4968
 2013TIP3   OH227529   0.391   2.077  11.123 -0.1834  0.4780  0.6356
 2013TIP3    H127530   0.354   1.996  11.089 -1.3693  0.6240  1.5179
 2013TIP3    H227531   0.428   2.121  11.046 -0.8407 -0.2192 -0.0880
 2014TIP3   OH227532   6.023   0.025  12.093 -0.1857 -0.0241 -0.2268
 2014TIP3    H127533   6.084   0.065  12.154 -0.5233  0.5908 -0.2901
 2014TIP3    H227534   5.952   0.089  12.083 -1.3297 -1.1030  0.5791
 2015TIP3   OH227535   4.256   3.938  13.872 -0.2199 -0.1021  0.0547
 2015TIP3    H127536   4.244   3.899  13.958 -1.0642  0.7331  0.3393
 2015TIP3    H227537   4.348   3.965  13.870 -0.1067 -0.4434  0.5592
 2016TIP3   OH227538   4.515   3.829  14.938  0.1500 -0.1472  0.1306
 2016TIP3    H127539   4.425   3.844  14.910 -0.0709  0.6100  1.1714
 2016TIP3    H227540   4.515   3.850  15.031  1.3322 -0.4515  0.2177
 2017TIP3   OH227541   3.360   2.043   1.764  0.0223 -0.3718  0.4506
 2017TIP3    H127542   3.392   2.052   1.674 -1.2205 -0.3656 -0.0104
 2017TIP3    H227543   3.322   1.955   1.768 -2.8657  0.7330 -0.0653
 2018TIP3   OH227544   6.275   5.047  12.041 -0.3548  0.3698 -0.2017
 2018TIP3    H127545   6.263   5.114  12.109 -1.9907  0.2490 -0.3307
 2018TIP3    H227546   6.193   4.997  12.042  0.0920 -0.4238 -1.4191
 2019TIP3   OH227547   1.502   6.476   6.139  0.3001 -0.0121  0.5409
 2019TIP3    H127548   1.561   6.402   6.124 -0.8519 -0.9702  0.6557
 2019TIP3    H227549   1.494   6.483   6.234  1.8748  1.4838  0.6215
 2020TIP3   OH227550   5.826   5.926  14.682 -0.0306 -0.2074  0.0440
 2020TIP3    H127551   5.882   5.880  14.620  0.1750 -1.0421  0.8098
 2020TIP3    H227552   5.841   5.880  14.765  0.0260  1.1403  0.7985
 2021TIP3   OH227553   6.117   6.045  13.345  0.6981 -0.0420 -0.4947
 2021TIP3    H127554   6.156   6.057  13.259 -0.4575 -0.6429 -1.1235
 2021TIP3    H227555   6.059   6.120  13.356  0.1360 -0.4426 -0.6586
 2022TIP3   OH227556   5.982   5.563  16.705 -0.2670 -0.3296 -0.5301
 2022TIP3    H127557   6.049   5.498  16.728 -0.2874 -0.3129 -0.4243
 2022TIP3    H227558   5.983   5.625  16.778 -0.2293 -0.1973 -0.6441
 2023TIP3   OH227559   0.417   4.800  16.210 -0.2734 -0.3344 -0.1666
 2023TIP3    H127560   0.463   4.725  16.172  0.5544  0.2835 -0.4143
 2023TIP3    H227561   0.330   4.766  16.232 -0.1195 -1.2074 -0.8351
 2024TIP3   OH227562   2.654   5.476   0.315 -0.2208 -0.1607  0.3546
 2024TIP3    H127563   2.581   5.538   0.312  1.0798  1.5054  1.4665
 2024TIP3    H227564   2.725   5.519   0.268  0.4290 -1.2363  0.3230
 2025TIP3   OH227565   3.478   2.790  15.593 -0.0918 -0.5592  0.5367
 2025TIP3    H127566   3.518   2.807  15.678  1.2180 -2.0509  0.2653
 2025TIP3    H227567   3.551   2.765  15.537 -1.0576 -0.5316 -0.7753
 2026TIP3   OH227568   5.901   5.012   1.262  0.2601 -0.3399 -0.1411
 2026TIP3    H127569   5.825   5.067   1.279 -0.1112 -0.3845 -1.5300
 2026TIP3    H227570   5.884   4.932   1.311  0.5056  0.5049  1.3875
 2027TIP3   OH227571   5.478   0.578   1.075 -0.1594  0.7592  0.0432
 2027TIP3    H127572   5.500   0.514   1.143 -1.9389 -0.0128 -0.0474
 2027TIP3    H227573   5.471   0.661   1.122 -0.7378  0.3447  0.7177
 2028TIP3   OH227574   2.198   6.513   0.618  0.2352 -0.2087 -0.1307
 2028TIP3    H127575   2.198   6.422   0.587  0.4006 -0.1947 -0.1726
 2028TIP3    H227576   2.290   6.537   0.619  0.4320 -0.8533  2.2592
 2029TIP3   OH227577   4.553   2.141  11.495 -0.0955 -0.2013 -0.3346
 2029TIP3    H127578   4.490   2.212  11.511  1.1516  0.5536  1.5346
 2029TIP3    H227579   4.574   2.107  11.582  1.8260 -0.6354 -0.9161
 2030TIP3   OH227580   4.243   2.476  12.850 -0.4660 -0.4977  0.2923
 2030TIP3    H127581   4.179   2.518  12.907 -0.8474  0.9658 -1.1434
 2030TIP3    H227582   4.326   2.518  12.873 -0.6837  0.3724 -0.4666
 2031TIP3   OH227583   0.302   6.697   3.386  0.0528 -0.9087  0.1260
 2031TIP3    H127584   0.246   6.712   3.462 -1.5833 -0.3845 -1.1215
 2031TIP3    H227585   0.299   6.603   3.372 -0.9648 -0.8367 -0.2228
 2032TIP3   OH227586   6.576   6.427   3.020 -0.3643  0.2644 -0.2538
 2032TIP3    H127587   6.661   6.413   3.062  0.6232  0.3708 -2.1224
 2032TIP3    H227588   6.554   6.518   3.039 -0.9617 -0.2408  1.7211
 2033TIP3   OH227589   1.813   6.365   3.967 -0.5642  0.5311 -0.9538
 2033TIP3    H127590   1.781   6.292   3.915 -0.4153 -0.1275 -0.1411
 2033TIP3    H227591   1.817   6.331   4.057 -1.1521  1.7402 -0.4390
 2034TIP3   OH227592   2.299   2.919   0.644  0.4961  0.2445 -0.0967
 2034TIP3    H127593   2.224   2.866   0.614  0.8912  0.4967 -1.5722
 2034TIP3    H227594   2.375   2.862   0.631  0.8458  0.9015 -1.0518
 2035TIP3   OH227595   0.270   4.318  11.104 -0.1955  0.5378  0.1727
 2035TIP3    H127596   0.183   4.285  11.082  0.0921  0.2226 -0.5185
 2035TIP3    H227597   0.329   4.247  11.079  0.4760  1.6832 -1.7199
 2036TIP3   OH227598   1.828   6.418  14.624 -0.1445  0.1844  0.8023
 2036TIP3    H127599   1.837   6.363  14.546  0.5352 -1.1979  1.7921
 2036TIP3    H227600   1.918   6.428  14.657 -0.4967 -0.0163  1.8790
 2037TIP3   OH227601   0.277   1.200   2.565 -0.0718  0.0462 -0.4910
 2037TIP3    H127602   0.224   1.260   2.619  1.5560 -1.0675  2.5740
 2037TIP3    H227603   0.216   1.166   2.500 -2.1680  1.5877  0.5539
 2038TIP3   OH227604   2.167   0.356   3.699 -0.3106  0.4726 -0.2029
 2038TIP3    H127605   2.136   0.271   3.730 -0.9614  0.8436  0.1935
 2038TIP3    H227606   2.176   0.408   3.779 -0.7542  1.0392 -0.5150
 2039TIP3   OH227607   3.105   1.038  13.798  0.6219 -0.3129 -0.1858
 2039TIP3    H127608   3.014   1.024  13.775 -0.0378 -0.4193  2.1728
 2039TIP3    H227609   3.148   0.954  13.782  0.3796 -0.1971 -1.5077
 2040TIP3   OH227610   2.041   5.463  11.562 -0.0740 -0.3057  0.0894
 2040TIP3    H127611   2.092   5.544  11.566  0.0605 -0.3193 -1.1173
 2040TIP3    H227612   1.989   5.464  11.643  0.9937  0.2549  0.7959
 2041TIP3   OH227613   4.216   2.334  12.015  0.1871 -0.7739  0.1546
 2041TIP3    H127614   4.137   2.280  12.009 -0.5673  0.1388  1.2035
 2041TIP3    H227615   4.256   2.307  12.098  0.0604 -0.0963  0.4471
 2042TIP3   OH227616   5.362   1.082   5.122 -0.0290  0.3168  0.1236
 2042TIP3    H127617   5.445   1.059   5.080 -1.1792 -0.5410 -1.8276
 2042TIP3    H227618   5.381   1.161   5.172  1.5540  1.1718 -1.7206
 2043TIP3   OH227619   1.896   3.673  14.790  0.7677  0.1412 -0.1220
 2043TIP3    H127620   1.929   3.703  14.875 -2.2405 -0.3992  1.3504
 2043TIP3    H227621   1.810   3.713  14.782 -0.3403 -2.3072 -1.4415
 2044TIP3   OH227622   2.183   2.748   4.903  0.1397 -0.1570 -0.2757
 2044TIP3    H127623   2.267   2.724   4.865  0.0472  1.1505 -1.4130
 2044TIP3    H227624   2.118   2.708   4.845 -0.1133 -2.7111  1.6150
 2045TIP3   OH227625   6.793   2.027   5.552  0.0924 -0.4138  0.2408
 2045TIP3    H127626   6.723   2.024   5.487 -1.7902 -1.0134  2.2059
 2045TIP3    H227627   6.857   1.962   5.521  1.2108  1.9514 -2.9767
 2046TIP3   OH227628   1.043   2.369   1.640 -0.0323 -0.6048 -0.0857
 2046TIP3    H127629   1.136   2.348   1.655 -0.6291 -2.7289  1.1352
 2046TIP3    H227630   1.033   2.367   1.545  1.3595  0.6539 -0.2925
 2047TIP3   OH227631   0.920   2.247  17.015 -0.2885  0.1938 -0.0315
 2047TIP3    H127632   1.006   2.286  17.031 -0.1365 -0.3375  0.4782
 2047TIP3    H227633   0.936   2.153  17.017 -0.5630  0.0736 -1.7102
 2048TIP3   OH227634   5.142   3.971  14.344  0.6247 -0.1403 -0.5729
 2048TIP3    H127635   5.065   4.024  14.363 -0.1004 -2.1779  3.0538
 2048TIP3    H227636   5.106   3.892  14.304  0.8517 -0.7566  0.4029
 2049TIP3   OH227637   0.730   6.806   1.872 -0.6552  0.2880 -0.3087
 2049TIP3    H127638   0.825   6.798   1.865 -0.5348  0.4667  0.8698
 2049TIP3    H227639   0.709   6.887   1.826  0.1420  1.7785  1.7702
 2050TIP3   OH227640   3.728   0.565   0.055 -0.1235 -0.1567 -0.4600
 2050TIP3    H127641   3.762   0.477   0.072  0.2736 -0.5600 -2.9386
 2050TIP3    H227642   3.661   0.578   0.122  1.6985 -1.2070  1.6587
 2051TIP3   OH227643   0.575   1.416  12.553  0.1415  0.1232 -0.7967
 2051TIP3    H127644   0.633   1.414  12.629  1.4720  1.1862 -1.7512
 2051TIP3    H227645   0.552   1.509  12.543  0.8643  0.1580 -2.3206
 2052TIP3   OH227646   0.938   4.301  14.586  0.8262  0.6493 -0.5507
 2052TIP3    H127647   0.859   4.323  14.536  1.1817 -1.4933 -2.1668
 2052TIP3    H227648   0.905   4.280  14.674 -0.0790  2.1830 -0.4824
 2053TIP3   OH227649   5.611   0.861  15.287 -0.2969  0.0511 -0.1758
 2053TIP3    H127650   5.637   0.928  15.224 -0.5756  0.9994  0.6819
 2053TIP3    H227651   5.518   0.879  15.304  0.0336  0.4990  1.2955
 2054TIP3   OH227652   6.254   3.346  12.748 -0.2051 -0.0794  0.3304
 2054TIP3    H127653   6.166   3.308  12.758 -0.3738  0.3115  0.3646
 2054TIP3    H227654   6.313   3.279  12.779 -0.3625 -1.1020 -1.4471
 2055TIP3   OH227655   3.842   0.873   3.363  0.0682 -0.7354 -0.3110
 2055TIP3    H127656   3.819   0.801   3.305  0.1438 -0.2365 -0.9827
 2055TIP3    H227657   3.927   0.903   3.331 -0.1390 -0.1072 -0.2837
 2056TIP3   OH227658   1.505   2.255  12.354  0.1683  0.9507  0.1805
 2056TIP3    H127659   1.437   2.194  12.326  0.6492  0.3687  0.2834
 2056TIP3    H227660   1.511   2.243  12.448  1.9592 -0.6250 -0.0800
 2057TIP3   OH227661   5.039   0.453  14.458 -0.8368  0.2804 -0.0659
 2057TIP3    H127662   4.986   0.504  14.519 -1.0410 -0.3587  0.2968
 2057TIP3    H227663   5.117   0.429  14.508 -0.0018  1.5349 -0.7097
 2058TIP3   OH227664   5.975   3.248  13.561 -0.0424  0.1827  0.6708
 2058TIP3    H127665   6.030   3.314  13.518 -0.0109 -0.1030  0.2702
 2058TIP3    H227666   6.012   3.240  13.649 -0.4865  1.2225  0.9661
 2059TIP3   OH227667   1.668   0.118   3.626 -0.4331 -0.5863 -0.7589
 2059TIP3    H127668   1.681   0.208   3.598 -2.3664 -0.1052 -0.2586
 2059TIP3    H227669   1.699   0.065   3.553  1.9477  0.4126 -0.5475
 2060TIP3   OH227670   1.869   0.319   1.473 -0.2226 -0.5788 -0.2600
 2060TIP3    H127671   1.825   0.323   1.558 -1.8782 -2.6987 -0.9275
 2060TIP3    H227672   1.893   0.410   1.455 -2.3429  0.3738  1.2029
 2061TIP3   OH227673   1.925   0.540  12.120 -0.2545 -0.1167  0.4177
 2061TIP3    H127674   2.005   0.570  12.163 -1.1090  0.0373  2.0065
 2061TIP3    H227675   1.858   0.604  12.146 -1.3384 -1.3947  0.9443
 2062TIP3   OH227676   1.080   3.513   6.600  0.5229  0.0864  0.0186
 2062TIP3    H127677   1.123   3.432   6.626 -0.6720 -0.6543 -0.2400
 2062TIP3    H227678   1.007   3.522   6.662 -0.3971  0.0371 -1.0397
 2063TIP3   OH227679   1.316   0.306  15.287  0.0347  0.0170 -0.2173
 2063TIP3    H127680   1.235   0.296  15.336 -0.8390  1.3301 -1.3125
 2063TIP3    H227681   1.326   0.224  15.238 -0.7431 -0.0656 -0.2354
 2064TIP3   OH227682   3.088   5.054   1.316 -0.6124 -0.2043 -0.4800
 2064TIP3    H127683   3.086   5.146   1.345  0.9462 -0.1533 -0.4328
 2064TIP3    H227684   3.025   5.051   1.244 -1.7923  0.5367  0.4710
 2065TIP3   OH227685   4.047   4.521   0.719 -0.2993  0.2081  0.5220
 2065TIP3    H127686   3.962   4.479   0.711 -0.6632  1.1073 -0.6240
 2065TIP3    H227687   4.096   4.491   0.642  0.1864  0.2446  0.8079
 2066TIP3   OH227688   2.009   4.244   0.667  0.3737  0.5717  0.5975
 2066TIP3    H127689   1.948   4.312   0.696  0.4015  0.5464  0.7154
 2066TIP3    H227690   1.983   4.166   0.715 -2.0881 -0.5520 -2.2402
 2067TIP3   OH227691   1.421   0.519  12.299 -0.3534 -0.7772  0.0556
 2067TIP3    H127692   1.500   0.504  12.352 -0.7172 -0.6144  0.6575
 2067TIP3    H227693   1.439   0.602  12.254 -0.3947 -0.4585  0.6113
 2068TIP3   OH227694   3.576   3.017  12.312  0.1085  0.1722 -0.0432
 2068TIP3    H127695   3.634   3.085  12.345 -0.1631  0.0659  0.6951
 2068TIP3    H227696   3.604   3.002  12.222  0.7521  0.6245  0.0759
 2069TIP3   OH227697   0.793   4.317   4.832  0.0859 -0.4298  0.0508
 2069TIP3    H127698   0.814   4.321   4.738  0.2420 -2.1795 -0.0093
 2069TIP3    H227699   0.809   4.226   4.856 -1.0192 -0.2480  1.5388
 2070TIP3   OH227700   0.269   5.002   4.060  0.6971  0.0329  0.1115
 2070TIP3    H127701   0.288   4.948   3.984  0.6851  0.1876 -0.0021
 2070TIP3    H227702   0.286   5.092   4.031  1.3824  0.0347  0.5018
 2071TIP3   OH227703   1.934   2.456  15.478 -0.0556 -0.2788 -0.3120
 2071TIP3    H127704   1.970   2.539  15.509 -0.8663  0.1466 -0.4767
 2071TIP3    H227705   2.010   2.406  15.449  0.3831  0.6636 -0.8168
 2072TIP3   OH227706   3.667   1.964   6.398 -0.2463 -0.0032  0.1757
 2072TIP3    H127707   3.721   1.931   6.326  0.1667 -0.2268  0.5854
 2072TIP3    H227708   3.617   1.888   6.426 -0.8286  0.2169 -0.2418
 2073TIP3   OH227709   2.309   4.381  14.312 -0.3839  0.6257 -0.2702
 2073TIP3    H127710   2.306   4.444  14.384 -0.0164  0.5689 -0.2076
 2073TIP3    H227711   2.401   4.356  14.305 -0.7034 -0.8565  0.5223
 2074TIP3   OH227712   4.713   3.573   2.987  0.0752 -0.5228  0.5453
 2074TIP3    H127713   4.627   3.541   2.961  0.7776 -1.1239 -1.1747
 2074TIP3    H227714   4.696   3.659   3.025 -1.0827  0.3983 -1.8812
 2075TIP3   OH227715   6.783   2.525   3.734  0.6500  0.7263 -0.9917
 2075TIP3    H127716   6.753   2.598   3.787  0.1095  0.0069 -0.2793
 2075TIP3    H227717   6.708   2.504   3.678  1.1800  1.4155 -1.9902
 2076TIP3   OH227718   0.428   5.783   3.413 -0.2169  0.8217 -0.9127
 2076TIP3    H127719   0.332   5.789   3.417 -0.3402 -0.2572 -1.7523
 2076TIP3    H227720   0.453   5.748   3.499 -0.5687  1.1264 -0.6828
 2077TIP3   OH227721   4.135   1.584   1.732  0.5513 -0.0944  0.6194
 2077TIP3    H127722   4.084   1.581   1.651 -0.3962  1.8483  1.0800
 2077TIP3    H227723   4.219   1.543   1.709  0.0591 -0.1855 -1.1575
 2078TIP3   OH227724   3.247   0.070   3.904 -0.6159 -0.1830 -0.9069
 2078TIP3    H127725   3.324   0.091   3.852  0.0105  0.2021  0.1502
 2078TIP3    H227726   3.239   0.142   3.967 -2.3553  0.2467 -1.5434
 2079TIP3   OH227727   2.531   6.684   3.715 -0.0661  0.3661 -0.1826
 2079TIP3    H127728   2.458   6.713   3.661 -0.8312  0.2000  0.7281
 2079TIP3    H227729   2.609   6.703   3.663 -0.7620  0.4242 -1.2267
 2080TIP3   OH227730   4.089   6.517   6.394  0.2944 -0.6251 -0.0627
 2080TIP3    H127731   4.166   6.551   6.440  0.4073 -0.5732 -0.2870
 2080TIP3    H227732   4.019   6.518   6.459  1.0300 -2.8977  0.8703
 2081TIP3   OH227733   1.856   1.083   3.397 -0.1282  0.5336  0.0369
 2081TIP3    H127734   1.923   1.120   3.455 -0.8225 -1.3933  2.2186
 2081TIP3    H227735   1.905   1.027   3.337  0.5595  2.2206 -1.0525
 2082TIP3   OH227736   0.861   5.080  14.079 -0.6826  0.2536  0.0343
 2082TIP3    H127737   0.782   5.065  14.131 -0.7494 -0.0207 -0.1407
 2082TIP3    H227738   0.834   5.058  13.989 -0.1378 -0.8321  0.1189
 2083TIP3   OH227739   4.874   4.569  11.710 -0.0410  0.2269  0.3862
 2083TIP3    H127740   4.823   4.510  11.654  0.2897 -0.2308  0.5610
 2083TIP3    H227741   4.832   4.563  11.796  0.8553 -0.8831  0.7759
 2084TIP3   OH227742   1.577   4.687   6.320  0.8898  0.2895 -0.3563
 2084TIP3    H127743   1.569   4.634   6.399 -0.9398 -0.0817 -0.7449
 2084TIP3    H227744   1.604   4.773   6.351  3.4684 -0.6743  0.3308
 2085TIP3   OH227745   5.136   4.748   1.417  0.1972  0.7649 -0.0197
 2085TIP3    H127746   5.053   4.769   1.459 -1.0001 -0.7026 -1.4931
 2085TIP3    H227747   5.143   4.652   1.426 -0.4517  0.2736 -3.5673
 2086TIP3   OH227748   4.286   0.119   2.330  0.3993  0.1011  0.3216
 2086TIP3    H127749   4.328   0.203   2.345 -1.6312  1.3397 -0.4433
 2086TIP3    H227750   4.290   0.074   2.414  0.2804  1.5744  1.1513
 2087TIP3   OH227751   6.421   0.475  15.932  0.5117 -0.7119 -0.2141
 2087TIP3    H127752   6.401   0.567  15.950 -1.4184 -0.8454 -1.4265
 2087TIP3    H227753   6.506   0.460  15.974  2.2289  2.3315 -2.2905
 2088TIP3   OH227754   3.358   6.604  13.999  0.3784  0.0936  0.2536
 2088TIP3    H127755   3.450   6.580  14.004  0.3775 -0.2499 -0.9811
 2088TIP3    H227756   3.335   6.592  13.907 -1.0215 -0.3127  0.6241
 2089TIP3   OH227757   2.729   0.381  16.668 -0.2503 -0.2999 -0.0025
 2089TIP3    H127758   2.697   0.297  16.636 -0.2354 -0.4295  0.3228
 2089TIP3    H227759   2.811   0.361  16.714  0.2041  0.0048 -0.6639
 2090TIP3   OH227760   1.244   1.900   3.135  0.4457 -0.1326  0.2303
 2090TIP3    H127761   1.312   1.836   3.157  0.6800 -0.1722 -0.5654
 2090TIP3    H227762   1.176   1.886   3.201  0.8308 -0.6763  0.5249
 2091TIP3   OH227763   6.260   2.717   2.032  0.1187  0.0312  0.2444
 2091TIP3    H127764   6.291   2.708   1.942  0.2913  1.4797  0.1312
 2091TIP3    H227765   6.178   2.765   2.025  0.4031  0.6336  0.8878
 2092TIP3   OH227766   0.037   2.662   5.117  0.3485 -0.4783 -0.3083
 2092TIP3    H127767  -0.049   2.704   5.119  0.9503  0.8307 -1.0047
 2092TIP3    H227768   0.069   2.669   5.207 -1.1632 -2.9828  0.5161
 2093TIP3   OH227769   2.798   4.437  16.924  0.4829 -0.4500 -0.2432
 2093TIP3    H127770   2.818   4.420  16.831 -0.0936  0.5295 -0.5589
 2093TIP3    H227771   2.803   4.532  16.932  0.9092 -0.5542  0.8358
 2094TIP3   OH227772   0.843   1.287   2.461  0.2744  0.4308 -0.2986
 2094TIP3    H127773   0.883   1.371   2.438  1.4659  0.9998  3.2485
 2094TIP3    H227774   0.909   1.221   2.440  0.6056  0.7226 -0.1770
 2095TIP3   OH227775   5.533   6.213   2.003 -0.1685  0.0084 -0.4088
 2095TIP3    H127776   5.534   6.238   1.910  0.5348  0.4224 -0.2958
 2095TIP3    H227777   5.442   6.225   2.030 -0.2892  0.3178 -0.9325
 2096TIP3   OH227778   1.879   4.209  14.766 -0.3350  0.2329  0.1990
 2096TIP3    H127779   1.971   4.220  14.743 -0.5058 -0.7063 -1.0564
 2096TIP3    H227780   1.832   4.228  14.685 -1.2375  0.3721  0.7373
 2097TIP3   OH227781   0.335   4.954   1.412 -0.4211  0.4327  0.4147
 2097TIP3    H127782   0.242   4.975   1.426 -0.5262 -0.9983  2.1985
 2097TIP3    H227783   0.337   4.911   1.327 -1.1233  1.9579 -0.4033
 2098TIP3   OH227784   0.697   0.285   1.818 -0.1651  0.3975 -0.0571
 2098TIP3    H127785   0.708   0.364   1.870  1.5713  0.7715 -0.9059
 2098TIP3    H227786   0.639   0.312   1.746 -0.7871  0.4769  0.4678
 2099TIP3   OH227787   2.309   2.484   0.062 -0.3001  0.3992  0.3371
 2099TIP3    H127788   2.267   2.532   0.133 -0.3978 -0.2375  0.7253
 2099TIP3    H227789   2.237   2.438   0.019 -0.0738 -0.3172  0.7052
 2100TIP3   OH227790   1.951   5.365   5.504 -0.8634  0.2405 -0.2414
 2100TIP3    H127791   1.862   5.355   5.538 -0.7172  0.5565  0.2528
 2100TIP3    H227792   2.007   5.342   5.578 -0.5332  0.1329 -0.5221
 2101TIP3   OH227793   1.088   4.789   2.936 -0.3861  0.2920  0.2800
 2101TIP3    H127794   1.171   4.791   2.888 -0.0349 -1.5413  0.7364
 2101TIP3    H227795   1.021   4.791   2.867  0.0216  1.1445 -0.1125
 2102TIP3   OH227796   2.278   4.106  14.340  0.2737  0.2232  0.3744
 2102TIP3    H127797   2.262   4.200  14.334  1.6348  0.4342 -0.2382
 2102TIP3    H227798   2.197   4.071  14.377  0.0033  1.7061  1.2802
 2103TIP3   OH227799   3.824   4.410  11.298 -0.1030  0.2951 -0.1895
 2103TIP3    H127800   3.734   4.445  11.299 -0.0070  0.5526 -0.3605
 2103TIP3    H227801   3.851   4.418  11.206  0.0302  0.0497 -0.1698
 2104TIP3   OH227802   6.772   0.833  14.756  0.6902 -0.2130 -0.1709
 2104TIP3    H127803   6.856   0.835  14.710  0.7750  0.3536 -0.0077
 2104TIP3    H227804   6.707   0.845  14.687  0.6666 -1.6613 -0.4352
 2105TIP3   OH227805   4.691   2.057   2.645 -0.0375 -0.1216  0.4725
 2105TIP3    H127806   4.774   2.066   2.691  0.0172 -2.2767  0.9161
 2105TIP3    H227807   4.712   2.074   2.553  0.4341  1.3640  0.8210
 2106TIP3   OH227808   5.107   5.623   2.856  0.1490  0.0692 -0.3972
 2106TIP3    H127809   5.115   5.609   2.761  1.6372  2.6052 -0.7442
 2106TIP3    H227810   5.164   5.698   2.873 -1.7627  1.0725  2.1710
 2107TIP3   OH227811   1.737   5.062   0.738 -0.3755 -0.1032 -0.6012
 2107TIP3    H127812   1.699   5.022   0.816  0.8984  0.1565  0.1814
 2107TIP3    H227813   1.820   5.017   0.726  0.9352  1.9912  0.0919
 2108TIP3   OH227814   3.476   6.481   6.210 -0.1449 -0.4505  0.4375
 2108TIP3    H127815   3.502   6.507   6.122  0.0696 -0.1754  0.5816
 2108TIP3    H227816   3.383   6.461   6.202 -0.0532 -0.7332  0.0811
 2109TIP3   OH227817   1.682   3.529   2.936 -0.9238  0.4116  0.1246
 2109TIP3    H127818   1.766   3.509   2.978 -1.3285  0.8150  1.1482
 2109TIP3    H227819   1.683   3.476   2.856  0.5211  0.8018 -0.1469
 2110TIP3   OH227820   4.944   6.046  16.608  0.3704 -0.1385  0.3274
 2110TIP3    H127821   4.917   5.966  16.653  2.5198 -0.7113  0.6745
 2110TIP3    H227822   5.022   6.022  16.558 -0.2079  1.2297 -1.3434
 2111TIP3   OH227823   1.029   4.217   2.420  0.0055 -0.0078 -0.0465
 2111TIP3    H127824   0.990   4.304   2.435 -0.0239 -0.0122 -0.1007
 2111TIP3    H227825   1.048   4.185   2.508  0.1616  0.1196 -0.0336
 2112TIP3   OH227826   5.497   1.749  10.998 -0.2080 -0.5765  0.4091
 2112TIP3    H127827   5.541   1.710  10.922  0.6493 -1.8074  1.4906
 2112TIP3    H227828   5.445   1.821  10.961  0.9231 -0.5289 -1.2193
 2113TIP3   OH227829   0.874   1.524  12.340 -0.0755  0.1363 -0.5470
 2113TIP3    H127830   0.925   1.443  12.344  0.5177  0.5395  0.6424
 2113TIP3    H227831   0.790   1.501  12.378  1.0156  0.6823  2.4496
 2114TIP3   OH227832   3.596   4.284  16.872  0.6630  0.4073  0.2574
 2114TIP3    H127833   3.568   4.211  16.927  1.9721  1.1022  1.9441
 2114TIP3    H227834   3.540   4.357  16.898 -0.5731  0.0841 -1.3492
 2115TIP3   OH227835   6.681   2.443   0.393  0.1224 -0.2199 -0.8215
 2115TIP3    H127836   6.695   2.501   0.319 -0.3719  0.3482 -0.4825
 2115TIP3    H227837   6.644   2.500   0.461 -0.7494 -1.0078 -0.6163
 2116TIP3   OH227838   3.627   1.519  16.942 -0.3547  0.2052 -0.9181
 2116TIP3    H127839   3.702   1.578  16.955  1.2369 -1.9258  0.2923
 2116TIP3    H227840   3.638   1.486  16.852 -1.5991  2.0869 -1.8299
 2117TIP3   OH227841   2.806   4.299   3.900 -0.1507 -0.6463  0.1717
 2117TIP3    H127842   2.786   4.378   3.950  0.0514  0.0894 -0.8720
 2117TIP3    H227843   2.767   4.228   3.951 -1.9803  0.3218  0.1975
 2118TIP3   OH227844   1.305   6.684  17.149  0.8066 -0.2942 -0.2915
 2118TIP3    H127845   1.298   6.622  17.221  2.8533 -1.2119 -0.8077
 2118TIP3    H227846   1.305   6.770  17.191 -0.8686 -0.6561  0.5283
 2119TIP3   OH227847   3.320   4.166  14.017 -0.2337  0.2713  0.0661
 2119TIP3    H127848   3.374   4.170  13.938  2.4862  1.4758  1.8263
 2119TIP3    H227849   3.236   4.205  13.990  0.1792 -0.3943 -2.4636
 2120TIP3   OH227850   5.174   6.682  11.661  0.1482 -0.5675 -0.4549
 2120TIP3    H127851   5.150   6.774  11.672  1.2952 -0.3381  0.3984
 2120TIP3    H227852   5.211   6.657  11.746 -0.6910 -2.0071 -0.4654
 2121TIP3   OH227853   0.924   6.775   5.706  0.1499 -0.7761  0.2195
 2121TIP3    H127854   0.922   6.796   5.799 -0.9136  0.0666  0.0297
 2121TIP3    H227855   1.005   6.815   5.674 -0.3478  0.4966  0.4644
 2122TIP3   OH227856   3.708   1.986  15.102 -0.2954 -0.3007 -0.2325
 2122TIP3    H127857   3.660   2.000  15.184 -0.7143 -1.5615 -0.2516
 2122TIP3    H227858   3.671   2.051  15.041  0.2461  0.8715  0.6412
 2123TIP3   OH227859   4.060   0.067   3.600  0.5624  0.1884 -0.2242
 2123TIP3    H127860   4.126   0.125   3.636  0.3793  0.4668 -0.3295
 2123TIP3    H227861   4.064   0.081   3.506 -1.4345  2.2120 -0.0948
 2124TIP3   OH227862   5.824   3.942   5.527  0.6655 -0.3189 -0.1861
 2124TIP3    H127863   5.745   3.991   5.504  0.6352 -0.5620 -0.6013
 2124TIP3    H227864   5.891   4.010   5.539  0.2858 -0.0739  0.6610
 2125TIP3   OH227865   3.946   5.886   0.842  0.3183 -0.1623  0.2146
 2125TIP3    H127866   3.983   5.884   0.931  0.7862 -0.2820  0.0234
 2125TIP3    H227867   3.935   5.794   0.819  0.9721 -0.1551 -0.1589
 2126TIP3   OH227868   3.567   3.611  13.003  0.0107 -0.2945  0.3585
 2126TIP3    H127869   3.659   3.615  12.977  0.0942 -3.0350 -0.1335
 2126TIP3    H227870   3.569   3.572  13.091 -0.6949 -0.9287  0.1003
 2127TIP3   OH227871   5.044   1.084  12.841 -0.7446  0.3704  0.4193
 2127TIP3    H127872   4.993   1.133  12.906 -0.6684  1.5676 -0.3862
 2127TIP3    H227873   5.022   0.992  12.857 -1.9475  0.7575  1.1031
 2128TIP3   OH227874   6.078   6.138   0.286 -0.2806 -0.6019 -0.2190
 2128TIP3    H127875   6.005   6.200   0.299  0.1196  0.0598 -1.0061
 2128TIP3    H227876   6.046   6.076   0.220 -0.5409 -0.9991  0.2799
 2129TIP3   OH227877   0.168   1.395  12.823 -0.3784 -0.3854 -0.0607
 2129TIP3    H127878   0.168   1.381  12.729 -0.4074  1.3678 -0.3561
 2129TIP3    H227879   0.261   1.398  12.847 -0.2590  1.7355 -0.5220
 2130TIP3   OH227880   6.748   3.533  11.237  0.5020  0.1244  0.3715
 2130TIP3    H127881   6.676   3.474  11.260  0.4707  0.5288  1.3413
 2130TIP3    H227882   6.718   3.578  11.158 -0.2756  0.2096  0.7068
 2131TIP3   OH227883   0.770   4.442  11.244 -0.1803  0.6074 -0.3766
 2131TIP3    H127884   0.699   4.379  11.253  1.0044 -0.7646 -0.2382
 2131TIP3    H227885   0.731   4.516  11.197 -1.3255 -0.7396 -1.6329
 2132TIP3   OH227886   0.779   6.746   1.568  0.1599  0.2992  0.0464
 2132TIP3    H127887   0.696   6.757   1.615 -0.7391  0.0709 -1.4309
 2132TIP3    H227888   0.778   6.655   1.539  1.2206  0.1233  0.4989
 2133TIP3   OH227889   4.842   2.157  16.876 -0.6735 -0.4764 -0.2451
 2133TIP3    H127890   4.897   2.120  16.806  0.2493  3.1552 -1.7110
 2133TIP3    H227891   4.765   2.190  16.830 -1.2225 -0.1974  0.8597
 2134TIP3   OH227892   5.231   5.125   1.156 -0.8190  0.5614  0.5469
 2134TIP3    H127893   5.300   5.143   1.092  1.1741 -2.9850  1.4130
 2134TIP3    H227894   5.150   5.129   1.106 -0.0056  3.8097 -0.7672
 2135TIP3   OH227895   1.834   5.345  14.516  0.3509 -0.4073  0.8482
 2135TIP3    H127896   1.928   5.340  14.502  0.4188  1.8864  0.0729
 2135TIP3    H227897   1.824   5.348  14.612  1.1338  0.1123  0.9200
 2136TIP3   OH227898   1.409   1.201   2.730 -0.7434 -0.1035 -0.1481
 2136TIP3    H127899   1.457   1.256   2.668  0.2713 -0.0372  0.6769
 2136TIP3    H227900   1.396   1.118   2.683  1.5057 -0.6611  0.1107
 2137TIP3   OH227901   5.196   1.959  12.752  0.1521  0.5278  0.0078
 2137TIP3    H127902   5.248   2.010  12.691  1.1472 -0.3315  0.1005
 2137TIP3    H227903   5.114   1.941  12.705  1.6316 -1.8046 -1.9588
 2138TIP3   OH227904   2.563   1.457  16.504 -0.0930  0.1992  0.1210
 2138TIP3    H127905   2.649   1.496  16.520  0.2560 -1.5007  3.1769
 2138TIP3    H227906   2.503   1.509  16.558 -0.8610  0.7502 -1.2122
 2139TIP3   OH227907   5.752   2.785   1.541  0.2757  0.3651 -0.4190
 2139TIP3    H127908   5.756   2.749   1.452 -1.2233  0.9157 -0.7323
 2139TIP3    H227909   5.661   2.773   1.567  0.6679  0.3665  0.9972
 2140TIP3   OH227910   3.477   2.987  11.421 -0.4152  0.6427  0.2654
 2140TIP3    H127911   3.531   3.062  11.396 -0.5080  0.4301 -0.6244
 2140TIP3    H227912   3.457   3.001  11.513  1.6492  0.4088  0.7817
 2141TIP3   OH227913   6.744   2.262   3.351 -0.1618  0.6081  0.2538
 2141TIP3    H127914   6.795   2.324   3.300 -1.4858  2.0568  0.6243
 2141TIP3    H227915   6.808   2.214   3.403  0.8992  1.5090 -0.1989
 2142TIP3   OH227916   6.559   4.599  14.366  0.5354  0.1457 -0.8265
 2142TIP3    H127917   6.549   4.512  14.330 -1.0584 -0.3321  0.6441
 2142TIP3    H227918   6.589   4.653  14.293 -0.3690 -1.2223 -2.2479
 2143TIP3   OH227919   1.611   5.408  16.471  0.4552 -0.3695 -0.5383
 2143TIP3    H127920   1.641   5.497  16.453 -1.2171 -0.0165 -1.9345
 2143TIP3    H227921   1.619   5.362  16.387 -1.2465 -0.6932 -0.5735
 2144TIP3   OH227922   4.875   2.585  16.672 -0.0907  0.8723 -0.2243
 2144TIP3    H127923   4.919   2.643  16.734 -0.3911  0.3095  0.5271
 2144TIP3    H227924   4.930   2.587  16.594  1.1040  0.4506  0.5741
 2145TIP3   OH227925   1.925   0.355  14.604  0.5755 -0.5385  0.5121
 2145TIP3    H127926   1.911   0.420  14.535  0.3753 -1.0552  0.0572
 2145TIP3    H227927   1.839   0.340  14.641  0.5973 -0.6479  0.5193
 2146TIP3   OH227928   5.038   1.655   3.666 -0.5944  0.2930 -0.1261
 2146TIP3    H127929   4.968   1.714   3.637  0.7730  2.1705  0.2228
 2146TIP3    H227930   5.092   1.708   3.724  0.7846 -1.2852  0.1141
 2147TIP3   OH227931   6.540   3.620  14.699 -0.6540 -0.7401 -0.2105
 2147TIP3    H127932   6.456   3.662  14.682 -1.0572 -0.4182  2.2272
 2147TIP3    H227933   6.597   3.690  14.731  0.1873 -1.1670 -0.7233
 2148TIP3   OH227934   5.379   0.242  12.023  0.2728 -0.1174  0.6463
 2148TIP3    H127935   5.399   0.285  11.940  0.5428  0.8785  1.2061
 2148TIP3    H227936   5.350   0.155  11.998  2.1314 -0.4943 -0.4016
 2149TIP3   OH227937   5.650   5.031   0.939 -0.6438 -0.2264  0.0707
 2149TIP3    H127938   5.626   5.002   1.027 -0.9168 -0.8961 -0.2163
 2149TIP3    H227939   5.729   4.980   0.918  0.7098  1.4754  0.7440
 2150TIP3   OH227940   4.513   2.208  15.644  0.1388  0.8078  0.4016
 2150TIP3    H127941   4.427   2.174  15.668  0.1424 -0.2116 -0.9626
 2150TIP3    H227942   4.535   2.165  15.562  3.1951 -1.0951  2.0237
 2151TIP3   OH227943   4.684   1.207  16.802  0.3643 -0.0565  0.3021
 2151TIP3    H127944   4.757   1.268  16.819 -0.4805  2.1731 -2.9687
 2151TIP3    H227945   4.621   1.225  16.872  1.6759  0.1088  1.4947
 2152TIP3   OH227946   5.832   5.208  15.141  0.0161 -0.3866 -0.2248
 2152TIP3    H127947   5.925   5.210  15.120 -0.7034  0.0478 -4.1892
 2152TIP3    H227948   5.813   5.296  15.174  0.7307  0.1476 -1.1616
 2153TIP3   OH227949   2.587   4.522   1.407 -0.3316  0.5439 -0.0366
 2153TIP3    H127950   2.648   4.453   1.436 -0.0475  0.5527 -0.6049
 2153TIP3    H227951   2.531   4.537   1.483  0.3299  0.4831  0.4760
 2154TIP3   OH227952   3.804   5.371  14.151 -0.1055 -0.0839 -0.6035
 2154TIP3    H127953   3.893   5.341  14.166 -1.0495 -2.4393  0.9492
 2154TIP3    H227954   3.803   5.461  14.182  1.2974 -0.6197  1.1573
 2155TIP3   OH227955   0.436   1.065   5.963  0.2936 -0.2123  0.7220
 2155TIP3    H127956   0.368   1.070   5.896  1.1342  0.1877 -0.1250
 2155TIP3    H227957   0.512   1.109   5.924  1.9015 -2.9075  0.5972
 2156TIP3   OH227958   0.625   6.194   0.169  0.7553 -0.4719 -0.2918
 2156TIP3    H127959   0.572   6.273   0.165 -1.2814 -1.8081 -2.4432
 2156TIP3    H227960   0.685   6.201   0.095  0.3700 -1.0291 -0.6688
 2157TIP3   OH227961   5.128   5.402  15.015  0.2613 -0.4097 -0.0271
 2157TIP3    H127962   5.043   5.358  15.018  0.4531 -1.0856 -2.4926
 2157TIP3    H227963   5.113   5.486  15.057 -1.5363 -0.6553 -0.1142
 2158TIP3   OH227964   1.549   4.852   0.613  0.2291  0.0483 -0.4590
 2158TIP3    H127965   1.601   4.801   0.675  0.4468  0.1109 -0.5927
 2158TIP3    H227966   1.482   4.894   0.668 -1.7963 -2.6337 -0.6695
 2159TIP3   OH227967   6.062   6.590   4.012  0.5490 -0.1271  0.2839
 2159TIP3    H127968   6.073   6.634   3.928  0.7155  0.2990  0.5290
 2159TIP3    H227969   6.003   6.647   4.061  0.9301 -0.0707  0.6779
 2160TIP3   OH227970   4.080   1.101  12.129 -0.1744  0.1351  0.1658
 2160TIP3    H127971   4.075   1.006  12.121  1.0058  0.0176  0.6040
 2160TIP3    H227972   4.173   1.119  12.143 -0.5963  1.2174  1.8490
 2161TIP3   OH227973   6.616   1.023  14.921  0.3485  0.0093 -0.3601
 2161TIP3    H127974   6.683   0.965  14.885  2.5458  1.7554  0.6663
 2161TIP3    H227975   6.577   1.065  14.844  0.3308 -1.0779 -0.9730
 2162TIP3   OH227976   1.152   4.948   0.984  0.1405  0.6426  0.2643
 2162TIP3    H127977   1.090   4.979   0.918  1.8313 -0.3035 -1.8856
 2162TIP3    H227978   1.184   5.028   1.026  0.4002  1.4450 -1.3853
 2163TIP3   OH227979   1.945   0.290   3.248  0.2097  0.0582  0.5507
 2163TIP3    H127980   1.937   0.201   3.283 -1.0360  0.4198  1.2241
 2163TIP3    H227981   2.008   0.333   3.307  1.2695 -0.5182 -0.1211
 2164TIP3   OH227982   0.007   4.797   0.945  0.6114 -0.2210 -0.0610
 2164TIP3    H127983   0.017   4.799   0.850 -0.5565  1.5222 -0.1913
 2164TIP3    H227984  -0.008   4.704   0.966  2.2389 -0.8349 -1.3835
 2165TIP3   OH227985   6.821   6.400   3.135 -0.2402 -0.1996  0.4503
 2165TIP3    H127986   6.882   6.421   3.206 -0.1621  0.1143  0.2900
 2165TIP3    H227987   6.876   6.358   3.069 -0.2743 -0.2964  0.4838
 2166TIP3   OH227988   2.612   0.419  16.008 -0.0160 -0.2625  0.3980
 2166TIP3    H127989   2.693   0.428  15.958 -0.0081  0.4027  0.5236
 2166TIP3    H227990   2.552   0.481  15.967  0.1683  0.7154  1.5716
 2167TIP3   OH227991   5.955   2.339   2.591  0.2966 -0.6547  0.1222
 2167TIP3    H127992   5.979   2.324   2.682  0.7700 -0.7087 -0.0122
 2167TIP3    H227993   6.037   2.356   2.546  0.2504 -2.0877 -0.5798
 2168TIP3   OH227994   1.455   5.607  11.380 -0.1542  0.5121  0.4922
 2168TIP3    H127995   1.436   5.606  11.286 -0.4957 -1.5159  0.5402
 2168TIP3    H227996   1.467   5.700  11.401 -1.8134  1.1818 -1.1995
 2169TIP3   OH227997   3.426   5.129   0.727  0.5092  0.5761 -0.0718
 2169TIP3    H127998   3.345   5.119   0.677  0.8594  0.1323 -0.5638
 2169TIP3    H227999   3.420   5.062   0.795  0.5866  0.3643 -0.2741
 2170TIP3   OH228000   1.005   2.505   3.813 -0.2260  0.0444 -0.2285
 2170TIP3    H128001   0.933   2.516   3.751 -2.2426 -0.3904  1.9022
 2170TIP3    H228002   1.066   2.446   3.769 -1.2855  0.1807 -1.9830
 2171TIP3   OH228003   4.872   4.779  13.867  0.0915 -0.4089 -0.0237
 2171TIP3    H128004   4.808   4.824  13.812 -0.5018 -0.3212  0.7200
 2171TIP3    H228005   4.860   4.817  13.954  0.2639 -1.2982  0.4000
 2172TIP3   OH228006   3.013   0.022  13.402 -0.2403 -0.3078 -0.4407
 2172TIP3    H128007   3.018   0.055  13.491  0.0017 -0.8358 -0.2543
 2172TIP3    H228008   3.013   0.101  13.347 -0.3334  0.0167  0.0192
 2173TIP3   OH228009   4.287   3.442   6.310  0.3262 -0.2382  0.4133
 2173TIP3    H128010   4.236   3.493   6.246 -0.1567  1.5423  2.1257
 2173TIP3    H228011   4.261   3.478   6.395  3.2248 -0.4130  1.4651
 2174TIP3   OH228012   1.108   0.810   1.535 -0.1287  0.4147  0.5288
 2174TIP3    H128013   1.181   0.810   1.596  1.4779  3.3198 -1.1613
 2174TIP3    H228014   1.053   0.884   1.561 -0.7409  0.1930 -0.0772
 2175TIP3   OH228015   4.029   2.001  12.827 -0.3660 -0.7386 -0.0597
 2175TIP3    H128016   4.004   2.013  12.919  0.1428 -1.3747  0.1704
 2175TIP3    H228017   3.975   2.064  12.779  0.7759  1.0636  0.8866
 2176TIP3   OH228018   1.111   3.084  14.666 -0.2563 -0.8619  0.3577
 2176TIP3    H128019   1.094   3.167  14.711 -1.3785 -0.3547 -0.9463
 2176TIP3    H228020   1.027   3.038  14.668 -0.6663 -0.3805 -2.0188
 2177TIP3   OH228021   0.707   0.508  14.780 -0.0528 -0.5972 -0.6444
 2177TIP3    H128022   0.759   0.585  14.804  0.2346 -0.4277 -1.7527
 2177TIP3    H228023   0.617   0.538  14.784 -0.2002 -1.1601  2.2631
 2178TIP3   OH228024   1.606   5.442  11.892  0.2553 -0.1277  0.3929
 2178TIP3    H128025   1.550   5.517  11.914  0.2668  0.0634 -0.2040
 2178TIP3    H228026   1.548   5.383  11.844  0.8202  0.5970 -1.2695
 2179TIP3   OH228027   0.418   1.397  12.923  0.2582 -0.6823 -0.4160
 2179TIP3    H128028   0.433   1.387  13.017 -1.2893  0.3581 -0.0217
 2179TIP3    H228029   0.488   1.454  12.893 -0.5985  0.9803  0.6121
 2180TIP3   OH228030   6.237   5.201  12.632 -0.1557  0.1803  0.4066
 2180TIP3    H128031   6.252   5.108  12.648 -0.6649  0.1299  0.6223
 2180TIP3    H228032   6.165   5.203  12.569  0.0630  0.4219  0.1676
 2181TIP3   OH228033   4.152   2.462  15.886 -0.4156 -0.3731  0.2241
 2181TIP3    H128034   4.063   2.479  15.916  0.0689  4.8355 -0.3495
 2181TIP3    H228035   4.148   2.472  15.791  0.8522  1.2993  0.2881
 2182TIP3   OH228036   1.552   1.108  11.068  0.2764 -0.4627 -0.4325
 2182TIP3    H128037   1.461   1.092  11.091  0.1103  1.7642  0.7201
 2182TIP3    H228038   1.602   1.059  11.133 -0.1471  0.3165  0.5059
 2183TIP3   OH228039   6.281   2.150   3.930  0.2167 -0.1988 -0.2103
 2183TIP3    H128040   6.361   2.203   3.931 -0.3073  0.6085  1.0133
 2183TIP3    H228041   6.284   2.102   4.013 -0.0894 -0.9116 -0.6051
 2184TIP3   OH228042   5.875   6.314   3.758  0.1935 -0.4620 -0.1873
 2184TIP3    H128043   5.910   6.227   3.780  1.3630  0.2774  1.0469
 2184TIP3    H228044   5.941   6.352   3.700 -0.1945 -0.2939 -0.5190
 2185TIP3   OH228045   5.993   4.523   6.592 -1.2300 -0.5457 -0.5050
 2185TIP3    H128046   5.937   4.559   6.523 -1.3607 -1.6939 -1.0199
 2185TIP3    H228047   5.941   4.531   6.671 -2.4674 -2.2020 -1.0758
 2186TIP3   OH228048   3.122   0.591  11.706  0.1076 -0.2193 -0.1879
 2186TIP3    H128049   3.067   0.617  11.632  0.7481  0.8014 -0.3249
 2186TIP3    H228050   3.192   0.657  11.709  2.1732 -2.2328 -0.9161
 2187TIP3   OH228051   0.822   0.023  11.224 -0.3292 -0.4115  0.1592
 2187TIP3    H128052   0.808   0.038  11.131 -1.5043  1.3741  0.5910
 2187TIP3    H228053   0.859   0.105  11.257  0.6899 -1.2320  1.1771
 2188TIP3   OH228054   3.790   1.834  11.560  0.0395 -0.0915  0.0971
 2188TIP3    H128055   3.772   1.808  11.470  1.4567  0.6817 -0.4368
 2188TIP3    H228056   3.707   1.871  11.591 -0.5967 -0.7861 -0.7211
 2189TIP3   OH228057   6.655   5.661   1.550 -0.0857 -0.1589  0.2342
 2189TIP3    H128058   6.620   5.683   1.464 -0.5086 -0.5503  0.3089
 2189TIP3    H228059   6.600   5.709   1.612  1.8890  2.4201  0.2098
 2190TIP3   OH228060   0.472   1.274   0.729 -0.1640  0.3951  0.2329
 2190TIP3    H128061   0.392   1.299   0.682 -0.2261 -1.4527 -0.7380
 2190TIP3    H228062   0.461   1.180   0.747  0.8902  0.5466  1.9364
 2191TIP3   OH228063   5.690   3.875   1.020 -0.2029  0.2762  0.7145
 2191TIP3    H128064   5.718   3.785   1.041 -0.8350 -0.0403  0.2463
 2191TIP3    H228065   5.608   3.863   0.972 -0.0509  1.0904  0.2413
 2192TIP3   OH228066   1.760   1.568  14.949 -0.0274 -0.2381  0.0828
 2192TIP3    H128067   1.785   1.625  15.021 -0.4506  0.6325 -0.4435
 2192TIP3    H228068   1.800   1.608  14.872 -1.6205  0.2735 -0.5290
 2193TIP3   OH228069   0.583   3.781   2.361  0.1986 -0.2964 -0.1338
 2193TIP3    H128070   0.601   3.713   2.425  0.0629  1.7547  2.2047
 2193TIP3    H228071   0.669   3.819   2.342  0.0833 -0.0898 -0.2494
 2194TIP3   OH228072   5.970   0.626  14.736  0.1418  0.0266  0.0803
 2194TIP3    H128073   5.980   0.721  14.734 -0.0071  0.0510  0.3866
 2194TIP3    H228074   6.038   0.594  14.677 -0.1890  0.3475 -0.4920
 2195TIP3   OH228075   6.678   2.190   2.961  0.7771  0.3538  0.3323
 2195TIP3    H128076   6.643   2.140   2.888 -0.3957  1.3737  0.1602
 2195TIP3    H228077   6.611   2.185   3.029  0.9785  1.0233  0.5921
 2196TIP3   OH228078   2.177   0.631   0.957  0.1076 -0.0305  0.1540
 2196TIP3    H128079   2.179   0.537   0.974  0.4871 -0.3382 -1.4110
 2196TIP3    H228080   2.110   0.665   1.017  0.2497 -1.2238  1.0261
 2197TIP3   OH228081   1.849   2.330  13.513 -0.0308 -0.0014  0.2694
 2197TIP3    H128082   1.926   2.384  13.531 -1.3468  1.6795  1.1370
 2197TIP3    H228083   1.799   2.332  13.595 -1.4163 -0.3436 -0.5408
 2198TIP3   OH228084   3.866   1.901   1.563 -0.2533 -0.1874 -0.6222
 2198TIP3    H128085   3.914   1.878   1.642 -0.1909  1.4004 -0.1542
 2198TIP3    H228086   3.825   1.986   1.583 -3.3701 -1.4744 -0.9435
 2199TIP3   OH228087   4.828   2.615   5.541 -1.0442 -0.1914 -0.6104
 2199TIP3    H128088   4.884   2.545   5.575  0.2329  0.7446 -0.6848
 2199TIP3    H228089   4.755   2.620   5.602 -0.1385 -0.2834  0.5026
 2200TIP3   OH228090   3.063   5.906   5.507  0.4935  0.3086  0.1245
 2200TIP3    H128091   3.111   5.898   5.425 -0.1800 -0.6438 -0.1803
 2200TIP3    H228092   3.129   5.892   5.575  0.7015 -0.7262 -0.2867
 2201TIP3   OH228093   0.839   5.928  15.184 -0.0880  0.0687 -0.4085
 2201TIP3    H128094   0.902   5.925  15.256 -0.6139  1.0686  0.1071
 2201TIP3    H228095   0.888   5.966  15.111  0.6581 -1.6068 -0.8351
 2202TIP3   OH228096   2.750   4.058  12.406  0.3410  0.0442 -0.1361
 2202TIP3    H128097   2.810   4.120  12.446  0.3254 -0.1197  0.1412
 2202TIP3    H228098   2.794   4.032  12.325 -0.8690  2.4955 -1.6977
 2203TIP3   OH228099   3.476   5.903   4.428  0.3104 -0.0762  0.5221
 2203TIP3    H128100   3.519   5.864   4.505  1.4754  2.2327  1.1201
 2203TIP3    H228101   3.542   5.900   4.360  0.2646  0.4670  0.4536
 2204TIP3   OH228102   2.966   6.082  12.390 -0.5325  0.4087 -0.0841
 2204TIP3    H128103   2.936   6.087  12.481 -2.5829 -0.4157 -0.6462
 2204TIP3    H228104   2.964   5.989  12.370 -0.3199  0.6064 -1.0488
 2205TIP3   OH228105   1.121   3.559  10.750  0.3038 -0.3198 -0.3797
 2205TIP3    H128106   1.122   3.473  10.793  1.6456  0.4139  1.1635
 2205TIP3    H228107   1.071   3.615  10.809  0.0624  0.1495 -1.0205
 2206TIP3   OH228108   0.761   2.083   1.430 -0.3533  0.2240  0.0819
 2206TIP3    H128109   0.815   2.064   1.507 -1.1835 -0.6096  0.4850
 2206TIP3    H228110   0.817   2.136   1.373 -0.0452  1.6899  1.6832
 2207TIP3   OH228111   3.838   6.031  11.367 -0.1031  0.2376 -0.2320
 2207TIP3    H128112   3.885   6.112  11.345 -0.3967  0.3569 -0.4420
 2207TIP3    H228113   3.792   6.008  11.286  1.4065 -1.1582 -0.7363
 2208TIP3   OH228114   0.908   1.396  14.994  0.6511 -0.0658 -1.0616
 2208TIP3    H128115   0.905   1.477  15.044  1.3372  0.3526 -1.6802
 2208TIP3    H228116   0.938   1.330  15.056 -0.3980  0.0413 -0.4246
 2209TIP3   OH228117   3.802   6.285  15.565 -0.3694  0.1498  0.8019
 2209TIP3    H128118   3.881   6.303  15.615  0.7547 -1.6805 -0.2147
 2209TIP3    H228119   3.824   6.209  15.512 -1.3449  2.0428 -2.6626
 2210TIP3   OH228120   1.685   6.232  10.893 -0.3387  0.2239 -0.6066
 2210TIP3    H128121   1.777   6.218  10.871 -0.1477 -1.6669  1.0138
 2210TIP3    H228122   1.641   6.242  10.809  1.1479 -0.3548 -1.4891
 2211TIP3   OH228123   5.069   0.846   0.354 -0.5657 -0.2871 -0.3163
 2211TIP3    H128124   4.992   0.902   0.341 -0.7999 -0.5296  0.0184
 2211TIP3    H228125   5.033   0.757   0.360 -0.1162 -0.5975 -1.7958
 2212TIP3   OH228126   0.308   4.901   2.607  0.4009 -0.5050  0.3508
 2212TIP3    H128127   0.234   4.886   2.549  0.3853  0.5954  0.0552
 2212TIP3    H228128   0.385   4.871   2.558  0.1736 -1.5294  0.6091
 2213TIP3   OH228129   1.918   2.145   0.617 -0.1791 -0.3595 -0.3099
 2213TIP3    H128130   1.835   2.165   0.659 -0.2336 -1.2177  0.0118
 2213TIP3    H228131   1.919   2.050   0.608  0.7803 -0.3679 -0.2857
 2214TIP3   OH228132   3.323   5.329  13.453  0.1425  0.0543 -0.2199
 2214TIP3    H128133   3.308   5.423  13.442 -0.7713 -0.2538 -2.0974
 2214TIP3    H228134   3.316   5.314  13.547 -0.3588  1.7511  0.0522
 2215TIP3   OH228135   5.380   4.413  11.302  0.1492  0.3027  0.3069
 2215TIP3    H128136   5.432   4.383  11.227  0.3380  0.6661  0.2893
 2215TIP3    H228137   5.301   4.450  11.264  1.0019  2.0778  0.1503
 2216TIP3   OH228138   0.453   6.601  12.516  0.1498 -0.7152  0.0096
 2216TIP3    H128139   0.505   6.681  12.526  1.0930 -1.4158  0.8922
 2216TIP3    H228140   0.434   6.573  12.605 -0.1504 -1.5005 -0.2915
 2217TIP3   OH228141   6.773   1.958  10.989 -0.0978 -0.4198  0.1541
 2217TIP3    H128142   6.817   2.034  11.026 -0.2610 -0.1201 -0.2605
 2217TIP3    H228143   6.795   1.961  10.896  1.6028 -2.0324  0.4473
 2218TIP3   OH228144   2.023   3.529   4.284  0.4289 -0.1883 -0.0968
 2218TIP3    H128145   1.989   3.439   4.288  0.6225 -0.2158  1.3985
 2218TIP3    H228146   2.057   3.546   4.372  1.7102  0.8530 -0.7593
 2219TIP3   OH228147   4.342   4.467   4.317 -0.1374 -0.0685  0.3622
 2219TIP3    H128148   4.412   4.408   4.291 -1.5411 -1.0849 -1.2781
 2219TIP3    H228149   4.305   4.500   4.235 -1.5657  0.4619  1.1689
 2220TIP3   OH228150   6.370   0.285  12.832  0.0316 -0.7697  0.4110
 2220TIP3    H128151   6.360   0.213  12.895 -1.6384 -2.1996 -1.3457
 2220TIP3    H228152   6.462   0.310  12.838  0.2462 -1.8275  2.3551
 2221TIP3   OH228153   1.508   6.109  14.495 -0.0855  0.3798 -0.0131
 2221TIP3    H128154   1.518   6.023  14.453 -0.8218 -0.0049  0.5713
 2221TIP3    H228155   1.592   6.153  14.480  0.2389 -0.3732 -0.4714
 2222TIP3   OH228156   2.239   5.863  14.920 -0.3442  0.6782 -0.2794
 2222TIP3    H128157   2.236   5.938  14.979 -1.7936  1.6185 -1.4545
 2222TIP3    H228158   2.220   5.787  14.976 -2.1260  1.5863  0.4471
 2223TIP3   OH228159   2.061   5.101  13.621 -0.5579 -0.0267  0.0773
 2223TIP3    H128160   1.967   5.107  13.641 -0.6402  3.4218 -0.6939
 2223TIP3    H228161   2.065   5.052  13.539 -1.5597 -1.2702  0.7506
 2224TIP3   OH228162   4.290   6.431  12.253  0.0471  0.6828  0.2080
 2224TIP3    H128163   4.288   6.353  12.308  0.6275  0.2061 -0.4188
 2224TIP3    H228164   4.381   6.437  12.223 -0.3539  0.6267 -1.1061
 2225TIP3   OH228165   0.080   4.591   1.907  0.2235  0.5954  0.5127
 2225TIP3    H128166   0.053   4.572   1.817  0.6535  1.3048  0.2234
 2225TIP3    H228167   0.073   4.507   1.953 -1.5244  0.5568  0.2171
 2226TIP3   OH228168   4.965   3.248   2.693  0.8391  0.4444 -0.0457
 2226TIP3    H128169   4.966   3.266   2.787  1.0290  0.7436 -0.1049
 2226TIP3    H228170   4.872   3.234   2.673  0.8369 -0.0004  0.2534
 2227TIP3   OH228171   3.586   6.272   3.455 -0.2148  0.0471 -0.1031
 2227TIP3    H128172   3.643   6.346   3.474  0.0743  0.1879 -1.3836
 2227TIP3    H228173   3.619   6.201   3.511 -1.0441  1.0880  1.7871
 2228TIP3   OH228174   5.463   2.975  14.706 -0.0665 -0.2594 -0.1944
 2228TIP3    H128175   5.444   3.068  14.720  1.6278  0.7504 -3.4257
 2228TIP3    H228176   5.389   2.943  14.654 -0.8184 -0.8673  1.2060
 2229TIP3   OH228177   5.227   1.761   3.425 -0.1724  0.1517  0.8035
 2229TIP3    H128178   5.141   1.796   3.403 -0.0419  0.7416  1.1903
 2229TIP3    H228179   5.239   1.784   3.517  0.2149 -0.3153  0.8774
 2230TIP3   OH228180   5.075   6.376   3.250 -0.1652  0.2490 -0.0053
 2230TIP3    H128181   5.042   6.299   3.203  0.5217 -0.0121 -0.0648
 2230TIP3    H228182   5.075   6.349   3.342  0.3842  0.0546 -0.0568
 2231TIP3   OH228183   0.827   4.425   2.499  0.3538  0.1815 -0.7401
 2231TIP3    H128184   0.758   4.453   2.559 -0.4711  1.1361 -2.0889
 2231TIP3    H228185   0.780   4.390   2.423  1.3721 -0.6240 -1.0282
 2232TIP3   OH228186   4.974   4.819  11.887 -0.4506 -0.2842  0.2419
 2232TIP3    H128187   5.028   4.771  11.950  1.0339  1.5159  0.4243
 2232TIP3    H228188   4.944   4.753  11.825 -0.1268 -1.7439  1.5899
 2233TIP3   OH228189   5.061   2.250   6.152 -0.2429 -0.3216  0.0169
 2233TIP3    H128190   5.139   2.247   6.208  0.6544  0.0592 -1.1727
 2233TIP3    H228191   5.084   2.197   6.076 -0.8818  0.3406 -0.6607
 2234TIP3   OH228192   0.847   5.092   1.302 -0.2215  0.2992 -0.0286
 2234TIP3    H128193   0.932   5.117   1.338 -0.9224  1.3650  0.9762
 2234TIP3    H228194   0.802   5.049   1.375 -1.1617  1.2677 -0.0070
 2235TIP3   OH228195   6.348   0.722   4.057  0.0305  0.3185  0.0046
 2235TIP3    H128196   6.426   0.713   4.002 -0.5564  0.5388 -0.8841
 2235TIP3    H228197   6.286   0.772   4.003 -0.1926  1.4550  1.2532
 2236TIP3   OH228198   2.942   5.032   5.266  0.7691 -0.1585 -0.0869
 2236TIP3    H128199   2.971   5.117   5.298  0.8809 -0.5109  0.7613
 2236TIP3    H228200   2.925   4.981   5.345 -0.1331 -0.6441 -0.5796
 2237TIP3   OH228201   2.795   1.601  16.473 -0.4359 -0.0272  0.1402
 2237TIP3    H128202   2.805   1.688  16.434 -2.3631  0.2537  0.1450
 2237TIP3    H228203   2.842   1.543  16.414 -1.0268  0.7398 -1.1372
 2238TIP3   OH228204   3.047   0.041  13.679  0.0649  0.0742 -0.0922
 2238TIP3    H128205   3.029   0.077  13.766 -2.0407 -0.3822 -0.2812
 2238TIP3    H228206   3.057  -0.053  13.693 -1.6509 -0.1991 -0.4581
 2239TIP3   OH228207   5.727   2.229   3.623 -0.6144 -0.6242  1.0289
 2239TIP3    H128208   5.649   2.284   3.611 -0.8782 -1.2639 -0.4676
 2239TIP3    H228209   5.801   2.287   3.604 -0.7677 -0.2460  1.5696
 2240TIP3   OH228210   2.028   1.208  11.027  0.5759 -0.2383 -0.1186
 2240TIP3    H128211   1.939   1.195  10.994 -0.0119  0.3104  1.1896
 2240TIP3    H228212   2.051   1.126  11.070  1.3527 -0.9634 -1.8087
 2241TIP3   OH228213   2.638   5.233   5.803 -0.8009 -0.3852 -0.4895
 2241TIP3    H128214   2.733   5.220   5.802 -0.9280 -1.3689 -0.9252
 2241TIP3    H228215   2.612   5.215   5.894 -0.5102  0.4632 -0.2262
 2242TIP3   OH228216   5.268   0.489  14.693 -0.3458  0.2784  0.3179
 2242TIP3    H128217   5.346   0.479  14.748 -0.8338 -0.2724  0.9219
 2242TIP3    H228218   5.212   0.550  14.741  0.4618  2.1356 -0.9784
 2243TIP3   OH228219   5.466   6.393  14.723 -0.2462 -0.1484 -0.2677
 2243TIP3    H128220   5.466   6.369  14.630 -0.9132 -0.2870 -0.2335
 2243TIP3    H228221   5.375   6.416  14.742 -0.3059 -1.0772  0.6051
 2244TIP3   OH228222   0.042   5.297  16.103 -0.2796  0.1905 -0.2519
 2244TIP3    H128223   0.022   5.390  16.089  1.1597  0.4520 -0.7138
 2244TIP3    H228224   0.034   5.257  16.016  3.3046  0.7655 -1.0070
 2245TIP3   OH228225   0.473   6.082   5.577 -0.1481 -0.1298 -0.4382
 2245TIP3    H128226   0.448   6.086   5.485  0.1609  0.0990 -0.5144
 2245TIP3    H228227   0.392   6.058   5.623 -0.6158  1.0194 -0.6354
 2246TIP3   OH228228   6.480   2.383   3.115 -0.0839 -0.0158  0.0949
 2246TIP3    H128229   6.456   2.459   3.168  3.3264  0.3667  1.3627
 2246TIP3    H228230   6.450   2.404   3.027 -0.6348  2.0942  0.7349
 2247TIP3   OH228231   6.226   0.048   0.014 -0.4929  0.1832 -0.5584
 2247TIP3    H128232   6.318   0.039   0.038 -0.7027 -0.7501 -0.0689
 2247TIP3    H228233   6.185  -0.032   0.046 -1.5862  0.8431 -0.2705
 2248TIP3   OH228234   4.236   4.156   3.716  0.7443  0.3167 -0.0219
 2248TIP3    H128235   4.237   4.068   3.678 -1.7139 -1.3183  3.2303
 2248TIP3    H228236   4.146   4.186   3.705  0.9173  1.3289  1.1891
 2249TIP3   OH228237   5.333   2.963  13.810 -0.6236  0.0309  0.2160
 2249TIP3    H128238   5.319   3.042  13.862  2.0648 -0.5491  2.0480
 2249TIP3    H228239   5.407   2.984  13.753 -1.0446 -0.6175 -0.5913
 2250TIP3   OH228240   3.616   2.793   5.713 -0.1591 -0.7679  0.0732
 2250TIP3    H128241   3.565   2.736   5.655 -1.1820 -0.5852  0.7750
 2250TIP3    H228242   3.552   2.826   5.776  0.6151  0.3630  0.2849
 2251TIP3   OH228243   4.006   1.451  14.374 -0.4170 -0.2115 -0.1972
 2251TIP3    H128244   4.041   1.412  14.455 -0.2765 -0.3675 -0.3333
 2251TIP3    H228245   3.921   1.487  14.400 -0.3269 -0.1697  0.0461
 2252TIP3   OH228246   0.706   1.268   5.581  0.6920 -0.1944  0.8444
 2252TIP3    H128247   0.645   1.269   5.507  1.8283  1.5300 -0.1370
 2252TIP3    H228248   0.697   1.355   5.620  0.9193 -0.7015  2.0734
 2253TIP3   OH228249   6.398   2.403  15.964 -0.3359  0.3213  0.6217
 2253TIP3    H128250   6.304   2.398  15.946 -0.6170  1.7918  1.5495
 2253TIP3    H228251   6.433   2.321  15.930 -2.0230 -0.4700  0.6953
 2254TIP3   OH228252   3.263   6.389  17.192  0.3819  0.8275 -0.2902
 2254TIP3    H128253   3.315   6.349  17.122  0.9770  2.3672 -0.7692
 2254TIP3    H228254   3.220   6.464  17.150 -1.4386  0.1923  0.3447
 2255TIP3   OH228255   5.713   1.736   5.803 -0.0253  0.0524 -0.1631
 2255TIP3    H128256   5.634   1.745   5.749  1.0565  1.1662 -1.6481
 2255TIP3    H228257   5.739   1.645   5.792 -1.5089 -0.5653  1.0046
 2256TIP3   OH228258   1.450   2.632  16.699 -0.2732 -0.5417 -0.2284
 2256TIP3    H128259   1.377   2.681  16.738 -0.0241  0.2007 -0.6882
 2256TIP3    H228260   1.528   2.680  16.727  0.0052 -1.0037 -0.2138
 2257TIP3   OH228261   3.816   2.721   0.314  0.3816  0.2054 -0.3365
 2257TIP3    H128262   3.735   2.759   0.278  0.1280  0.2338  0.2509
 2257TIP3    H228263   3.868   2.699   0.237  1.0809  2.8395 -0.7358
 2258TIP3   OH228264   5.872   1.730   6.037  0.0250 -0.0192 -0.1167
 2258TIP3    H128265   5.863   1.639   6.066  0.5012 -0.6407 -1.7902
 2258TIP3    H228266   5.787   1.752   5.999 -0.4749  0.6630  1.3303
 2259TIP3   OH228267   6.343   6.010   4.854 -0.3222 -0.3488 -0.4379
 2259TIP3    H128268   6.434   6.004   4.827 -0.5382 -0.4670 -1.1719
 2259TIP3    H228269   6.294   5.977   4.778 -0.9478 -0.7238  0.1192
 2260TIP3   OH228270   0.414   0.337   5.658  0.7338 -0.0685  0.1490
 2260TIP3    H128271   0.444   0.378   5.577  0.4503 -0.8133 -0.3490
 2260TIP3    H228272   0.348   0.396   5.693  1.7705  0.8950  0.5182
 2261TIP3   OH228273   3.002   2.806  15.641  0.2331  0.0843 -0.0739
 2261TIP3    H128274   3.068   2.832  15.704  0.6195 -1.9016  0.4014
 2261TIP3    H228275   3.039   2.830  15.556  0.6418  0.8440  0.3106
 2262TIP3   OH228276   4.360   3.089  15.497  0.1622  0.1407 -0.0695
 2262TIP3    H128277   4.324   3.110  15.411  1.8046 -0.0801 -0.8401
 2262TIP3    H228278   4.452   3.115  15.492  0.7072 -1.4339  1.0629
 2263TIP3   OH228279   3.705   3.911  15.746 -0.0681 -0.4326 -0.4209
 2263TIP3    H128280   3.651   3.939  15.672 -1.0745 -0.0263  0.4405
 2263TIP3    H228281   3.681   3.971  15.817  1.0511 -0.6605  0.1794
 2264TIP3   OH228282   4.389   0.663   3.257 -0.0788  0.2222 -0.0609
 2264TIP3    H128283   4.309   0.628   3.295 -1.1571  1.8629 -0.7060
 2264TIP3    H228284   4.360   0.712   3.180  1.8115 -1.1166 -1.7235
 2265TIP3   OH228285   4.088   2.699  11.766 -0.2833  0.1867 -0.3854
 2265TIP3    H128286   4.072   2.619  11.715 -1.2774  0.7538 -0.9964
 2265TIP3    H228287   4.132   2.758  11.705  1.2965 -0.2072  0.3405
 2266TIP3   OH228288   3.248   1.350  14.861 -0.5369  0.1778 -0.0291
 2266TIP3    H128289   3.278   1.422  14.806 -2.0518  1.0640  0.2604
 2266TIP3    H228290   3.219   1.283  14.799 -1.6904  0.9370 -0.3447
 2267TIP3   OH228291   0.644   0.961   2.312  0.1838 -0.2379  0.4081
 2267TIP3    H128292   0.655   0.981   2.405  0.1911 -0.6449  0.4945
 2267TIP3    H228293   0.722   0.998   2.270  0.0246  0.2285  0.5180
 2268TIP3   OH228294   0.220   6.277   0.707  0.0295  0.8771  0.0005
 2268TIP3    H128295   0.225   6.243   0.797  1.6460  0.6028 -0.1468
 2268TIP3    H228296   0.173   6.209   0.659 -0.6655  0.9271  0.5879
 2269TIP3   OH228297   4.538   0.145   3.856  0.1509 -0.1817 -0.5040
 2269TIP3    H128298   4.630   0.123   3.836 -0.1245  1.2199 -4.2697
 2269TIP3    H228299   4.543   0.231   3.897  0.5524  0.3239 -1.5613
 2270TIP3   OH228300   0.944   5.292   4.806 -0.2832 -0.6425 -0.1892
 2270TIP3    H128301   0.905   5.349   4.872  1.7196 -1.2519  1.6247
 2270TIP3    H228302   0.965   5.351   4.733 -2.7079  0.0055 -0.4461
 2271TIP3   OH228303   4.316   4.923   1.488 -0.1077 -0.0231  0.2871
 2271TIP3    H128304   4.344   5.000   1.538  1.7587  0.1344 -0.9168
 2271TIP3    H228305   4.353   4.937   1.401 -3.7163  0.0017 -1.4084
 2272TIP3   OH228306   0.938   3.275  11.194 -0.8870  0.7492 -0.1991
 2272TIP3    H128307   1.031   3.293  11.207  0.2176 -2.3731 -2.4612
 2272TIP3    H228308   0.914   3.330  11.119  0.6561 -1.8400 -2.8321
 2273TIP3   OH228309   0.660   1.546   5.584 -0.3069  0.1908 -0.4434
 2273TIP3    H128310   0.693   1.542   5.495  0.2916 -0.2449 -0.2132
 2273TIP3    H228311   0.719   1.605   5.630  1.1935 -1.8354  0.3689
 2274TIP3   OH228312   6.658   1.109  13.454  0.2120 -0.4180  0.0785
 2274TIP3    H128313   6.699   1.171  13.513  3.0320  1.1021 -3.1309
 2274TIP3    H228314   6.729   1.052  13.424 -1.2757 -1.8251 -1.0409
 2275TIP3   OH228315   0.848   5.412  11.480 -0.2947  0.0689  0.5076
 2275TIP3    H128316   0.753   5.427  11.482 -0.2498  0.5233 -0.1450
 2275TIP3    H228317   0.858   5.324  11.444 -0.4675  0.0014  0.6214
 2276TIP3   OH228318   5.317   0.964   3.198 -0.0863  0.2369 -0.4550
 2276TIP3    H128319   5.350   1.008   3.277  1.1832 -2.5107  0.6636
 2276TIP3    H228320   5.226   0.942   3.220 -0.2956  1.0285 -0.4871
 2277TIP3   OH228321   0.887   2.929  12.799  0.0441 -0.5662  0.0268
 2277TIP3    H128322   0.804   2.903  12.759  0.9347  0.8186 -3.0544
 2277TIP3    H228323   0.871   3.018  12.832  0.1087 -0.5388 -0.0143
 2278TIP3   OH228324   1.178   0.602  16.775 -0.0939 -0.1757  0.5540
 2278TIP3    H128325   1.098   0.605  16.828 -0.9881  1.2083 -0.7554
 2278TIP3    H228326   1.192   0.509  16.756  0.3862 -0.7440  3.2939
 2279TIP3   OH228327   6.339   0.215   2.324 -0.1106  0.0456 -0.7632
 2279TIP3    H128328   6.294   0.133   2.305 -0.4721 -0.0526  0.4252
 2279TIP3    H228329   6.275   0.267   2.373  1.4586 -0.7291  2.4381
 2280TIP3   OH228330   0.024   5.492   2.784  0.1756 -0.3584 -0.0533
 2280TIP3    H128331   0.037   5.558   2.851 -2.2515  1.6941 -1.3926
 2280TIP3    H228332   0.013   5.410   2.832  1.3072  0.5257  1.8118
 2281TIP3   OH228333   6.306   2.616   2.268  0.0447  0.4218  0.2049
 2281TIP3    H128334   6.271   2.639   2.182  0.2519 -1.4013 -0.3980
 2281TIP3    H228335   6.394   2.654   2.269  0.1540  0.2011 -0.5227
 2282TIP3   OH228336   2.873   4.453  14.346 -0.1454  0.1308  0.2560
 2282TIP3    H128337   2.882   4.528  14.404 -1.3747 -0.6914  1.5736
 2282TIP3    H228338   2.961   4.439  14.311  0.2723  1.6544  0.6304
 2283TIP3   OH228339   0.015   0.080  11.399  0.1425 -0.3519  0.2519
 2283TIP3    H128340  -0.019  -0.005  11.428  0.3300 -0.6321 -0.3504
 2283TIP3    H228341  -0.017   0.142  11.465 -0.1454 -0.8608  0.5952
 2284TIP3   OH228342   1.147   5.897   3.206  0.2792 -0.6766 -0.2232
 2284TIP3    H128343   1.227   5.897   3.259 -1.2857 -0.4287  2.2703
 2284TIP3    H228344   1.151   5.980   3.158  1.9996 -1.1511 -0.9578
 2285TIP3   OH228345   2.347   2.182  17.071 -0.3843  0.0922 -0.0738
 2285TIP3    H128346   2.297   2.190  17.153  1.3579  0.4417  1.0004
 2285TIP3    H228347   2.296   2.232  17.007 -1.8785 -0.3297  0.7338
 2286TIP3   OH228348   0.661   3.782  12.577  0.1536 -0.2379 -0.4934
 2286TIP3    H128349   0.592   3.846  12.557  1.0550  0.5342 -1.2355
 2286TIP3    H228350   0.714   3.824  12.644 -0.6608 -1.2546  0.8181
 2287TIP3   OH228351   0.992   2.579   1.387 -0.4477  0.0819 -0.4108
 2287TIP3    H128352   0.942   2.621   1.457  0.9521  0.0101  0.6772
 2287TIP3    H228353   0.953   2.493   1.377 -1.7670  0.7090 -0.9553
 2288TIP3   OH228354   0.856   5.766  11.489  0.2280  0.2122  0.3730
 2288TIP3    H128355   0.910   5.687  11.487 -0.8397 -0.5273 -0.3875
 2288TIP3    H228356   0.882   5.816  11.412 -0.5287 -0.4087 -0.3032
 2289TIP3   OH228357   6.069   3.518  12.058  0.0952  0.0480 -0.6489
 2289TIP3    H128358   5.988   3.566  12.076 -1.2777 -2.1069 -0.6665
 2289TIP3    H228359   6.091   3.541  11.968 -0.3637  0.8568 -0.5604
 2290TIP3   OH228360   3.710   4.410   4.682 -0.7021 -0.1055  0.0163
 2290TIP3    H128361   3.789   4.463   4.676  0.8042 -2.1109  0.7549
 2290TIP3    H228362   3.654   4.441   4.612  1.4245  0.3232 -1.5893
 2291TIP3   OH228363   4.817   3.749   6.609 -0.2129  0.3903  0.2308
 2291TIP3    H128364   4.820   3.654   6.596 -1.7209  0.4259 -0.5400
 2291TIP3    H228365   4.896   3.782   6.566  0.8121 -0.5719  1.3030
 2292TIP3   OH228366   4.519   4.713  11.109 -0.2402  0.3218  0.8466
 2292TIP3    H128367   4.428   4.704  11.081  0.6001 -0.8443 -1.7902
 2292TIP3    H228368   4.552   4.789  11.062 -0.0632  1.3984  2.6032
 2293TIP3   OH228369   4.202   3.118   6.364  0.6377  0.1878 -0.0706
 2293TIP3    H128370   4.252   3.165   6.297  1.7337 -1.7709 -0.7043
 2293TIP3    H228371   4.113   3.112   6.328  1.4316 -1.6763 -1.8695
 2294TIP3   OH228372   0.501   4.942  16.451 -0.1272 -0.6281 -0.0005
 2294TIP3    H128373   0.490   4.929  16.545 -0.3861 -0.7180 -0.0396
 2294TIP3    H228374   0.466   4.861  16.412  0.1892 -0.6897 -0.1620
 2295TIP3   OH228375   1.212   1.556   5.483 -0.1166  0.1292 -0.0433
 2295TIP3    H128376   1.258   1.515   5.556 -1.8379 -0.3491  0.8325
 2295TIP3    H228377   1.227   1.650   5.494  1.9136 -0.0562 -0.7162
 2296TIP3   OH228378   2.472   1.786  14.305 -0.0729 -0.6164 -0.7676
 2296TIP3    H128379   2.421   1.705  14.298 -0.9748 -0.1154 -0.1491
 2296TIP3    H228380   2.466   1.826  14.219 -3.3969  0.9838  0.0659
 2297TIP3   OH228381   3.268   2.684   0.255  0.2682  0.0200 -0.0177
 2297TIP3    H128382   3.343   2.714   0.306  0.8914 -4.2470  1.9438
 2297TIP3    H228383   3.195   2.684   0.317 -0.6705  1.1279 -1.0650
 2298TIP3   OH228384   5.357   1.657  11.209 -0.0369 -0.1852  0.1406
 2298TIP3    H128385   5.384   1.688  11.122  1.1425  0.5613  0.7464
 2298TIP3    H228386   5.374   1.731  11.267 -4.6256  0.8876  0.4765
 2299TIP3   OH228387   2.321   3.149   1.277 -0.1249  0.4037 -0.0684
 2299TIP3    H128388   2.368   3.163   1.195  0.1845 -0.6883 -0.0860
 2299TIP3    H228389   2.242   3.102   1.251  0.3127 -0.5762  0.3278
 2300TIP3   OH228390   1.578   1.928  15.954 -0.6569  0.4286 -0.2313
 2300TIP3    H128391   1.561   1.956  15.864  1.8098  2.9044 -0.0597
 2300TIP3    H228392   1.515   1.978  16.006 -0.9283  0.3144 -0.4447
 2301TIP3   OH228393   6.065   3.177   1.764 -0.2565 -0.0209  0.7188
 2301TIP3    H128394   5.970   3.167   1.769 -0.1747 -0.6186  1.2336
 2301TIP3    H228395   6.081   3.215   1.678 -0.8099 -2.1173 -0.3810
 2302TIP3   OH228396   3.533   2.926  15.815 -0.3100 -0.2531 -0.0861
 2302TIP3    H128397   3.559   3.009  15.854 -0.3670 -0.4774  0.4360
 2302TIP3    H228398   3.493   2.877  15.887 -0.5527 -0.6132 -0.4602
 2303TIP3   OH228399   2.984   5.866   2.294  0.0768 -0.0438 -0.0940
 2303TIP3    H128400   2.996   5.961   2.288 -1.0805  0.1550  0.4696
 2303TIP3    H228401   3.033   5.831   2.220  0.6631  0.9796 -0.2142
 2304TIP3   OH228402   1.700   3.393  10.877  0.7226 -0.1334 -0.2358
 2304TIP3    H128403   1.796   3.397  10.876  0.6865  1.0303 -0.5384
 2304TIP3    H228404   1.678   3.349  10.795  0.9931 -0.3417 -0.2010
 2305TIP3   OH228405   6.167   4.079  13.586 -0.5131  0.0965 -0.2937
 2305TIP3    H128406   6.195   4.125  13.507  1.8547 -0.4873  0.1362
 2305TIP3    H228407   6.086   4.034  13.560 -2.5069  3.6956 -0.9328
 2306TIP3   OH228408   3.186   6.491  12.655 -0.4922  0.2963 -0.3431
 2306TIP3    H128409   3.256   6.426  12.643  0.6766  1.6530 -1.1421
 2306TIP3    H228410   3.162   6.483  12.747 -0.4207 -1.2958 -0.4344
 2307TIP3   OH228411   4.808   5.639  11.415 -0.0567 -0.3001  0.0264
 2307TIP3    H128412   4.774   5.588  11.488  0.8425 -0.0537  0.6415
 2307TIP3    H228413   4.900   5.612  11.408 -0.1635 -0.4314 -1.1164
 2308TIP3   OH228414   0.885   4.618  13.562 -0.0760  0.2653 -0.3920
 2308TIP3    H128415   0.853   4.708  13.556 -1.9669 -0.4292 -2.3314
 2308TIP3    H228416   0.819   4.573  13.615 -0.3580 -0.4047 -1.2820
 2309TIP3   OH228417   0.620   2.445   5.580 -0.2854 -0.0835 -0.6556
 2309TIP3    H128418   0.631   2.411   5.669  1.7231 -0.8134 -1.1431
 2309TIP3    H228419   0.536   2.491   5.583 -1.6047 -2.3690  0.8892
 2310TIP3   OH228420   4.061   0.778  11.238 -0.0296  0.8122 -0.4384
 2310TIP3    H128421   4.002   0.774  11.313 -0.4045 -1.7750 -0.7680
 2310TIP3    H228422   4.004   0.799  11.164  0.0542  1.6972 -0.2552
 2311TIP3   OH228423   3.318   3.143  13.777  0.7364 -0.3806 -0.3668
 2311TIP3    H128424   3.334   3.202  13.850  0.1256  1.8415 -1.9129
 2311TIP3    H228425   3.251   3.188  13.724  0.5871 -2.2474 -1.8786
 2312TIP3   OH228426   0.856   0.821  14.394 -0.3689 -0.2884  0.3874
 2312TIP3    H128427   0.946   0.846  14.415 -0.3015 -1.7273  1.9747
 2312TIP3    H228428   0.866   0.743  14.339 -0.6583 -0.3896  0.4830
 2313TIP3   OH228429   5.468   2.430   4.153 -0.1553  0.0725 -0.2418
 2313TIP3    H128430   5.480   2.403   4.062  1.0060 -0.3796  0.0250
 2313TIP3    H228431   5.534   2.497   4.167 -0.4115  0.2273  0.2416
 2314TIP3   OH228432   2.695   0.615   0.344  0.0672 -0.2568 -0.0422
 2314TIP3    H128433   2.714   0.560   0.421 -2.4875 -0.1094  0.7844
 2314TIP3    H228434   2.686   0.704   0.380  1.2855  0.2610 -0.9366
 2315TIP3   OH228435   3.435   5.721  15.533 -0.3525  0.0682  0.1634
 2315TIP3    H128436   3.436   5.628  15.511 -1.8571  0.2972 -1.0727
 2315TIP3    H228437   3.390   5.726  15.616 -0.0921 -0.3146  0.3309
 2316TIP3   OH228438   1.537   1.484   4.247 -0.2321  0.8171  0.7418
 2316TIP3    H128439   1.460   1.430   4.267 -1.8314  2.9430  0.6259
 2316TIP3    H228440   1.508   1.574   4.263  1.7741  1.8103 -0.7856
 2317TIP3   OH228441   5.195   6.102  16.141 -0.5405  0.0261 -0.0724
 2317TIP3    H128442   5.161   6.192  16.139  0.4570  0.4152 -0.5786
 2317TIP3    H228443   5.162   6.062  16.061 -0.6884  0.0670 -0.0304
 2318TIP3   OH228444   6.531   3.479  16.009  0.3639  0.5553 -0.7731
 2318TIP3    H128445   6.616   3.516  16.033 -0.0838  1.5859 -0.7372
 2318TIP3    H228446   6.498   3.440  16.090  0.2719  1.2364 -0.4731
 2319TIP3   OH228447   0.091   3.624  16.744 -0.0520 -0.4468  0.1505
 2319TIP3    H128448   0.164   3.672  16.783 -1.1313  0.5858  1.0065
 2319TIP3    H228449   0.065   3.561  16.811 -0.8783  0.2212  0.4831
 2320TIP3   OH228450   5.591   0.513   3.130  0.5506 -0.3533  0.0055
 2320TIP3    H128451   5.661   0.456   3.163  1.3154 -0.1141 -1.1216
 2320TIP3    H228452   5.589   0.586   3.191  1.0650 -0.5237  0.2375
 2321TIP3   OH228453   1.044   5.841   2.446  0.2836  0.1112  0.0027
 2321TIP3    H128454   1.106   5.781   2.405 -0.8113 -1.1739  0.1598
 2321TIP3    H228455   1.035   5.913   2.383  0.5369 -0.5968 -0.8551
 2322TIP3   OH228456   6.681   0.408   5.673  0.1241  0.2636 -0.2361
 2322TIP3    H128457   6.587   0.395   5.667  0.3832 -1.8404 -0.6042
 2322TIP3    H228458   6.699   0.405   5.767  0.0998 -2.2507 -0.2453
 2323TIP3   OH228459   0.052   1.893  16.450  0.0239  0.3216  0.6690
 2323TIP3    H128460   0.024   1.983  16.464  0.1589  0.3439  0.8006
 2323TIP3    H228461   0.138   1.901  16.408  0.2614  0.2538  1.1387
 2324TIP3   OH228462   3.935   5.934   1.463  0.7104  0.0588  0.3786
 2324TIP3    H128463   3.879   5.856   1.461 -0.7083  1.0234 -2.0990
 2324TIP3    H228464   4.020   5.904   1.432 -0.0669 -0.4107 -1.4375
 2325TIP3   OH228465   3.753   1.647   3.902  0.2032  0.4410 -0.0422
 2325TIP3    H128466   3.722   1.693   3.825 -1.4023  0.8981  0.8356
 2325TIP3    H228467   3.762   1.556   3.873  0.1351  0.6999 -0.9016
 2326TIP3   OH228468   1.843   2.189   3.894 -0.1855  0.4863 -0.1966
 2326TIP3    H128469   1.894   2.209   3.816  1.5765 -0.5171  0.6264
 2326TIP3    H228470   1.754   2.176   3.863  0.2974  1.0016 -1.8867
 2327TIP3   OH228471   2.489   2.721   6.427  0.1961 -0.2430 -0.5477
 2327TIP3    H128472   2.577   2.715   6.464  0.2419 -0.5831 -0.7061
 2327TIP3    H228473   2.447   2.638   6.453 -0.3311  0.2454  0.1877
 2328TIP3   OH228474   4.029   4.145  14.360 -0.5495  0.1798 -0.3540
 2328TIP3    H128475   3.949   4.192  14.338 -2.8330 -2.0568  2.4629
 2328TIP3    H228476   4.020   4.060  14.316 -0.1657 -0.3985  0.6452
 2329TIP3   OH228477   4.281   0.005   1.701  0.4505  0.0261 -0.1069
 2329TIP3    H128478   4.371   0.018   1.672  0.4324  0.7193  0.1449
 2329TIP3    H228479   4.250   0.092   1.724  0.0695 -0.3516  0.8587
 2330TIP3   OH228480   6.367   4.924   0.268  0.1133  0.2240  0.4284
 2330TIP3    H128481   6.310   4.987   0.313 -0.6569  1.6014 -2.2246
 2330TIP3    H228482   6.454   4.964   0.272  0.4727 -0.6538  2.3227
 2331TIP3   OH228483   0.082   4.893  12.143 -0.0213 -0.0589 -0.1116
 2331TIP3    H128484   0.145   4.963  12.155 -1.5847  1.2269  0.9713
 2331TIP3    H228485   0.045   4.909  12.056 -1.6110  1.5738  0.8045
 2332TIP3   OH228486   1.927   2.183  14.159 -0.0610 -0.2174 -0.7134
 2332TIP3    H128487   2.007   2.210  14.204  0.9514 -0.2854 -2.3842
 2332TIP3    H228488   1.860   2.243  14.190  0.8383  0.4036  0.0582
 2333TIP3   OH228489   4.196   5.409   5.976  0.0392 -0.3286 -0.3657
 2333TIP3    H128490   4.261   5.433   5.910  0.1882 -3.3914 -1.5166
 2333TIP3    H228491   4.241   5.419   6.059  1.7739 -1.6048 -1.0913
 2334TIP3   OH228492   3.753   4.645   2.547  0.0622 -0.1071  0.5317
 2334TIP3    H128493   3.843   4.676   2.532  1.0528 -1.9376  2.2637
 2334TIP3    H228494   3.704   4.679   2.472  2.1459  1.0666 -0.4031
 2335TIP3   OH228495   0.159   4.020  12.909 -0.3703  0.2505  0.4268
 2335TIP3    H128496   0.212   3.961  12.962 -0.0558  1.1501  1.1400
 2335TIP3    H228497   0.087   4.046  12.967 -0.6799  0.3308  0.0144
 2336TIP3   OH228498   0.451   3.017  16.037  0.2100  0.2669  0.5462
 2336TIP3    H128499   0.483   3.098  15.999 -0.3616 -0.1726 -0.9462
 2336TIP3    H228500   0.486   3.016  16.126  1.8047  1.2200 -0.0379
 2337TIP3   OH228501   6.605   0.552   0.859  0.1792 -0.4098  0.0988
 2337TIP3    H128502   6.669   0.568   0.928  0.0103  4.7964 -0.5239
 2337TIP3    H228503   6.520   0.562   0.902 -0.1089 -1.7592 -0.1065
 2338TIP3   OH228504   3.498   6.796   0.302 -0.1152 -0.0342 -0.4745
 2338TIP3    H128505   3.421   6.747   0.273 -0.3039 -0.1939  0.2768
 2338TIP3    H228506   3.565   6.777   0.236 -1.0090  0.9184 -1.6961
 2339TIP3   OH228507   0.681   1.001  10.708 -0.6809  0.0065  0.6991
 2339TIP3    H128508   0.697   0.920  10.755 -0.5144  0.4413  1.4015
 2339TIP3    H228509   0.585   1.008  10.704 -0.6982  0.1554  1.3045
 2340TIP3   OH228510   4.965   2.413  12.474 -0.3553 -0.2709 -0.7129
 2340TIP3    H128511   4.938   2.485  12.417  1.2004  0.2396 -0.8432
 2340TIP3    H228512   5.016   2.456  12.543  1.7661 -1.3548 -1.5410
 2341TIP3   OH228513   6.591   4.792   0.622  0.2524 -0.3928 -0.2086
 2341TIP3    H128514   6.534   4.867   0.602  1.3337 -0.0201 -2.1263
 2341TIP3    H228515   6.621   4.762   0.536  1.7275 -1.5424  0.6777
 2342TIP3   OH228516   5.793   0.135  11.500 -0.0741 -0.7961 -0.4081
 2342TIP3    H128517   5.762   0.216  11.460 -0.2829 -1.3394 -1.3839
 2342TIP3    H228518   5.839   0.163  11.579  0.4270  0.3170 -1.0803
 2343TIP3   OH228519   6.383   0.103   4.771  0.0498  0.0197  0.2505
 2343TIP3    H128520   6.410   0.105   4.862 -0.3865  1.8401  0.3769
 2343TIP3    H228521   6.377   0.195   4.745  1.6884 -0.4296 -2.0864
 2344TIP3   OH228522   5.210   5.286  14.194 -0.2108  0.2749  0.5979
 2344TIP3    H128523   5.244   5.261  14.108  1.1240  0.9182  0.9193
 2344TIP3    H228524   5.144   5.219  14.214  0.4452 -0.6743 -0.3052
 2345TIP3   OH228525   6.601   1.660  15.996  0.2590  0.1759 -0.1872
 2345TIP3    H128526   6.526   1.602  16.012  0.6317  0.2270  2.1227
 2345TIP3    H228527   6.589   1.692  15.907 -2.4364  0.1455  0.1082
 2346TIP3   OH228528   0.844   4.926   3.163  0.3192  0.0867 -0.0950
 2346TIP3    H128529   0.936   4.951   3.170  0.0696  0.9668  0.2233
 2346TIP3    H228530   0.834   4.893   3.074  0.5646  1.6624 -0.7375
 2347TIP3   OH228531   4.840   4.568  12.312 -0.5141 -0.2562  0.2191
 2347TIP3    H128532   4.750   4.592  12.292  0.2560  0.3333 -3.1166
 2347TIP3    H228533   4.848   4.478  12.279 -0.5747 -1.4929  3.2320
 2348TIP3   OH228534   4.293   4.982   1.190  0.0414  0.4840  0.7582
 2348TIP3    H128535   4.255   5.006   1.106 -0.4501 -0.9655  0.5426
 2348TIP3    H228536   4.303   5.065   1.237  0.4046  1.3159 -0.7435
 2349TIP3   OH228537   3.212   3.684   4.331 -0.5602 -0.3943 -1.0962
 2349TIP3    H128538   3.122   3.665   4.304 -0.8810  1.7792 -1.7498
 2349TIP3    H228539   3.257   3.705   4.249 -0.3529  1.8179 -0.4544
 2350TIP3   OH228540   5.987   1.073   0.070 -0.1064  0.2590  0.1161
 2350TIP3    H128541   6.056   1.079   0.003  0.4020 -0.7367  0.5288
 2350TIP3    H228542   5.964   0.980   0.072 -1.3091  0.5388  0.1546
 2351TIP3   OH228543   2.741   2.936  10.440 -0.2534  0.0727  0.3519
 2351TIP3    H128544   2.718   2.936  10.533  1.8127 -0.3269  0.9108
 2351TIP3    H228545   2.687   3.006  10.403  0.7368  2.0620  2.3686
 2352TIP3   OH228546   6.595   0.355  11.358  0.1750 -0.4263  0.1580
 2352TIP3    H128547   6.543   0.421  11.403  2.4422  0.6278  1.3999
 2352TIP3    H228548   6.543   0.275  11.364 -2.0202  0.8892 -0.1562
 2353TIP3   OH228549   3.765   1.676   2.872  0.4364 -0.5906  0.5606
 2353TIP3    H128550   3.753   1.701   2.780  0.6869 -0.1038  0.6608
 2353TIP3    H228551   3.793   1.584   2.868 -1.1781 -1.1116  0.2293
 2354TIP3   OH228552   4.031   3.280   4.390  1.0332 -0.2977  0.3968
 2354TIP3    H128553   4.015   3.282   4.296 -1.8076 -0.0871  0.7771
 2354TIP3    H228554   4.085   3.203   4.404  3.4711  0.9169 -1.5745
 2355TIP3   OH228555   2.105   0.914  10.874 -0.1105 -0.0855 -0.1710
 2355TIP3    H128556   2.114   1.007  10.856 -0.6283 -0.1388 -0.7487
 2355TIP3    H228557   2.140   0.902  10.962  1.3747  0.3990 -0.6755
 2356TIP3   OH228558   3.429   0.884   3.191 -0.1494  0.7188 -0.0519
 2356TIP3    H128559   3.389   0.945   3.129 -1.8187 -1.7937 -1.6420
 2356TIP3    H228560   3.481   0.826   3.136 -2.5050 -2.2342  0.5623
 2357TIP3   OH228561   3.797   4.708   5.722  0.0131 -0.1741  0.2846
 2357TIP3    H128562   3.734   4.635   5.719  0.9951 -1.0117 -0.8623
 2357TIP3    H228563   3.881   4.666   5.740  0.4987  0.7692  0.2643
 2358TIP3   OH228564   3.680   4.401   4.347 -0.0759  0.3689  0.2398
 2358TIP3    H128565   3.651   4.371   4.261  0.4204  0.6546 -0.0273
 2358TIP3    H228566   3.604   4.448   4.382  0.5280  2.4813 -1.1057
 2359TIP3   OH228567   4.157   2.617  11.373 -0.0827  0.1566  0.0152
 2359TIP3    H128568   4.210   2.570  11.438  0.4971  0.3971 -0.2828
 2359TIP3    H228569   4.139   2.552  11.306 -0.0934  0.0995  0.0733
 2360TIP3   OH228570   6.321   6.718  11.899 -0.8399  0.1696 -0.4322
 2360TIP3    H128571   6.329   6.806  11.864 -2.4519  0.4643 -0.1210
 2360TIP3    H228572   6.318   6.661  11.822 -1.3758  0.5336 -0.6820
 2361TIP3   OH228573   5.792   3.120   1.776 -0.3102 -0.0648  0.0496
 2361TIP3    H128574   5.729   3.053   1.805 -0.3441 -0.6686 -1.3010
 2361TIP3    H228575   5.740   3.201   1.772 -0.2858  0.0484  1.6395
 2362TIP3   OH228576   6.310   1.600   3.031  0.0541 -0.6407  0.1351
 2362TIP3    H128577   6.247   1.667   3.057  0.0550 -1.2496  1.8624
 2362TIP3    H228578   6.346   1.568   3.114  1.2526 -1.6255 -0.7293
 2363TIP3   OH228579   4.747   6.068  12.935  0.4341  0.7199 -0.1236
 2363TIP3    H128580   4.742   6.046  13.028  0.9573  2.1037  0.2579
 2363TIP3    H228581   4.668   6.118  12.917  0.1260  0.0977 -0.5374
 2364TIP3   OH228582   2.548   4.133  12.177 -0.2642  0.5233  0.0201
 2364TIP3    H128583   2.636   4.096  12.175 -1.0822 -1.5585 -1.2171
 2364TIP3    H228584   2.555   4.214  12.125  0.9163  0.4412  0.0297
 2365TIP3   OH228585   3.930   3.748  12.352 -0.1294  0.3724  0.1399
 2365TIP3    H128586   3.993   3.775  12.419 -0.4409  1.9741 -0.1786
 2365TIP3    H228587   3.936   3.816  12.285 -2.3070  0.6690  0.1792
 2366TIP3   OH228588   0.164   2.470  13.096 -0.0388 -0.2612 -0.7597
 2366TIP3    H128589   0.226   2.400  13.116 -0.8074 -1.1025 -1.2748
 2366TIP3    H228590   0.089   2.426  13.056 -1.5490  0.5546  0.9684
 2367TIP3   OH228591   6.215   6.619  14.959 -0.0185  0.7343  0.8897
 2367TIP3    H128592   6.163   6.540  14.944  3.5340 -1.6030 -0.2908
 2367TIP3    H228593   6.231   6.620  15.053  0.6309 -0.4921  0.8028
 2368TIP3   OH228594   1.573   1.133   3.395 -0.3792  0.4646  0.5391
 2368TIP3    H128595   1.583   1.172   3.482 -0.4306  0.9417  0.3348
 2368TIP3    H228596   1.661   1.133   3.358 -0.4910  1.0580  0.2598
 2369TIP3   OH228597   2.844   3.358  14.130  0.2170 -0.4031 -0.6984
 2369TIP3    H128598   2.899   3.434  14.111 -0.2393 -0.0806 -0.7640
 2369TIP3    H228599   2.898   3.283  14.108  0.4657 -0.0830 -1.2048
 2370TIP3   OH228600   6.621   1.967   3.548 -0.0694 -0.1072  0.7924
 2370TIP3    H128601   6.659   1.886   3.514 -1.0775  0.0757 -0.9216
 2370TIP3    H228602   6.688   2.002   3.606  1.7988 -0.5200 -0.9659
 2371TIP3   OH228603   0.782   0.494   1.192 -0.1350  0.7763 -0.0043
 2371TIP3    H128604   0.832   0.570   1.162  0.0193  1.2124  1.2924
 2371TIP3    H228605   0.838   0.419   1.174  0.2885  1.1015 -0.0550
 2372TIP3   OH228606   2.738   5.662  13.394 -0.1200 -0.0651 -0.5155
 2372TIP3    H128607   2.703   5.731  13.451 -0.7504  0.6657 -1.7338
 2372TIP3    H228608   2.695   5.582  13.423  0.5650  0.0567  0.8787
 2373TIP3   OH228609   4.335   5.837  14.167  0.2606 -0.1681 -0.1120
 2373TIP3    H128610   4.383   5.858  14.087 -1.5823  1.2027 -0.9269
 2373TIP3    H228611   4.358   5.907  14.228 -1.0394  0.7980 -0.6865
 2374TIP3   OH228612   5.273   1.410   2.266  0.1985  0.0521  0.1203
 2374TIP3    H128613   5.191   1.361   2.265  1.2325 -1.7496 -1.0980
 2374TIP3    H228614   5.337   1.352   2.224  1.7945  1.9461 -0.2328
 2375TIP3   OH228615   1.977   5.976   5.103 -0.4615  0.0493  0.2403
 2375TIP3    H128616   1.993   6.070   5.115 -2.8571  0.5648 -0.0005
 2375TIP3    H228617   1.993   5.960   5.010  1.7402 -0.2362  0.6216
 2376TIP3   OH228618   6.751   2.311   2.152  0.3262 -0.1029  0.1966
 2376TIP3    H128619   6.687   2.242   2.170 -0.3833  0.6162  0.5175
 2376TIP3    H228620   6.763   2.308   2.057 -0.7646  0.2246  0.0286
 2377TIP3   OH228621   4.371   0.945   4.666  0.0327 -0.1001  0.2836
 2377TIP3    H128622   4.405   0.918   4.581  0.4305 -0.3304  0.5172
 2377TIP3    H228623   4.323   0.869   4.699 -1.7500  0.5869 -0.5651
 2378TIP3   OH228624   6.214   5.600  12.783 -0.0092 -0.1282  0.0905
 2378TIP3    H128625   6.140   5.569  12.731 -0.1267 -0.5747  0.5187
 2378TIP3    H228626   6.276   5.527  12.783  0.8809  0.5938 -1.0867
 2379TIP3   OH228627   2.683   2.294   3.388 -0.4669 -0.0152 -0.2467
 2379TIP3    H128628   2.771   2.319   3.361 -0.1049 -1.6640 -0.7575
 2379TIP3    H228629   2.640   2.376   3.413  0.1429  1.2943 -3.0732
 2380TIP3   OH228630   5.879   6.173  12.812  0.6271 -0.0766 -0.0322
 2380TIP3    H128631   5.861   6.159  12.719 -0.1455  0.0319  0.0969
 2380TIP3    H228632   5.905   6.087  12.845 -0.6769 -0.4694 -0.0008
 2381TIP3   OH228633   6.041   3.652   0.381 -1.4106 -0.3905 -0.2978
 2381TIP3    H128634   5.978   3.698   0.327  0.4816  0.2578 -2.1003
 2381TIP3    H228635   6.070   3.579   0.327 -1.6322 -1.5386  1.0634
 2382TIP3   OH228636   2.571   1.013  17.111  0.2043  0.0832 -1.1313
 2382TIP3    H128637   2.659   0.986  17.086  0.3143  0.0481 -0.7061
 2382TIP3    H228638   2.528   1.035  17.028  1.3924  2.5491 -1.1659
 2383TIP3   OH228639   6.084   0.724   1.856 -0.4804 -0.2644  0.0073
 2383TIP3    H128640   6.103   0.657   1.790  2.7539 -0.9636  1.4322
 2383TIP3    H228641   6.100   0.807   1.811  0.4866 -0.6894 -0.4757
 2384TIP3   OH228642   2.532   3.447   5.701  0.1263 -0.4393 -0.4534
 2384TIP3    H128643   2.560   3.533   5.730  0.7528 -0.7588 -0.0956
 2384TIP3    H228644   2.486   3.463   5.619  0.2169  0.2340 -0.3761
 2385TIP3   OH228645   6.472   0.655  11.849 -0.0735  0.4246  0.2789
 2385TIP3    H128646   6.455   0.689  11.761 -1.1631  0.3646  0.4574
 2385TIP3    H228647   6.498   0.564  11.835 -0.9293  0.2075  0.0565
 2386TIP3   OH228648   4.210   4.926  16.556 -0.0164  0.0814  0.4891
 2386TIP3    H128649   4.208   5.011  16.512 -0.0255  0.4878  1.2552
 2386TIP3    H228650   4.293   4.887  16.530 -0.6695 -0.3456 -1.0736
 2387TIP3   OH228651   1.713   2.004  17.169 -0.2863  0.0642 -0.3598
 2387TIP3    H128652   1.728   1.944  17.242  0.0725 -2.4093 -2.3270
 2387TIP3    H228653   1.799   2.017  17.131 -0.5136  1.1074 -0.5578
 2388TIP3   OH228654   5.048   0.962  13.163  0.4590 -0.9548  0.0511
 2388TIP3    H128655   5.013   0.983  13.250 -0.2699 -3.4369  0.4255
 2388TIP3    H228656   5.141   0.943  13.178  0.7320  0.2628 -0.0214
 2389TIP3   OH228657   0.045   6.588   0.171 -0.1053 -0.4243 -0.2557
 2389TIP3    H128658  -0.004   6.514   0.208  1.1996 -0.1985  2.2201
 2389TIP3    H228659  -0.017   6.634   0.116 -1.9904 -1.4258  0.9152
 2390TIP3   OH228660   5.849   6.383  15.982  0.2027 -0.2746 -0.1179
 2390TIP3    H128661   5.904   6.319  16.027  0.4945  0.2640  0.3062
 2390TIP3    H228662   5.859   6.463  16.034 -0.1973  0.0980 -0.6122
 2391TIP3   OH228663   0.134   3.811   6.351  0.2534  0.3454  0.2173
 2391TIP3    H128664   0.227   3.817   6.331 -0.2646  1.7173 -2.2860
 2391TIP3    H228665   0.116   3.890   6.403  0.5480 -0.1625  1.1058
 2392TIP3   OH228666   4.868   4.936   0.365 -0.7434  0.4803  0.1217
 2392TIP3    H128667   4.921   4.997   0.313 -1.6902  0.1187 -1.3554
 2392TIP3    H228668   4.819   4.885   0.299 -1.2050 -0.7433  1.3615
 2393TIP3   OH228669   1.459   5.589  17.067  0.4371 -0.5388 -0.1841
 2393TIP3    H128670   1.545   5.627  17.051 -0.3103  1.1551 -0.3786
 2393TIP3    H228671   1.439   5.539  16.988  0.6377  0.2524 -0.7427
 2394TIP3   OH228672   3.610   3.576   2.903 -0.7094 -0.2231  0.0146
 2394TIP3    H128673   3.635   3.646   2.844  0.3336 -0.7709 -0.2133
 2394TIP3    H228674   3.649   3.599   2.988 -0.3622 -0.5243 -0.0614
 2395TIP3   OH228675   1.460   1.132  12.050 -1.1832 -0.0934 -0.3788
 2395TIP3    H128676   1.548   1.096  12.035 -0.8350  0.5348  0.1347
 2395TIP3    H228677   1.421   1.136  11.963  0.2736  2.1492 -0.9955
 2396TIP3   OH228678   5.642   6.593  14.509 -0.2509  0.3672  0.4276
 2396TIP3    H128679   5.620   6.516  14.561 -0.1459  0.2531  0.3009
 2396TIP3    H228680   5.636   6.564  14.418  0.8155  0.2254  0.3924
 2397TIP3   OH228681   0.273   1.671  11.283  0.6088 -0.5632  0.5312
 2397TIP3    H128682   0.197   1.707  11.238 -0.4883 -0.6942  2.1890
 2397TIP3    H228683   0.339   1.662  11.215 -0.9175 -0.6223 -1.0094
 2398TIP3   OH228684   6.427   1.004  12.746  0.4149  0.2896 -0.8882
 2398TIP3    H128685   6.508   1.053  12.733  0.3525  0.0383 -2.4375
 2398TIP3    H228686   6.362   1.047  12.691 -1.2397  1.9633  2.1111
 2399TIP3   OH228687   2.316   4.562   3.352  0.4114 -0.5169 -0.0750
 2399TIP3    H128688   2.366   4.526   3.425  0.1424 -1.4652 -0.3503
 2399TIP3    H228689   2.225   4.557   3.380  0.4514  2.2548  0.9002
 2400TIP3   OH228690   1.260   6.213   4.590  0.6091  0.3353  0.3065
 2400TIP3    H128691   1.185   6.177   4.543  2.1545 -0.6334 -1.5927
 2400TIP3    H228692   1.243   6.307   4.596 -1.2906 -0.0036  1.0729
 2401TIP3   OH228693   5.439   6.755   4.771  0.5514 -0.2036  0.5998
 2401TIP3    H128694   5.478   6.841   4.752  0.3085  0.0218  1.0860
 2401TIP3    H228695   5.513   6.700   4.796  0.5714  0.2179  1.5020
 2402TIP3   OH228696   0.243   6.288   4.643  0.6603 -0.1989  0.4162
 2402TIP3    H128697   0.209   6.376   4.628 -0.2198 -0.1261  2.4728
 2402TIP3    H228698   0.338   6.299   4.645  0.5617  0.6991  0.5817
 2403TIP3   OH228699   3.604   4.260  16.353  0.4156  0.2668 -0.1411
 2403TIP3    H128700   3.685   4.308  16.337  0.8882 -1.0207 -1.9981
 2403TIP3    H228701   3.618   4.216  16.437  0.9621  1.3702  0.3530
 2404TIP3   OH228702   1.263   4.474  13.022  0.2721 -0.6832 -0.0728
 2404TIP3    H128703   1.221   4.502  12.941  0.5922  0.6287  0.1828
 2404TIP3    H228704   1.350   4.444  12.995  0.6545  0.4519 -0.1470
 2405TIP3   OH228705   2.224   1.405  12.551 -0.0277  0.3737 -0.3743
 2405TIP3    H128706   2.150   1.362  12.508 -2.0540  3.1254  0.1398
 2405TIP3    H228707   2.247   1.347  12.624  2.6365 -3.7509 -3.9385
 2406TIP3   OH228708   6.278   0.512  11.084 -0.3934 -0.0124  0.1593
 2406TIP3    H128709   6.274   0.484  11.176 -0.6770 -0.5856 -0.0270
 2406TIP3    H228710   6.203   0.469  11.042 -0.1246  0.0497 -0.3941
 2407TIP3   OH228711   2.478   0.508  12.714  0.4419 -0.1446 -0.2263
 2407TIP3    H128712   2.557   0.546  12.676  1.1699 -2.3589 -1.0711
 2407TIP3    H228713   2.427   0.478  12.639 -1.7826  2.1305  0.2349
 2408TIP3   OH228714   0.208   2.459   5.502 -0.1163  0.3499 -0.2437
 2408TIP3    H128715   0.234   2.420   5.585  0.2405  0.9005 -0.0860
 2408TIP3    H228716   0.210   2.387   5.439  1.6954  0.3423 -0.2169
 2409TIP3   OH228717   6.419   3.932   2.303 -0.4615 -0.5973  0.1481
 2409TIP3    H128718   6.332   3.909   2.337 -0.0379 -1.5401  0.6191
 2409TIP3    H228719   6.427   3.883   2.222 -0.8203  0.4034 -0.5180
 2410TIP3   OH228720   6.709   2.279   4.828  0.4969 -0.2925  0.3681
 2410TIP3    H128721   6.803   2.289   4.842  1.4405 -1.6866 -3.6377
 2410TIP3    H228722   6.691   2.188   4.850 -0.0636  0.0614  1.4649
 2411TIP3   OH228723   6.361   3.625   2.341  0.0825 -0.2121 -0.2323
 2411TIP3    H128724   6.380   3.617   2.247 -0.2053  2.0488 -0.5546
 2411TIP3    H228725   6.443   3.601   2.384  0.2154 -1.2979 -1.0452
 2412TIP3   OH228726   6.660   3.457   1.083  0.0436  0.3572 -0.6201
 2412TIP3    H128727   6.644   3.423   1.171 -0.0217  0.7542 -0.4723
 2412TIP3    H228728   6.574   3.490   1.055  0.2808  1.1777 -0.4110
 2413TIP3   OH228729   6.642   5.067   4.927  0.3567  0.0359 -0.4881
 2413TIP3    H128730   6.710   5.076   4.861  0.1053 -1.5581 -1.0287
 2413TIP3    H228731   6.689   5.064   5.011  0.9888 -1.0896 -0.8560
 2414TIP3   OH228732   6.254   3.750   4.359 -0.0356  0.0395  0.0135
 2414TIP3    H128733   6.293   3.723   4.276 -0.0341 -0.3268  0.1271
 2414TIP3    H228734   6.216   3.836   4.342  1.7750  0.9323  0.1724
 2415TIP3   OH228735   3.800   1.024   0.942  0.3812  0.3579  0.7674
 2415TIP3    H128736   3.874   1.008   0.884  0.5076  2.4757  0.2593
 2415TIP3    H228737   3.834   1.007   1.029  0.6824 -1.2185  0.3688
 2416TIP3   OH228738   5.520   4.506   3.501 -0.0618  0.1838 -0.8872
 2416TIP3    H128739   5.613   4.499   3.478 -0.1650  0.2789 -1.3341
 2416TIP3    H228740   5.497   4.596   3.480  0.0547  0.5349  0.3916
 2417TIP3   OH228741   4.491   2.105  17.060  0.1168  0.4244 -0.0005
 2417TIP3    H128742   4.409   2.063  17.084  0.1914  0.2179 -0.1012
 2417TIP3    H228743   4.518   2.152  17.138  0.4639 -0.4084  0.3960
 2418TIP3   OH228744   2.337   2.220  16.566  0.9536  0.1215 -0.0319
 2418TIP3    H128745   2.355   2.187  16.654 -0.1639 -0.3124  0.0500
 2418TIP3    H228746   2.288   2.301  16.579 -0.3056 -0.5846 -0.2397
 2419TIP3   OH228747   4.958   0.383  15.029  0.0272 -0.1892  0.0675
 2419TIP3    H128748   4.909   0.464  15.043 -0.1948 -0.3813  0.4120
 2419TIP3    H228749   4.905   0.332  14.968 -0.3251 -0.4952  0.6171
 2420TIP3   OH228750   5.474   2.039   4.082 -0.1990  0.3985 -0.1474
 2420TIP3    H128751   5.435   2.079   4.160 -0.8965 -0.4853 -0.0303
 2420TIP3    H228752   5.542   2.101   4.056 -0.0140  0.7576  1.1037
 2421TIP3   OH228753   2.712   3.909   2.292 -0.1613  0.1002 -0.0928
 2421TIP3    H128754   2.757   3.974   2.237 -2.7579  1.0954 -1.1882
 2421TIP3    H228755   2.737   3.825   2.254 -0.4160  0.6946 -1.6702
 2422TIP3   OH228756   4.452   5.028  17.064  0.0854  0.3399  0.0322
 2422TIP3    H128757   4.516   4.982  17.010 -0.1269 -0.9989  0.8655
 2422TIP3    H228758   4.482   5.012  17.154 -1.6975 -0.8161  0.4697
 2423TIP3   OH228759   4.140   0.896   5.768  0.5028  0.2389  0.5092
 2423TIP3    H128760   4.231   0.904   5.798  0.9474  0.1508 -0.7604
 2423TIP3    H228761   4.088   0.910   5.847  1.6079  0.6777  1.1909
 2424TIP3   OH228762   4.833   4.832   4.384 -0.1880  0.0292 -0.1799
 2424TIP3    H128763   4.825   4.835   4.289  0.6209 -2.0286 -0.3593
 2424TIP3    H228764   4.743   4.827   4.416 -0.4084 -1.8312 -0.9959
 2425TIP3   OH228765   4.240   3.722   3.177 -0.0737 -0.1237  0.2095
 2425TIP3    H128766   4.263   3.744   3.087  1.2721  1.4341  0.8821
 2425TIP3    H228767   4.239   3.627   3.179  0.4853 -0.1939 -1.2870
 2426TIP3   OH228768   4.088   0.217  12.058  0.4054  0.1135 -0.1541
 2426TIP3    H128769   4.091   0.310  12.083 -0.2944 -0.0621  0.6167
 2426TIP3    H228770   4.179   0.192  12.048  0.6561  1.7593 -3.7156
 2427TIP3   OH228771   0.477   1.586   2.050 -0.2728 -0.6345  0.0907
 2427TIP3    H128772   0.437   1.542   1.976 -1.2345 -2.6831  1.7147
 2427TIP3    H228773   0.545   1.526   2.080  1.0435  0.7791  0.0986
 2428TIP3   OH228774   6.167   5.758   4.923  0.1489  0.1559  0.4989
 2428TIP3    H128775   6.243   5.805   4.959 -0.7909  0.2384  2.4585
 2428TIP3    H228776   6.203   5.708   4.850  1.5548  2.4087 -0.4678
 2429TIP3   OH228777   5.904   1.563  14.633 -0.0236  0.2115  0.2986
 2429TIP3    H128778   5.959   1.494  14.672 -0.5012 -0.5088 -0.2669
 2429TIP3    H228779   5.943   1.578  14.547  0.2616  0.8805  0.5384
 2430TIP3   OH228780   6.367   2.454   5.479 -0.6120  0.2745 -0.1366
 2430TIP3    H128781   6.367   2.359   5.466 -1.1920  0.0185  1.5165
 2430TIP3    H228782   6.325   2.488   5.399 -0.9323 -0.9010 -0.5000
 2431TIP3   OH228783   2.203   3.782   1.520  0.1555  0.7572  0.6955
 2431TIP3    H128784   2.296   3.763   1.515  0.8187  3.7131  0.0812
 2431TIP3    H228785   2.172   3.731   1.595  2.1975 -0.4061  0.8121
 2432TIP3   OH228786   5.191   6.435  12.748 -0.2932 -0.5043 -0.5365
 2432TIP3    H128787   5.189   6.339  12.754 -1.0016 -0.3914  1.9952
 2432TIP3    H228788   5.193   6.465  12.839  1.2675  1.9001 -1.2874
 2433TIP3   OH228789   3.999   6.337  12.608  0.1403  0.9222  0.1955
 2433TIP3    H128790   3.945   6.282  12.665 -0.7524 -0.0773 -1.5155
 2433TIP3    H228791   3.967   6.318  12.520  1.1768  2.7264 -0.6192
 2434TIP3   OH228792   3.972   6.356   4.567 -0.5539  0.0073  0.6672
 2434TIP3    H128793   4.047   6.302   4.542 -0.4972 -1.0490  2.8820
 2434TIP3    H228794   3.896   6.302   4.547 -0.6520  0.3694  0.0467
 2435TIP3   OH228795   5.821   1.636  17.098 -0.0865  0.0800 -0.2544
 2435TIP3    H128796   5.793   1.643  17.007 -1.6701 -0.7487  0.1257
 2435TIP3    H228797   5.782   1.554  17.129  2.3949 -0.8847  0.5183
 2436TIP3   OH228798   4.557   6.340   1.964 -0.7973 -0.0788 -0.0732
 2436TIP3    H128799   4.512   6.339   2.049 -0.4278 -1.7166  0.1421
 2436TIP3    H228800   4.647   6.362   1.985 -0.7678 -0.1946 -0.0798
 2437TIP3   OH228801   1.298   0.911   1.921  0.2054  0.1273  0.1999
 2437TIP3    H128802   1.206   0.924   1.946 -0.2637 -1.4777 -0.5747
 2437TIP3    H228803   1.294   0.855   1.844  1.8395  0.4060 -0.1172
 2438TIP3   OH228804   0.499   3.636  15.706 -0.4204  0.1161 -0.6949
 2438TIP3    H128805   0.475   3.548  15.734  1.9125 -0.6854 -0.9708
 2438TIP3    H228806   0.476   3.693  15.779 -1.2088 -0.8213 -0.1943
 2439TIP3   OH228807   1.894   4.586   3.967  0.0505  0.1131  0.2129
 2439TIP3    H128808   1.854   4.560   4.050  0.4131 -1.0860  0.0238
 2439TIP3    H228809   1.984   4.553   3.971 -0.5250 -1.8648 -1.4947
 2440TIP3   OH228810   4.554   5.846  12.040  0.0361  0.8600  0.0531
 2440TIP3    H128811   4.634   5.800  12.062 -0.6719 -1.2998 -1.5287
 2440TIP3    H228812   4.569   5.882  11.952 -1.0821 -0.7176 -0.8546
 2441TIP3   OH228813   0.519   6.650   4.790 -0.1632  0.3089  0.2509
 2441TIP3    H128814   0.433   6.673   4.822 -0.3967 -0.3102  0.0905
 2441TIP3    H228815   0.580   6.683   4.856 -0.5142  0.8251  0.3164
 2442TIP3   OH228816   5.667   2.940   0.045  0.1886  0.0054 -0.3474
 2442TIP3    H128817   5.678   2.988  -0.037  1.8171  1.0870  0.4322
 2442TIP3    H228818   5.754   2.943   0.085  0.2513 -3.1772  0.0169
 2443TIP3   OH228819   5.176   4.099   0.144 -0.0420  0.4252 -0.3543
 2443TIP3    H128820   5.190   4.097   0.049 -0.3749 -0.1126 -0.3940
 2443TIP3    H228821   5.124   4.178   0.159 -0.0650  0.4624 -0.6287
 2444TIP3   OH228822   5.840   4.615  16.829  0.0565  0.5454  0.1463
 2444TIP3    H128823   5.832   4.660  16.745 -3.9046 -0.6180 -0.3436
 2444TIP3    H228824   5.836   4.684  16.895  0.2138  1.2919 -0.6190
 2445TIP3   OH228825   5.598   1.378   3.100 -0.0603  0.3748  0.6597
 2445TIP3    H128826   5.540   1.317   3.054 -0.5669  0.5016  1.1185
 2445TIP3    H228827   5.685   1.356   3.068 -0.2552 -0.4701  0.6728
 2446TIP3   OH228828   4.382   3.536   4.316 -0.2963  0.2087  0.6025
 2446TIP3    H128829   4.347   3.524   4.228 -0.5907  0.7312  0.6411
 2446TIP3    H228830   4.427   3.454   4.336 -0.1754  0.1069 -0.0573
 2447TIP3   OH228831   5.062   0.968   2.959 -0.4808  0.0470 -0.2439
 2447TIP3    H128832   5.043   0.932   2.872 -0.4528  2.3181 -1.2678
 2447TIP3    H228833   5.158   0.973   2.962 -0.3343 -2.1236  0.9021
 2448TIP3   OH228834   0.079   3.639  13.026 -0.0322 -0.0551  0.2491
 2448TIP3    H128835   0.145   3.572  13.010 -0.5487 -0.0367 -2.3872
 2448TIP3    H228836   0.127   3.710  13.068  1.5798 -0.2360 -1.1507
 2449TIP3   OH228837   5.742   1.287  12.615  0.4349 -0.3438 -0.7065
 2449TIP3    H128838   5.816   1.228  12.628  0.7682  0.5198  1.7384
 2449TIP3    H228839   5.671   1.247  12.664  1.0238  1.8165  2.1650
 2450TIP3   OH228840   3.084   0.603   0.268 -0.0779 -0.1073  0.5636
 2450TIP3    H128841   3.049   0.690   0.286 -2.3865 -1.0876  1.2149
 2450TIP3    H228842   3.104   0.566   0.354 -1.3471 -1.0493  0.4749
 2451TIP3   OH228843   4.089   6.329  15.281 -0.3906 -0.5214 -0.2171
 2451TIP3    H128844   4.086   6.235  15.299  1.0380 -0.6039 -0.3149
 2451TIP3    H228845   4.144   6.365  15.351 -1.8804  0.4519  0.5283
 2452TIP3   OH228846   2.937   1.727   5.520 -0.0535  0.3181  0.1795
 2452TIP3    H128847   2.918   1.754   5.610  0.9912 -1.4669  0.9918
 2452TIP3    H228848   3.025   1.689   5.524  0.0100  0.1812 -1.5925
 2453TIP3   OH228849   1.063   1.062   2.005 -0.4955 -0.2677 -0.0044
 2453TIP3    H128850   1.077   1.131   1.939  1.4205  0.6564  1.2702
 2453TIP3    H228851   1.075   1.107   2.089  0.9208 -2.1617  0.8747
 2454TIP3   OH228852   0.964   3.414   1.144  0.0508  0.0611 -0.6016
 2454TIP3    H128853   0.908   3.338   1.128  1.1580 -0.7459 -0.8133
 2454TIP3    H228854   1.048   3.376   1.171  0.4918  1.2299 -0.2842
 2455TIP3   OH228855   4.508   6.480   4.861  0.1461  0.2474 -0.2518
 2455TIP3    H128856   4.468   6.427   4.793 -1.0414  1.2094 -0.3373
 2455TIP3    H228857   4.523   6.419   4.933 -1.6998 -0.1292 -0.1370
 2456TIP3   OH228858   4.012   1.532   5.051  0.5296 -0.2039  0.2903
 2456TIP3    H128859   3.921   1.520   5.026  0.3815  0.9448  0.2307
 2456TIP3    H228860   4.059   1.542   4.968  0.4342  0.9433  0.3558
 2457TIP3   OH228861   3.029   0.507   5.865  0.6662 -0.3858  0.3280
 2457TIP3    H128862   2.946   0.550   5.886  1.3752  0.7126  1.0390
 2457TIP3    H228863   3.056   0.466   5.948  1.0655 -0.3128  0.2340
 2458TIP3   OH228864   6.280   1.859  16.821  0.4049 -0.4762  0.0629
 2458TIP3    H128865   6.185   1.862  16.833  0.3807  0.5051 -0.2932
 2458TIP3    H228866   6.301   1.766  16.826 -0.0321 -0.5487  4.1851
 2459TIP3   OH228867   0.415   5.778   1.988 -0.0098  0.1274 -0.2641
 2459TIP3    H128868   0.459   5.845   1.936 -1.1313 -0.2246 -1.7194
 2459TIP3    H228869   0.468   5.699   1.977 -0.4574 -0.0470 -1.2150
 2460TIP3   OH228870   2.028   0.085  15.846 -0.3592 -0.1255  0.8878
 2460TIP3    H128871   1.990   0.173  15.842  0.8248  0.3665 -2.1653
 2460TIP3    H228872   1.977   0.033  15.784  0.8032 -0.7683  0.4219
 2461TIP3   OH228873   1.906   4.609   0.736  0.4482 -0.0345  0.3891
 2461TIP3    H128874   1.831   4.613   0.795  1.0803  0.3088  1.1776
 2461TIP3    H228875   1.887   4.536   0.678 -0.6825  0.2956  0.3232
 2462TIP3   OH228876   1.517   0.840   2.446 -0.0010 -0.6561 -0.2675
 2462TIP3    H128877   1.579   0.867   2.377  0.5846 -1.7778 -0.2147
 2462TIP3    H228878   1.571   0.792   2.509 -0.8534 -1.2941 -0.0027
 2463TIP3   OH228879   5.941   0.550   2.471 -0.4857  0.0789  0.0945
 2463TIP3    H128880   5.986   0.617   2.420  0.3168  0.3506  1.1460
 2463TIP3    H228881   5.944   0.581   2.561 -0.0548 -1.3838  0.6106
 2464TIP3   OH228882   2.788   6.325   3.538 -0.2781  0.1843 -0.0073
 2464TIP3    H128883   2.761   6.363   3.455  0.5446  1.3245  0.2269
 2464TIP3    H228884   2.880   6.350   3.547  0.0722 -1.1982  0.5467
 2465TIP3   OH228885   6.727   2.564   6.886 -0.5545 -0.5678 -0.6322
 2465TIP3    H128886   6.747   2.504   6.958  0.7105 -0.4160 -0.8336
 2465TIP3    H228887   6.719   2.650   6.928 -0.8875 -0.6412 -0.5403
 2466TIP3   OH228888   0.722   0.660  15.507  0.3183 -0.1107  0.2865
 2466TIP3    H128889   0.646   0.664  15.448  0.8023  2.5618 -0.2924
 2466TIP3    H228890   0.685   0.673  15.594  0.0606  1.4783 -0.0213
 2467TIP3   OH228891   2.127   1.206   5.623  0.0599 -0.8526  0.3997
 2467TIP3    H128892   2.123   1.272   5.693  0.2512  0.7756 -1.0507
 2467TIP3    H228893   2.178   1.248   5.553 -1.0185 -1.9820 -1.1397
 2468TIP3   OH228894   4.112   0.865  15.597 -0.3098  0.1871 -0.0020
 2468TIP3    H128895   4.207   0.853  15.597 -0.2985  0.2723 -0.0397
 2468TIP3    H228896   4.090   0.877  15.690  0.0655  2.7807 -0.1605
 2469TIP3   OH228897   6.682   4.357   4.080 -0.1998  0.1839  0.1041
 2469TIP3    H128898   6.731   4.278   4.055  0.7166  0.0353  2.1643
 2469TIP3    H228899   6.674   4.407   3.998  0.5696 -1.3016 -0.9301
 2470TIP3   OH228900   0.518   2.151   3.183  0.1939  0.2325 -1.0289
 2470TIP3    H128901   0.553   2.133   3.095  0.6141 -1.1521 -0.5962
 2470TIP3    H228902   0.444   2.209   3.167 -1.2750 -1.9054 -2.5758
 2471TIP3   OH228903   6.638   5.580  14.747 -0.1993  0.2233  0.1222
 2471TIP3    H128904   6.720   5.629  14.754 -0.3528  0.6893 -1.0765
 2471TIP3    H228905   6.621   5.548  14.836  0.3117  1.6908  0.7861
 2472TIP3   OH228906   2.839   6.016  16.428  0.2505 -0.0467 -0.0366
 2472TIP3    H128907   2.811   5.991  16.517 -1.3617  0.5496 -0.3379
 2472TIP3    H228908   2.844   6.112  16.431 -3.9363  0.4617 -1.5644
 2473TIP3   OH228909   1.405   2.151   0.257  0.0639 -0.1239  0.3463
 2473TIP3    H128910   1.497   2.143   0.283  0.6557  2.3731 -0.7232
 2473TIP3    H228911   1.379   2.239   0.287 -1.4377 -0.0857 -0.9450
 2474TIP3   OH228912   2.554   1.746  16.103  0.5469 -0.0442  0.3533
 2474TIP3    H128913   2.618   1.727  16.035 -0.2230  1.9625 -1.0086
 2474TIP3    H228914   2.527   1.659  16.135  2.1988 -0.9785 -0.6452
 2475TIP3   OH228915   1.312   3.620   2.472 -0.4276  0.3363 -0.2669
 2475TIP3    H128916   1.271   3.696   2.431  0.3544  0.9486  0.0522
 2475TIP3    H228917   1.397   3.652   2.502  0.6560 -1.0703 -1.6371
 2476TIP3   OH228918   6.269   5.458  11.253  0.1518 -0.6538 -0.2208
 2476TIP3    H128919   6.174   5.458  11.265  0.2083 -0.6844  0.2577
 2476TIP3    H228920   6.290   5.546  11.224  0.1920 -0.0509  1.5169
 2477TIP3   OH228921   6.725   3.907  10.938  0.5943  0.0246 -0.1380
 2477TIP3    H128922   6.705   3.818  10.965  1.7661 -0.1259  0.2899
 2477TIP3    H228923   6.792   3.937  10.999 -0.1807  1.4124  0.0938
 2478TIP3   OH228924   0.853   4.934  12.790 -0.3062  0.0237  0.6860
 2478TIP3    H128925   0.875   4.953  12.881  0.6399  2.1440  0.0845
 2478TIP3    H228926   0.757   4.934  12.787 -0.3805 -1.5308  1.9090
 2479TIP3   OH228927   6.039   5.784  15.121  0.6003 -0.1966  0.1054
 2479TIP3    H128928   6.010   5.716  15.182  3.4555 -1.1705  0.5713
 2479TIP3    H228929   6.060   5.858  15.178  0.0741  0.1145 -0.1006
 2480TIP3   OH228930   1.770   3.754   4.768  0.0942  0.2568  0.1317
 2480TIP3    H128931   1.698   3.756   4.706 -0.3226 -0.3061  0.5877
 2480TIP3    H228932   1.759   3.672   4.817 -0.0214  1.0154  1.4413
 2481TIP3   OH228933   4.796   0.594  15.082  0.3184  0.0346  0.0103
 2481TIP3    H128934   4.799   0.674  15.134 -0.3051 -0.0955  0.2686
 2481TIP3    H228935   4.785   0.524  15.147  1.1087 -0.2844 -0.1953
 2482TIP3   OH228936   5.013   0.725  14.040 -0.5542 -0.1441 -0.3754
 2482TIP3    H128937   4.923   0.741  14.070  0.0303  0.6090  1.0332
 2482TIP3    H228938   5.035   0.803  13.988 -0.1749  0.4169  0.6066
 2483TIP3   OH228939   2.465   3.989   1.600 -0.2492 -0.2162  0.3299
 2483TIP3    H128940   2.498   3.983   1.511  0.1940  1.0047  0.3852
 2483TIP3    H228941   2.378   4.029   1.591  0.4988  1.5333  0.5364
 2484TIP3   OH228942   3.110   4.936   0.270  0.0575 -0.4017 -0.0165
 2484TIP3    H128943   3.161   4.989   0.209 -0.0096  1.9268  1.7745
 2484TIP3    H228944   3.156   4.945   0.354 -0.0420 -3.1780  0.4292
 2485TIP3   OH228945   2.231   6.663  15.897 -0.1908 -0.5085 -0.4041
 2485TIP3    H128946   2.261   6.751  15.918 -0.4967 -0.4404 -0.2464
 2485TIP3    H228947   2.146   6.655  15.940 -0.7410 -0.4469 -1.4432
 2486TIP3   OH228948   4.116   4.762   4.910 -0.2703  0.3194 -0.0459
 2486TIP3    H128949   4.204   4.726   4.903  0.5646  1.8999  1.3585
 2486TIP3    H228950   4.069   4.728   4.834  2.1537  1.0672 -2.0143
 2487TIP3   OH228951   1.136   3.980  16.748 -0.1277 -0.0712  0.0419
 2487TIP3    H128952   1.071   4.019  16.690 -0.0492 -0.1071 -0.0715
 2487TIP3    H228953   1.090   3.966  16.830 -0.8407 -1.9607 -0.6457
 2488TIP3   OH228954   6.276   2.903   0.625  0.2977 -0.2573 -0.3029
 2488TIP3    H128955   6.256   2.819   0.584 -0.3431  0.5415 -1.6878
 2488TIP3    H228956   6.193   2.933   0.661  0.5218 -0.1956  0.1736
 2489TIP3   OH228957   6.230   3.673  12.779  0.5823 -0.5937 -0.0959
 2489TIP3    H128958   6.164   3.608  12.804  1.4111 -0.7849  1.7436
 2489TIP3    H228959   6.312   3.624  12.774  1.1686  0.2118  1.0591
 2490TIP3   OH228960   2.605   0.418  16.925 -0.4375  0.3236 -0.2300
 2490TIP3    H128961   2.657   0.337  16.916 -0.4271  0.1290  1.3267
 2490TIP3    H228962   2.599   0.452  16.836  1.0196 -0.4967 -0.6840
 2491TIP3   OH228963   6.649   1.998  14.179 -0.2992 -0.1340 -0.0057
 2491TIP3    H128964   6.553   2.000  14.180 -0.3125  1.6566  1.3549
 2491TIP3    H228965   6.674   2.037  14.263  1.6019  0.9670 -1.0219
 2492TIP3   OH228966   3.587   3.101  14.986  0.5022 -1.1792  0.3539
 2492TIP3    H128967   3.505   3.137  15.020  0.9963 -0.8909  1.2575
 2492TIP3    H228968   3.648   3.174  14.988 -0.3227 -0.0117 -4.6105
 2493TIP3   OH228969   3.486   2.173  16.773  0.0762 -0.1333  0.1023
 2493TIP3    H128970   3.547   2.234  16.732 -0.0770 -1.2190 -1.8672
 2493TIP3    H228971   3.435   2.227  16.833  0.0352  1.6668 -1.4498
 2494TIP3   OH228972   4.325   1.215  12.639 -0.0441  0.0598  1.2420
 2494TIP3    H128973   4.241   1.169  12.640  0.6103 -1.2649 -0.1966
 2494TIP3    H228974   4.369   1.183  12.561  0.9295  2.3946  0.7478
 2495TIP3   OH228975   5.671   3.971   0.371  0.1462  0.4638 -0.2144
 2495TIP3    H128976   5.583   3.941   0.391  0.4669  0.0634  0.6487
 2495TIP3    H228977   5.716   3.893   0.337  0.4542  0.4162  0.2982
 2496TIP3   OH228978   5.520   6.239   0.473  0.2086 -0.0439 -0.5102
 2496TIP3    H128979   5.594   6.182   0.454 -0.3236 -0.7780 -0.4327
 2496TIP3    H228980   5.443   6.184   0.461 -0.2646  0.2290  1.0002
 2497TIP3   OH228981   1.010   1.487   3.692 -0.1302 -0.2889 -0.6074
 2497TIP3    H128982   1.070   1.537   3.747 -1.1246 -0.9948  1.2116
 2497TIP3    H228983   0.924   1.500   3.733 -1.3630  1.0294 -3.3574
 2498TIP3   OH228984   2.899   1.040   5.593 -0.1023 -0.7313 -0.1956
 2498TIP3    H128985   2.805   1.030   5.605  0.0790 -2.0577  0.3582
 2498TIP3    H228986   2.928   0.954   5.563  0.9785 -0.4263 -0.0574
 2499TIP3   OH228987   5.574   4.722  14.098 -0.4961  0.4879 -0.5564
 2499TIP3    H128988   5.482   4.707  14.119 -0.0392 -2.5540 -0.1391
 2499TIP3    H228989   5.594   4.654  14.033  1.5074  0.9160 -0.4358
 2500TIP3   OH228990   0.146   6.262  14.743  0.6075  0.2630  0.6233
 2500TIP3    H128991   0.096   6.343  14.734  1.4938  0.8669  0.9109
 2500TIP3    H228992   0.201   6.277  14.820  2.2899  0.2300 -0.5161
 2501TIP3   OH228993   3.645   4.716  16.319 -0.1624  0.3243 -0.6808
 2501TIP3    H128994   3.718   4.696  16.260  0.8737  0.5749  0.4690
 2501TIP3    H228995   3.673   4.682  16.404 -1.5453  0.1304 -0.2722
 2502TIP3   OH228996   4.931   1.457  16.278 -0.2845  0.0015  0.1723
 2502TIP3    H128997   4.872   1.489  16.209 -0.2317  0.1066  0.1744
 2502TIP3    H228998   4.966   1.375  16.244  1.2091  0.9784 -0.7486
 2503TIP3   OH228999   1.254   0.809  12.488 -0.1956  0.2000 -0.4497
 2503TIP3    H129000   1.338   0.816  12.442  0.0129  0.9244  0.0291
 2503TIP3    H229001   1.277   0.780  12.576 -0.3114  1.7386  0.1039
 2504TIP3   OH229002   0.394   3.499  13.659 -0.0875  0.0916 -0.4378
 2504TIP3    H129003   0.378   3.593  13.648  1.4201  0.5550  0.8413
 2504TIP3    H229004   0.449   3.475  13.585 -1.1496  0.0050 -1.2180
 2505TIP3   OH229005   3.904   0.764  16.937  0.5400 -0.1030  0.1496
 2505TIP3    H129006   3.999   0.766  16.938  0.5384  1.3399  1.1822
 2505TIP3    H229007   3.882   0.673  16.918  2.1125 -0.3698 -0.5184
 2506TIP3   OH229008   4.098   2.979  13.842  0.4878 -0.0922  0.1050
 2506TIP3    H129009   4.078   3.055  13.787  0.6514  0.3214  0.6029
 2506TIP3    H229010   4.174   3.007  13.893 -0.4856  0.0634  1.5340
 2507TIP3   OH229011   4.453   4.931  15.865  0.3704  0.5824  0.0638
 2507TIP3    H129012   4.520   4.924  15.934 -0.7688  1.6607  1.3230
 2507TIP3    H229013   4.425   5.022  15.867  0.0271  0.5495 -1.6041
 2508TIP3   OH229014   3.256   2.969   3.743 -0.2680  0.0024 -0.0214
 2508TIP3    H129015   3.240   2.881   3.776 -0.8862  0.3089  0.4995
 2508TIP3    H229016   3.238   2.963   3.649  1.5414 -0.8829 -0.3614
 2509TIP3   OH229017   6.490   0.558   5.066  0.3776  0.1526  0.1622
 2509TIP3    H129018   6.579   0.588   5.047  0.6998 -1.2618 -0.6812
 2509TIP3    H229019   6.494   0.527   5.157  0.8898 -0.4316 -0.0586
 2510TIP3   OH229020   0.233   4.886  16.800 -0.7020  0.8622  0.1884
 2510TIP3    H129021   0.243   4.868  16.893  1.0371 -0.2399 -0.1448
 2510TIP3    H229022   0.286   4.818  16.757 -1.1894  1.5381 -1.5791
 2511TIP3   OH229023   6.497   2.650  15.062 -0.3668  0.1574  0.3137
 2511TIP3    H129024   6.560   2.721  15.053 -0.7803  0.5597  0.5679
 2511TIP3    H229025   6.492   2.612  14.974  0.3531  0.0109  0.3328
 2512TIP3   OH229026   4.462   0.786   3.490 -0.1116 -0.3675  0.0597
 2512TIP3    H129027   4.478   0.736   3.410  1.4575 -1.2311  0.8649
 2512TIP3    H229028   4.480   0.877   3.466 -2.1554 -0.2349 -1.1942
 2513TIP3   OH229029   6.258   4.758   3.072  0.5647 -0.0166  0.0512
 2513TIP3    H129030   6.173   4.715   3.069  0.6095 -0.1081  0.0673
 2513TIP3    H229031   6.296   4.741   2.985 -0.2245  1.6654 -0.6725
 2514TIP3   OH229032   1.545   6.076   5.631 -0.1397  0.7776  0.0747
 2514TIP3    H129033   1.600   6.042   5.561  1.0723  0.6450  1.0494
 2514TIP3    H229034   1.462   6.030   5.621  0.3414  0.0440 -0.6827
 2515TIP3   OH229035   3.947   4.463  16.949  0.4978 -0.4155  0.5081
 2515TIP3    H129036   4.041   4.456  16.932 -0.1279 -1.8495 -3.4605
 2515TIP3    H229037   3.907   4.405  16.884 -3.1862  0.3242  1.8809
 2516TIP3   OH229038   4.668   5.885  16.475 -0.1975  0.0125 -0.1349
 2516TIP3    H129039   4.706   5.877  16.562 -0.8860 -0.4088  0.1349
 2516TIP3    H229040   4.661   5.795  16.443 -1.2996  0.0473 -0.0277
 2517TIP3   OH229041   4.498   1.376   3.300  0.7018  0.7119 -0.4055
 2517TIP3    H129042   4.496   1.326   3.218 -0.6766  0.8174 -0.4642
 2517TIP3    H229043   4.413   1.359   3.340  0.9099  1.5952  0.4390
 2518TIP3   OH229044   0.140   6.698   0.563  0.3920 -0.5270 -0.2229
 2518TIP3    H129045   0.168   6.768   0.504 -0.8446 -1.1320 -1.5771
 2518TIP3    H229046   0.140   6.740   0.650  0.8718  0.7857 -0.8224
 2519TIP3   OH229047   6.106   1.109  10.695 -0.0437 -0.2465  0.1851
 2519TIP3    H129048   6.057   1.059  10.630  1.9137 -2.5349  0.3377
 2519TIP3    H229049   6.123   1.193  10.653 -3.4799  0.4976 -0.0628
 2520TIP3   OH229050   0.192   4.352   0.337  0.2165 -0.0625  0.2891
 2520TIP3    H129051   0.231   4.431   0.377 -1.9883  0.9808  0.5108
 2520TIP3    H229052   0.161   4.301   0.411 -2.1376  0.9459  0.0848
 2521TIP3   OH229053   5.199   4.014  15.369  0.0455 -0.2058  0.0797
 2521TIP3    H129054   5.106   4.001  15.386 -0.1902  2.7615  1.6619
 2521TIP3    H229055   5.244   3.971  15.441 -0.1569 -0.6426 -0.0549
 2522TIP3   OH229056   2.349   0.271   3.330 -0.2200  0.4067 -0.1571
 2522TIP3    H129057   2.395   0.354   3.342 -1.6910  1.1433  0.6006
 2522TIP3    H229058   2.366   0.248   3.238  0.0194  1.6659 -0.4508
 2523TIP3   OH229059   4.472   6.282  14.603  0.2796  0.0176  0.2023
 2523TIP3    H129060   4.488   6.212  14.539 -0.2051 -1.7362  1.8948
 2523TIP3    H229061   4.540   6.269  14.669 -0.8503  0.0568  1.4010
 2524TIP3   OH229062   6.311   2.876   3.975 -0.0979 -0.9495  0.7606
 2524TIP3    H129063   6.312   2.911   3.886 -1.2439 -3.2148 -0.2086
 2524TIP3    H229064   6.293   2.953   4.030 -0.1835  0.3653 -1.0073
 2525TIP3   OH229065   3.367   5.676   2.518 -0.1277  0.1454  0.0147
 2525TIP3    H129066   3.347   5.634   2.434 -0.5896  1.2730 -0.4549
 2525TIP3    H229067   3.451   5.719   2.503  0.4909 -0.8187  0.5889
 2526TIP3   OH229068   6.192   0.577   6.460 -0.0151 -0.0532 -0.0832
 2526TIP3    H129069   6.201   0.615   6.547 -1.3942 -0.3689  0.2155
 2526TIP3    H229070   6.102   0.544   6.457  0.1996 -0.5815 -1.4121
 2527TIP3   OH229071   0.120   5.162  14.522 -0.8893  0.2885 -0.0979
 2527TIP3    H129072   0.213   5.157  14.500 -0.3507 -2.5904  2.2144
 2527TIP3    H229073   0.115   5.230  14.589  0.4936 -2.4196  3.0224
 2528TIP3   OH229074   1.580   5.251   2.310  0.1733  0.2064 -0.2115
 2528TIP3    H129075   1.542   5.319   2.255 -0.1555  0.1501 -0.0577
 2528TIP3    H229076   1.619   5.298   2.383  0.4048  0.2649 -0.3704
 2529TIP3   OH229077   6.604   5.177  16.944  0.0565  0.2007  0.0762
 2529TIP3    H129078   6.610   5.122  17.022 -1.4159 -0.0871  0.0033
 2529TIP3    H229079   6.669   5.140  16.884 -1.5402 -2.0856 -0.3399
 2530TIP3   OH229080   5.343   2.892   3.440  0.0126 -0.6265  0.2378
 2530TIP3    H129081   5.310   2.804   3.459  0.2830 -0.9086 -0.5772
 2530TIP3    H229082   5.282   2.928   3.375 -0.6053  0.1316  1.2084
 2531TIP3   OH229083   6.800   5.652  12.569 -0.4096 -0.4187 -0.4049
 2531TIP3    H129084   6.838   5.580  12.520 -1.2943 -0.0552 -1.6719
 2531TIP3    H229085   6.733   5.611  12.624 -0.7212 -0.6039 -0.9179
 2532TIP3   OH229086   3.995   0.245   1.087  0.3433  0.6166 -0.0502
 2532TIP3    H129087   4.044   0.207   1.161  1.3767  1.7389 -0.1413
 2532TIP3    H229088   3.928   0.299   1.129 -0.9258 -0.9583  0.0750
 2533TIP3   OH229089   1.001   2.130   4.344 -0.4050  0.0258  0.4687
 2533TIP3    H129090   1.016   2.172   4.259  4.9410  0.2852  1.2260
 2533TIP3    H229091   1.018   2.198   4.408 -1.7836 -0.8342  1.8253
 2534TIP3   OH229092   3.960   3.027  15.834 -0.3368  0.5430 -0.3700
 2534TIP3    H129093   3.989   2.938  15.812  1.0093  0.7696  0.3588
 2534TIP3    H229094   3.927   3.062  15.751 -2.6648 -1.2329 -0.2932
 2535TIP3   OH229095   3.172   5.627   0.200  0.1197 -0.1071  0.0012
 2535TIP3    H129096   3.145   5.629   0.291  0.0848  0.5033 -0.0191
 2535TIP3    H229097   3.265   5.649   0.202  0.0647  0.1361 -0.1322
 2536TIP3   OH229098   4.372   0.237  12.016  0.2121  0.7491  0.4796
 2536TIP3    H129099   4.366   0.332  12.020  0.9262  0.7678  1.1757
 2536TIP3    H229100   4.406   0.219  11.928 -2.2778  0.9910 -0.6234
 2537TIP3   OH229101   5.501   2.493  11.784 -0.2497  0.2488 -0.3306
 2537TIP3    H129102   5.435   2.507  11.852 -0.8652 -0.8690 -0.6784
 2537TIP3    H229103   5.572   2.553  11.808 -0.8714  0.6012  0.7306
 2538TIP3   OH229104   6.719   4.737  16.848 -0.2251  0.5730 -0.1098
 2538TIP3    H129105   6.754   4.759  16.934 -0.5051 -0.3164  0.2400
 2538TIP3    H229106   6.792   4.694  16.803  0.6351  2.9359 -1.1429
 2539TIP3   OH229107   1.803   5.136   5.233 -0.4664  0.1525 -0.0244
 2539TIP3    H129108   1.811   5.106   5.323 -1.5237 -1.4805 -0.4175
 2539TIP3    H229109   1.749   5.215   5.238 -3.2126 -1.6163  0.5890
 2540TIP3   OH229110   0.945   2.675  11.531  0.1779 -0.2057 -0.5979
 2540TIP3    H129111   1.026   2.711  11.496 -0.1682 -1.1995 -2.5679
 2540TIP3    H229112   0.877   2.737  11.503  0.0184 -0.4434 -0.7367
 2541TIP3   OH229113   2.749   6.046   3.993  0.2240 -0.6418  0.4172
 2541TIP3    H129114   2.695   6.034   3.915  2.6795 -0.8289 -1.3798
 2541TIP3    H229115   2.716   6.128   4.032 -0.1021  0.3224 -1.6951
 2542TIP3   OH229116   2.465   3.495  11.998  0.0930  0.0065 -0.2108
 2542TIP3    H129117   2.489   3.554  11.927  0.6716 -0.3222 -0.2949
 2542TIP3    H229118   2.383   3.530  12.032  0.3154  0.7282 -0.4029
 2543TIP3   OH229119   1.817   2.408  15.927  0.0741 -0.1601  0.1405
 2543TIP3    H129120   1.849   2.319  15.918  1.6049  0.3382  0.3393
 2543TIP3    H229121   1.733   2.400  15.972  0.1650 -1.4899  0.0973
 2544TIP3   OH229122   3.689   2.613   0.061  0.3804  0.3088  0.3901
 2544TIP3    H129123   3.755   2.674   0.029  0.2072  0.6461  0.6682
 2544TIP3    H229124   3.721   2.527   0.035  0.4360  0.5469 -0.3314
 2545TIP3   OH229125   0.311   0.560  14.554 -0.3078 -0.2425  0.3685
 2545TIP3    H129126   0.223   0.594  14.534  0.3973  2.7755  1.7439
 2545TIP3    H229127   0.348   0.537  14.469 -1.6590  0.5512 -0.4778
 2546TIP3   OH229128   4.765   4.269  11.952 -0.1085 -0.3086 -0.1605
 2546TIP3    H129129   4.755   4.224  12.036 -0.9588 -1.3045 -0.7769
 2546TIP3    H229130   4.707   4.222  11.892 -1.5045  1.9638 -0.7126
 2547TIP3   OH229131   4.990   6.802  16.614  0.1180  0.0088  0.1566
 2547TIP3    H129132   4.913   6.837  16.569 -0.5178  0.8962  1.8451
 2547TIP3    H229133   4.965   6.713  16.637 -0.1790  0.0976  0.1866
 2548TIP3   OH229134   0.919   3.387  16.066 -0.3478 -0.3620  0.3184
 2548TIP3    H129135   0.854   3.320  16.088 -2.3706  0.7328 -1.8200
 2548TIP3    H229136   0.868   3.468  16.060  1.6538  0.9987  0.7690
 2549TIP3   OH229137   1.023   3.646   2.280 -0.6735 -0.1877 -0.0133
 2549TIP3    H129138   1.064   3.591   2.347 -0.1985  1.2291  0.9037
 2549TIP3    H229139   1.087   3.715   2.264 -1.2979  0.1659 -1.0626
 2550TIP3   OH229140   3.440   6.772   4.197  0.6632  0.1979  0.3730
 2550TIP3    H129141   3.453   6.863   4.169 -0.3806  0.7262  1.5106
 2550TIP3    H229142   3.477   6.720   4.125 -0.1207  1.4916 -1.0432
 2551TIP3   OH229143   2.254   1.514  16.986 -0.7128  0.5717  0.1618
 2551TIP3    H129144   2.281   1.540  16.898  1.3164 -1.1132  0.2098
 2551TIP3    H229145   2.162   1.490  16.977 -2.0166  4.8646 -0.4148
 2552TIP3   OH229146   6.552   5.554  12.209  0.1875 -0.5704  0.5624
 2552TIP3    H129147   6.457   5.551  12.198  0.1130 -1.4611  1.3236
 2552TIP3    H229148   6.568   5.626  12.269  0.0379 -0.1390  0.0930
 2553TIP3   OH229149   2.344   2.237  11.757  0.1959  0.1389 -0.1023
 2553TIP3    H129150   2.377   2.253  11.846  1.7399  0.8971 -0.7638
 2553TIP3    H229151   2.269   2.295  11.750 -1.5209 -1.7312  1.5010
 2554TIP3   OH229152   1.688   5.018  11.851 -0.5043 -0.2292  0.0128
 2554TIP3    H129153   1.781   5.006  11.870 -0.0965  0.8123 -1.2186
 2554TIP3    H229154   1.643   4.965  11.918  0.8858  1.1121  2.1548
 2555TIP3   OH229155   5.111   1.288  15.867  0.2966 -0.4334  0.0367
 2555TIP3    H129156   5.053   1.356  15.832 -2.3830 -1.5702  1.8939
 2555TIP3    H229157   5.158   1.332  15.938 -1.0660 -0.3242  0.9156
 2556TIP3   OH229158   1.241   4.623  15.422 -0.5416  0.1132  0.4145
 2556TIP3    H129159   1.181   4.673  15.366  0.2249  0.9467  0.3091
 2556TIP3    H229160   1.199   4.537  15.432 -0.6456 -0.1017 -1.5283
 2557TIP3   OH229161   2.457   6.700  15.386  0.1919 -0.4820  0.1870
 2557TIP3    H129162   2.443   6.668  15.475 -0.2417 -0.4374  0.1378
 2557TIP3    H229163   2.397   6.775  15.377 -0.0816 -0.7452 -0.2774
 2558TIP3   OH229164   0.116   1.147   4.247  0.1360 -0.7282 -0.2244
 2558TIP3    H129165   0.173   1.085   4.292  2.3848  2.2298  1.3908
 2558TIP3    H229166   0.172   1.186   4.180 -0.2914  1.3546  0.5564
 2559TIP3   OH229167   5.744   5.400   4.588 -0.6953 -0.1921  0.3070
 2559TIP3    H129168   5.672   5.336   4.591  0.5730 -1.7526 -0.8714
 2559TIP3    H229169   5.732   5.447   4.506 -1.8803  1.4878  1.3737
 2560TIP3   OH229170   3.690   5.717  12.828  0.0475  0.2659  0.5803
 2560TIP3    H129171   3.613   5.670  12.797 -0.0616  0.1845  0.9734
 2560TIP3    H229172   3.738   5.653  12.881 -0.3815  0.7544  1.5711
 2561TIP3   OH229173   2.368   0.786  10.391  0.0859  0.1986 -0.2544
 2561TIP3    H129174   2.435   0.791  10.323 -1.3888  0.5298 -1.7374
 2561TIP3    H229175   2.389   0.859  10.450  1.0930  0.2038 -0.5927
 2562TIP3   OH229176   0.728   2.136  12.928  0.0086  1.1265 -0.1910
 2562TIP3    H129177   0.768   2.152  12.843  0.6287  1.1667  0.1026
 2562TIP3    H229178   0.763   2.051  12.955  0.7778  1.6598  0.5568
 2563TIP3   OH229179   6.703   6.098  11.327  0.0982 -0.0109  0.6982
 2563TIP3    H129180   6.700   6.124  11.419  0.6495  1.5190  0.3201
 2563TIP3    H229181   6.796   6.100  11.305 -0.0432 -0.2198  0.0735
 2564TIP3   OH229182   4.788   4.337  14.382 -0.3547  0.1310 -0.2866
 2564TIP3    H129183   4.792   4.402  14.451 -0.5963 -0.1505 -0.0059
 2564TIP3    H229184   4.704   4.353  14.339 -0.5288 -0.1526 -0.0579
 2565TIP3   OH229185   5.650   2.228   3.970  0.5283  0.3789  0.4697
 2565TIP3    H129186   5.615   2.313   3.943 -1.7664  0.4316  3.2170
 2565TIP3    H229187   5.719   2.250   4.033  0.1981  0.2048  0.8912
 2566TIP3   OH229188   2.640   6.760  14.505  0.3115 -0.0597  0.0516
 2566TIP3    H129189   2.563   6.703  14.509 -1.1574  1.7109 -0.9916
 2566TIP3    H229190   2.663   6.776  14.597 -0.4759 -0.7370  0.3829
 2567TIP3   OH229191   5.142   6.305   1.219  0.1804  0.1860  0.1586
 2567TIP3    H129192   5.233   6.328   1.206 -0.2703  1.4264 -1.0321
 2567TIP3    H229193   5.101   6.385   1.251 -0.2810 -0.6930  1.8855
 2568TIP3   OH229194   5.238   2.555  11.924 -0.1558 -0.2923  0.5277
 2568TIP3    H129195   5.183   2.633  11.917 -1.4871 -1.0783  1.7768
 2568TIP3    H229196   5.309   2.580  11.983 -0.7942 -0.1183  1.2350
 2569TIP3   OH229197   4.084   3.612   0.358  0.1148 -0.3645 -0.4250
 2569TIP3    H129198   4.167   3.592   0.402 -0.0490 -1.2662 -0.5054
 2569TIP3    H229199   4.023   3.630   0.430  0.2809 -0.0795 -0.3526
 2570TIP3   OH229200   2.220   2.248  14.543  0.1021  0.2811  0.2778
 2570TIP3    H129201   2.140   2.292  14.571 -0.7479 -1.7902  1.3249
 2570TIP3    H229202   2.222   2.167  14.595  1.4600 -1.0078 -1.6572
 2571TIP3   OH229203   6.253   4.306   1.729 -0.0425  0.2688 -0.1512
 2571TIP3    H129204   6.306   4.233   1.698  2.3421  2.2043 -0.9682
 2571TIP3    H229205   6.262   4.304   1.824 -0.8142 -1.0053 -0.0775
 2572TIP3   OH229206   3.275   2.872  13.337 -0.0801 -0.3897 -0.9296
 2572TIP3    H129207   3.257   2.781  13.362  2.2170 -1.1530 -1.7953
 2572TIP3    H229208   3.312   2.911  13.416  1.4018 -1.0219 -1.2700
 2573TIP3   OH229209   0.388   1.178  11.398 -0.0428 -0.2851 -0.2981
 2573TIP3    H129210   0.373   1.125  11.320 -1.1084 -0.0656 -0.2467
 2573TIP3    H229211   0.316   1.241  11.399 -0.6285 -0.9432  1.4300
 2574TIP3   OH229212   5.104   1.133  12.190  0.1292 -0.5499  0.0055
 2574TIP3    H129213   5.138   1.127  12.279  2.4862 -0.8486 -0.8414
 2574TIP3    H229214   5.048   1.211  12.191  1.3547  0.3655  1.3718
 2575TIP3   OH229215   6.297   4.032   0.166  0.1229 -0.1817 -0.8292
 2575TIP3    H129216   6.282   3.941   0.139  1.8044 -0.6840 -0.2285
 2575TIP3    H229217   6.272   4.033   0.259  0.3802 -0.1113 -0.7602
 2576TIP3   OH229218   5.985   0.160   0.925 -0.9828 -0.2111 -0.8577
 2576TIP3    H129219   5.954   0.176   1.014 -0.3812  1.8203 -0.9620
 2576TIP3    H229220   5.936   0.223   0.871  1.5279  1.4919 -1.3373
 2577TIP3   OH229221   1.019   6.174  13.165 -0.5977  0.0356 -0.1270
 2577TIP3    H129222   0.959   6.133  13.228 -0.4363 -2.1445 -1.2808
 2577TIP3    H229223   0.962   6.213  13.099 -0.7476  1.4391  0.7877
 2578TIP3   OH229224   5.554   3.661  16.722  0.8093  0.2921  0.1986
 2578TIP3    H129225   5.580   3.581  16.676  0.9621 -0.2732  1.2425
 2578TIP3    H229226   5.474   3.637  16.768  1.0992  0.6096  0.8781
 2579TIP3   OH229227   4.719   6.198  14.124  0.1172  0.0607 -0.0197
 2579TIP3    H129228   4.698   6.175  14.034  0.0941  0.0108 -0.0006
 2579TIP3    H229229   4.714   6.294  14.126  0.6753  0.0980 -0.2113
 2580TIP3   OH229230   5.415   6.426   1.517 -0.1455 -0.3875  0.0353
 2580TIP3    H129231   5.469   6.351   1.492 -1.2751 -1.3123  0.2686
 2580TIP3    H229232   5.476   6.500   1.518  0.8622 -1.1689 -0.8538
 2581TIP3   OH229233   3.527   4.936  16.793 -0.1708  0.2599  0.3281
 2581TIP3    H129234   3.589   4.930  16.721 -0.6310  0.0514 -0.0597
 2581TIP3    H229235   3.581   4.939  16.872  0.3227 -2.6595  0.2164
 2582TIP3   OH229236   5.546   6.700  10.430  0.4204 -0.0461 -0.1696
 2582TIP3    H129237   5.459   6.661  10.439  1.0271 -1.7176 -1.1507
 2582TIP3    H229238   5.599   6.658  10.498  1.0503 -0.8954 -1.1526
 2583TIP3   OH229239   2.894   3.903  14.558  0.8496  0.1795 -0.3576
 2583TIP3    H129240   2.897   3.870  14.468  0.0901 -1.0310  0.0305
 2583TIP3    H229241   2.955   3.848  14.606  0.2128 -0.1200  0.1356
 2584TIP3   OH229242   3.493   1.413   1.511 -0.5870  0.0082 -0.0267
 2584TIP3    H129243   3.440   1.404   1.590  1.2175 -0.4990  1.1847
 2584TIP3    H229244   3.515   1.324   1.486 -0.5116  0.2004 -0.6725
 2585TIP3   OH229245   2.085   1.295  16.178 -0.3046 -0.2118 -0.2797
 2585TIP3    H129246   2.157   1.240  16.146 -0.4701 -1.0602  0.7552
 2585TIP3    H229247   2.050   1.336  16.099 -0.2599 -1.7023 -1.1163
 2586TIP3   OH229248   1.921   4.662  15.364 -0.1885 -0.0993 -0.3001
 2586TIP3    H129249   1.927   4.753  15.393 -0.7253 -0.4246  0.8755
 2586TIP3    H229250   1.992   4.653  15.300 -0.0229  1.0938 -0.3052
 2587TIP3   OH229251   3.892   3.791  11.250 -0.2774  0.0120  0.0507
 2587TIP3    H129252   3.877   3.722  11.185 -1.3887  0.5528 -0.3024
 2587TIP3    H229253   3.967   3.761  11.301 -0.1809 -1.0239 -0.6736
 2588TIP3   OH229254   6.314   2.296  16.348  0.5386  0.0640 -0.0856
 2588TIP3    H129255   6.220   2.280  16.338  0.2408  0.7244  1.2878
 2588TIP3    H229256   6.333   2.370  16.290  0.3795 -0.5610 -0.9388
 2589TIP3   OH229257   4.693   6.325   2.915 -0.0552 -0.2979  0.0972
 2589TIP3    H129258   4.754   6.397   2.900  0.2464 -0.2565  1.3638
 2589TIP3    H229259   4.742   6.247   2.887  0.2193 -0.1685  0.2046
 2590TIP3   OH229260   1.136   0.154  14.788  0.7374  0.4370  0.0805
 2590TIP3    H129261   1.081   0.138  14.865 -0.3257  1.6489 -0.3972
 2590TIP3    H229262   1.177   0.239  14.805  0.4723  0.7265 -0.7073
 2591TIP3   OH229263   1.397   5.757   2.630 -0.4062  0.3596 -0.0007
 2591TIP3    H129264   1.353   5.704   2.696  1.0873 -0.4484  0.3655
 2591TIP3    H229265   1.400   5.845   2.668 -1.8072  0.4820 -0.1049
 2592TIP3   OH229266   2.279   5.953   6.580 -0.1406 -0.4776  0.3562
 2592TIP3    H129267   2.347   5.935   6.644  0.8775 -0.4784 -0.6991
 2592TIP3    H229268   2.203   5.978   6.632  1.2414  1.5733  1.5020
 2593TIP3   OH229269   3.877   2.987  12.754  0.0427  0.5350  0.4199
 2593TIP3    H129270   3.956   3.026  12.715  1.1917 -0.3884  1.7142
 2593TIP3    H229271   3.806   3.044  12.726  1.2276  1.6598 -0.4328
 2594TIP3   OH229272   5.767   2.565  12.321 -0.5701 -0.2365  0.4459
 2594TIP3    H129273   5.693   2.625  12.321 -0.4214 -0.0502  0.5641
 2594TIP3    H229274   5.768   2.528  12.410 -0.1110  0.2790  0.6613
 2595TIP3   OH229275   6.540   0.903   1.272 -0.2227 -0.2882  0.4147
 2595TIP3    H129276   6.573   0.991   1.291  4.5936 -1.5088 -1.0795
 2595TIP3    H229277   6.496   0.912   1.187 -0.2641  0.7267  0.5321
 2596TIP3   OH229278   3.855   3.586  14.178  0.3625  0.4661  0.2597
 2596TIP3    H129279   3.815   3.532  14.246 -0.9017  1.4801  0.3594
 2596TIP3    H229280   3.879   3.523  14.109  0.9843 -0.4764  1.3039
 2597TIP3   OH229281   1.658   3.775   2.270 -0.4313  0.3135 -0.2981
 2597TIP3    H129282   1.619   3.753   2.354 -0.1789 -0.4019 -0.3531
 2597TIP3    H229283   1.658   3.870   2.267 -0.9620  0.3369  0.2636
 2598TIP3   OH229284   3.350   5.508  13.140  0.0210 -0.0066  0.7564
 2598TIP3    H129285   3.283   5.443  13.120  0.8887 -1.2663  1.7650
 2598TIP3    H229286   3.317   5.556  13.215 -0.0971 -0.0960  0.7621
 2599TIP3   OH229287   1.585   3.812   6.519 -0.0405 -0.2317 -0.3652
 2599TIP3    H129288   1.626   3.896   6.543 -1.0044  0.6929 -1.8085
 2599TIP3    H229289   1.498   3.816   6.558 -0.6891  0.1806 -1.8020
 2600TIP3   OH229290   6.302   6.181  15.141  0.1795 -0.2648 -0.3595
 2600TIP3    H129291   6.253   6.117  15.090 -0.3697 -0.8621  0.8840
 2600TIP3    H229292   6.236   6.237  15.180  0.6004  0.2552 -0.3771
 2601TIP3   OH229293   0.263   3.669  11.383  0.9510  0.3532 -0.4259
 2601TIP3    H129294   0.336   3.690  11.441  1.2300 -2.2959  0.2949
 2601TIP3    H229295   0.303   3.628  11.306  0.2862 -0.6665 -0.2509
 2602TIP3   OH229296   4.695   0.634  11.528  0.0010  0.5055  0.0431
 2602TIP3    H129297   4.635   0.598  11.463 -1.3028  1.0682  0.9020
 2602TIP3    H229298   4.767   0.571  11.531 -1.7853 -1.6296  0.9051
 2603TIP3   OH229299   0.584   1.265   1.968  0.4001 -0.0795 -0.6250
 2603TIP3    H129300   0.631   1.252   2.051 -0.4642  1.9702  0.2560
 2603TIP3    H229301   0.495   1.237   1.986  0.4206 -0.5028 -1.1660
 2604TIP3   OH229302   2.368   6.759   3.320 -0.8803 -0.1107  0.2155
 2604TIP3    H129303   2.294   6.777   3.261 -0.5036  1.5026  0.1899
 2604TIP3    H229304   2.346   6.807   3.400 -0.6139 -0.9571  0.8052
 2605TIP3   OH229305   3.702   3.633  11.732 -0.5569  0.0682 -0.3428
 2605TIP3    H129306   3.728   3.573  11.802 -0.5405  0.6694  0.1877
 2605TIP3    H229307   3.655   3.703  11.778 -1.1316  0.1323 -1.0232
 2606TIP3   OH229308   0.870   2.535   3.540  0.4511 -0.1610  0.3615
 2606TIP3    H129309   0.837   2.481   3.469 -0.3963  1.5216 -0.5757
 2606TIP3    H229310   0.951   2.573   3.505  1.0437 -0.7907  1.0147
 2607TIP3   OH229311   0.405   2.528  15.017  0.3199  0.1585 -0.3955
 2607TIP3    H129312   0.384   2.448  14.969 -0.0092  0.6334 -1.0675
 2607TIP3    H229313   0.407   2.596  14.949  3.5163  0.2701 -0.3456
 2608TIP3   OH229314   4.049   3.219  13.320 -0.2019 -0.2829  0.2621
 2608TIP3    H129315   4.131   3.174  13.299  0.2513  0.2790  0.7737
 2608TIP3    H229316   4.031   3.273  13.243 -0.5349 -1.0195 -0.1887
 2609TIP3   OH229317   4.645   2.411  17.068  0.0762  0.2453 -0.2469
 2609TIP3    H129318   4.640   2.363  17.151 -0.1713 -0.3000 -0.5709
 2609TIP3    H229319   4.675   2.346  17.004 -2.2616 -0.0716 -1.1289
 2610TIP3   OH229320   5.641   1.446   2.491 -0.4269 -0.5595  0.5466
 2610TIP3    H129321   5.735   1.454   2.478 -0.3058 -0.4348  1.4198
 2610TIP3    H229322   5.609   1.536   2.489 -0.1924 -0.3771  2.4300
 2611TIP3   OH229323   2.239   2.775  16.117  0.7682  0.0203 -0.0819
 2611TIP3    H129324   2.211   2.783  16.025 -0.1223 -0.0733  0.1698
 2611TIP3    H229325   2.157   2.765  16.166  1.2404  0.0005  0.7208
 2612TIP3   OH229326   1.510   0.831   1.491 -0.2059 -0.0650  0.8616
 2612TIP3    H129327   1.467   0.841   1.406  1.1590  0.8209  0.2495
 2612TIP3    H229328   1.580   0.768   1.475  1.4992  1.7903  0.7354
 2613TIP3   OH229329   2.202   0.663  10.055 -0.7099  0.3003 -0.3105
 2613TIP3    H129330   2.226   0.592  10.114 -0.1305  0.1756 -0.6882
 2613TIP3    H229331   2.158   0.620   9.982 -2.8320  0.5900  0.7199
 2614TIP3   OH229332   6.766   0.619   3.688  0.6278 -0.0938  0.0009
 2614TIP3    H129333   6.779   0.694   3.746 -1.3961 -0.3667  0.9150
 2614TIP3    H229334   6.788   0.652   3.601  1.9883  0.8509  0.6723
 2615TIP3   OH229335   1.491   2.540  10.932  0.3150 -0.4122 -0.2626
 2615TIP3    H129336   1.408   2.527  10.976  0.1102 -1.5085 -0.9314
 2615TIP3    H229337   1.557   2.511  10.995  0.1974  0.2482  0.1811
 2616TIP3   OH229338   1.680   4.862  13.712 -0.0131 -0.4199  0.1287
 2616TIP3    H129339   1.589   4.861  13.683  0.1909  0.9852 -0.6204
 2616TIP3    H229340   1.694   4.775  13.748 -1.7181 -0.5871  0.4687
 2617TIP3   OH229341   4.075   4.602   1.619  0.0778  0.7136 -0.6973
 2617TIP3    H129342   4.066   4.539   1.690 -0.4192  1.0186 -0.4858
 2617TIP3    H229343   4.128   4.672   1.657  1.6613 -0.1123 -1.2980
 2618TIP3   OH229344   2.311   1.850  12.826 -0.1946  0.4863  0.2006
 2618TIP3    H129345   2.294   1.760  12.799  1.6804  0.1102  0.1475
 2618TIP3    H229346   2.378   1.843  12.895 -0.1410  1.8275  0.3195
 2619TIP3   OH229347   1.292   3.303   3.535  0.0176  0.1678  0.3158
 2619TIP3    H129348   1.219   3.303   3.473  0.2937  1.5893 -0.0397
 2619TIP3    H229349   1.250   3.308   3.621 -0.3320 -0.1830  0.1661
 2620TIP3   OH229350   3.256   0.022  15.759  0.3337 -0.4743 -0.2311
 2620TIP3    H129351   3.228   0.056  15.674  0.6524  0.2982 -0.0366
 2620TIP3    H229352   3.222   0.084  15.822 -0.5940 -1.4801  0.2815
 2621TIP3   OH229353   3.108   5.088  11.755  0.7447 -0.3044  0.3380
 2621TIP3    H129354   3.134   5.141  11.679 -1.6798  0.1561 -0.2426
 2621TIP3    H229355   3.082   5.152  11.821 -0.0319 -0.7255  0.4496
 2622TIP3   OH229356   0.301   3.697   0.491  0.2288 -0.0329  0.2487
 2622TIP3    H129357   0.235   3.635   0.461  1.4878 -1.5338  0.4664
 2622TIP3    H229358   0.266   3.783   0.467 -1.7973 -0.7662  0.4074
 2623TIP3   OH229359   0.362   0.620   4.191 -0.1418 -0.3396 -0.1730
 2623TIP3    H129360   0.316   0.580   4.117 -0.1702 -0.0315 -0.3259
 2623TIP3    H229361   0.323   0.580   4.269 -0.0044 -0.7791 -0.3284
 2624TIP3   OH229362   3.257   6.283  14.394 -0.2691 -0.1287  0.1055
 2624TIP3    H129363   3.343   6.323  14.410 -0.0734 -0.4622 -0.0794
 2624TIP3    H229364   3.194   6.350  14.418  0.0412  1.0688 -2.1278
 2625TIP3   OH229365   0.083   5.658  13.885 -0.0487 -0.2753  0.1330
 2625TIP3    H129366   0.075   5.714  13.963 -0.6154  0.7206 -0.6209
 2625TIP3    H229367   0.052   5.572  13.914  0.0633 -0.0022  1.0922
 2626TIP3   OH229368   2.730   5.313   1.401 -0.6506  0.0807  0.3249
 2626TIP3    H129369   2.688   5.320   1.315 -1.8503 -2.2480  0.6267
 2626TIP3    H229370   2.667   5.352   1.461 -0.3143  0.6808  0.2986
 2627TIP3   OH229371   4.989   4.422  16.792 -0.5746 -0.1229  0.1025
 2627TIP3    H129372   4.965   4.333  16.768  2.2893 -1.2536  0.9993
 2627TIP3    H229373   4.997   4.420  16.888  1.8278  0.3751 -0.0332
 2628TIP3   OH229374   3.985   5.105   0.380 -0.1527 -0.0377 -0.0853
 2628TIP3    H129375   4.061   5.055   0.408 -0.7588 -0.9606 -0.0705
 2628TIP3    H229376   3.949   5.055   0.307 -0.0317  1.0481 -0.9184
 2629TIP3   OH229377   4.235   2.646  14.218  0.2770 -0.6215 -0.3600
 2629TIP3    H129378   4.173   2.674  14.150 -1.2086  1.4231  1.6527
 2629TIP3    H229379   4.182   2.592  14.277  0.2326  1.2262  1.4399
 2630TIP3   OH229380   6.067   3.134  11.873 -0.0758  0.2799  0.8140
 2630TIP3    H129381   6.095   3.198  11.938  0.8814 -0.1256  0.8238
 2630TIP3    H229382   6.148   3.090  11.847 -0.5364 -0.0121 -0.1679
 2631TIP3   OH229383   2.717   4.377   3.646 -0.6425  0.5528  0.2362
 2631TIP3    H129384   2.736   4.362   3.739 -2.0713  2.4288  0.8994
 2631TIP3    H229385   2.795   4.422   3.613  1.6274 -3.5380 -0.6095
 2632TIP3   OH229386   6.535   0.082  10.291 -0.3248 -0.3437  0.3009
 2632TIP3    H129387   6.442   0.103  10.277 -0.6859 -0.8588  1.7341
 2632TIP3    H229388   6.582   0.141  10.232 -1.5806 -0.7595 -1.1936
 2633TIP3   OH229389   1.564   4.204   2.706 -0.1235  0.1341 -0.1590
 2633TIP3    H129390   1.599   4.199   2.617 -0.7670  0.2879 -0.4308
 2633TIP3    H229391   1.479   4.160   2.700 -2.6739  4.5686 -0.9049
 2634TIP3   OH229392   0.400   5.728   2.294  0.6408 -0.0968 -0.4113
 2634TIP3    H129393   0.436   5.762   2.212  1.5119  1.5039  0.5749
 2634TIP3    H229394   0.313   5.696   2.270  0.7603  0.5934 -1.9169
 2635TIP3   OH229395   3.736   0.968   0.331  0.1353 -0.4650 -0.2108
 2635TIP3    H129396   3.827   1.000   0.330  0.3305 -1.0151 -1.2306
 2635TIP3    H229397   3.742   0.878   0.364 -0.1033 -0.3532  0.1493
 2636TIP3   OH229398   0.310   2.691  16.072 -0.1200 -0.5815 -0.4530
 2636TIP3    H129399   0.242   2.757  16.057 -0.2133 -0.9684 -1.9676
 2636TIP3    H229400   0.333   2.700  16.164 -1.6308  0.1351 -0.1129
 2637TIP3   OH229401   6.557   0.541  13.974 -0.4825  0.0369  0.0088
 2637TIP3    H129402   6.562   0.575  13.885 -0.3025 -1.8533 -0.7568
 2637TIP3    H229403   6.579   0.616  14.029  1.4374  0.7946 -1.6216
 2638TIP3   OH229404   1.764   6.293  16.505 -0.0048  0.1602 -0.1369
 2638TIP3    H129405   1.846   6.335  16.481 -0.1314  0.7151  0.3509
 2638TIP3    H229406   1.788   6.228  16.571  0.0353  0.3963  0.0837
 2639TIP3   OH229407   0.250   5.218  13.092 -0.0298  0.2059  0.9190
 2639TIP3    H129408   0.315   5.273  13.047 -0.3124  1.0823  1.5400
 2639TIP3    H229409   0.294   5.191  13.173 -0.3463  0.5991  1.2255
 2640TIP3   OH229410   0.946   4.084  12.862 -0.0123  0.0362  1.1654
 2640TIP3    H129411   0.977   4.002  12.824 -0.6775  0.7060 -0.9906
 2640TIP3    H229412   1.002   4.151  12.823 -1.7225  0.8926  0.0331
 2641TIP3   OH229413   4.582   1.063  13.645 -0.2410 -0.8149  0.1553
 2641TIP3    H129414   4.596   1.007  13.569  2.3066 -0.9535  0.6360
 2641TIP3    H229415   4.601   1.151  13.614  2.8895 -1.0720  0.9656
 2642TIP3   OH229416   4.008   2.499  14.365 -0.4544  0.2907  0.2097
 2642TIP3    H129417   3.930   2.443  14.372 -0.2970  0.1877  1.3539
 2642TIP3    H229418   4.082   2.438  14.365 -0.3391  0.4307  0.0911
 2643TIP3   OH229419   5.099   2.267   0.633  0.1796 -0.2869 -0.6571
 2643TIP3    H129420   5.112   2.329   0.706  0.9959  0.7131 -1.6059
 2643TIP3    H229421   5.166   2.292   0.569  0.1742 -1.8401 -1.2963
 2644TIP3   OH229422   4.108   1.299   2.407  0.3024 -0.3271 -0.3477
 2644TIP3    H129423   4.201   1.280   2.392  0.7793  1.1880  0.3699
 2644TIP3    H229424   4.062   1.257   2.335  1.3530 -2.5778  0.1902
 2645TIP3   OH229425   3.492   0.744   5.648  0.5528  0.1162  0.0088
 2645TIP3    H129426   3.553   0.800   5.600  0.3702  0.4798  0.1933
 2645TIP3    H229427   3.422   0.804   5.676  1.0348  0.0557  1.3916
 2646TIP3   OH229428   2.822   5.416   0.561 -0.6127 -0.6538  0.0901
 2646TIP3    H129429   2.795   5.326   0.579 -1.7782 -0.0689  1.4399
 2646TIP3    H229430   2.750   5.453   0.511 -1.2533  0.1890  1.5711
 2647TIP3   OH229431   0.984   1.250   0.486 -0.1669  0.6372 -0.3865
 2647TIP3    H129432   0.976   1.325   0.545 -0.6391  1.0996 -1.0368
 2647TIP3    H229433   1.071   1.213   0.506 -0.7909  0.0369  1.4640
 2648TIP3   OH229434   5.738   5.351   2.434  0.2016 -0.0996  0.3199
 2648TIP3    H129435   5.743   5.411   2.509  0.5389 -0.0592  0.2657
 2648TIP3    H229436   5.644   5.342   2.417  0.1664  1.3896 -0.4451
 2649TIP3   OH229437   5.343   0.825  11.599  0.0200  0.0312  0.4821
 2649TIP3    H129438   5.281   0.888  11.635  1.3744  2.6235 -1.4329
 2649TIP3    H229439   5.400   0.876  11.543  1.3339 -2.9119 -1.1086
 2650TIP3   OH229440   1.978   0.545  11.003 -0.0424  0.1151 -0.6489
 2650TIP3    H129441   1.978   0.571  10.911 -0.2670 -0.7536 -0.9075
 2650TIP3    H229442   1.943   0.456  11.003 -0.1274  0.1331  0.2895
 2651TIP3   OH229443   4.802   3.398   4.406  0.9963 -0.6346 -0.0159
 2651TIP3    H129444   4.782   3.439   4.322 -1.4836 -0.6069  0.5222
 2651TIP3    H229445   4.839   3.468   4.459  2.0287 -0.5114 -0.8550
 2652TIP3   OH229446   4.207   4.915   2.356  0.0910  0.1385 -0.4968
 2652TIP3    H129447   4.215   4.832   2.404 -0.3014  1.0333  1.1622
 2652TIP3    H229448   4.297   4.939   2.335  0.5200  0.9510  1.9894
 2653TIP3   OH229449   1.205   3.367  11.193  0.2838  0.0849 -0.4559
 2653TIP3    H129450   1.203   3.374  11.097 -1.2028 -0.3192 -0.4802
 2653TIP3    H229451   1.293   3.334  11.213  0.9056  0.9629 -1.6085
 2654TIP3   OH229452   5.253   5.283   2.699  0.1611  0.9255 -0.6754
 2654TIP3    H129453   5.291   5.370   2.687  1.6323  0.3647 -0.2622
 2654TIP3    H229454   5.327   5.223   2.689 -0.1163 -0.0912  2.3323
 2655TIP3   OH229455   5.081   2.121   4.920  0.0342  0.1174  0.6237
 2655TIP3    H129456   5.043   2.207   4.903  1.6456  0.9926  1.1564
 2655TIP3    H229457   5.176   2.136   4.915  0.4313 -2.3232 -2.7346
 2656TIP3   OH229458   0.515   6.044  14.217  0.7955 -0.2208  0.0249
 2656TIP3    H129459   0.465   5.970  14.184  0.5031 -1.2322  2.5073
 2656TIP3    H229460   0.471   6.121  14.182 -1.5738 -1.1205  0.8131
 2657TIP3   OH229461   6.527   2.590  16.425 -0.1385  0.0707  0.0054
 2657TIP3    H129462   6.448   2.578  16.372  1.0253 -1.1290 -1.5330
 2657TIP3    H229463   6.524   2.519  16.489 -1.2932  1.2284  1.3024
 2658TIP3   OH229464   2.734   2.112   0.620 -0.3177  0.8137  0.3403
 2658TIP3    H129465   2.689   2.197   0.627  1.4128  1.9657 -1.5150
 2658TIP3    H229466   2.679   2.061   0.561  0.7472  2.2733 -2.0496
 2659TIP3   OH229467   4.818   4.082   3.417 -0.5790  0.0236 -0.4827
 2659TIP3    H129468   4.864   4.124   3.490 -2.4430 -0.0214  0.7963
 2659TIP3    H229469   4.729   4.115   3.424 -0.5594  1.0060 -3.5652
 2660TIP3   OH229470   0.486   5.324  11.722  0.1895  0.3207 -0.0083
 2660TIP3    H129471   0.489   5.277  11.639 -0.6628 -0.7475  0.5201
 2660TIP3    H229472   0.543   5.399  11.711 -2.4589  2.1378 -2.7183
 2661TIP3   OH229473   4.184   5.072   0.961 -0.4972 -0.3934 -0.2210
 2661TIP3    H129474   4.096   5.100   0.983 -0.4966 -0.3791 -0.2364
 2661TIP3    H229475   4.204   5.117   0.878 -0.9033 -1.2894 -0.8213
 2662TIP3   OH229476   6.025   1.599   4.849 -0.3943  0.0431 -0.6004
 2662TIP3    H129477   5.944   1.574   4.804 -1.3156 -1.3641  1.6701
 2662TIP3    H229478   6.095   1.560   4.796 -1.2212  0.4765 -2.0830
 2663TIP3   OH229479   4.189   5.713   6.215  0.2967 -0.3249  0.1899
 2663TIP3    H129480   4.263   5.653   6.205  1.0574  0.6005  0.1089
 2663TIP3    H229481   4.229   5.800   6.217 -0.6692  0.1137  1.5546
 2664TIP3   OH229482   1.857   4.731   1.432  0.4708 -0.4280  0.4737
 2664TIP3    H129483   1.773   4.729   1.478 -0.3313 -0.3978 -0.9452
 2664TIP3    H229484   1.888   4.641   1.436 -0.6164 -0.8843 -0.7106
 2665TIP3   OH229485   1.822   4.732  14.725  0.3100 -0.2262 -0.1926
 2665TIP3    H129486   1.826   4.677  14.804 -1.1437  0.2166  0.2263
 2665TIP3    H229487   1.826   4.670  14.653  1.4932 -0.6539  0.2190
 2666TIP3   OH229488   4.843   5.723  14.383 -0.8857 -0.0413  0.5947
 2666TIP3    H129489   4.815   5.715  14.474 -2.0157 -1.7638  0.1569
 2666TIP3    H229490   4.827   5.814  14.360 -3.7143 -0.2994  1.2069
 2667TIP3   OH229491   6.391   3.127   3.588 -0.3656  0.1589  0.2078
 2667TIP3    H129492   6.419   3.202   3.535  0.0733 -0.7700 -0.9356
 2667TIP3    H229493   6.375   3.163   3.675 -1.6861  1.8773 -0.6836
 2668TIP3   OH229494   2.173   2.345   3.846  0.5111  0.0201  0.3596
 2668TIP3    H129495   2.212   2.274   3.898 -0.2908 -1.3451 -0.8424
 2668TIP3    H229496   2.236   2.360   3.776 -0.7727 -1.8204 -1.2764
 2669TIP3   OH229497   2.899   2.454   4.235  0.1945  0.2792  0.3768
 2669TIP3    H129498   2.925   2.546   4.236  0.8859  0.0852  0.8139
 2669TIP3    H229499   2.928   2.420   4.320  0.0898 -0.3831  0.1545
 2670TIP3   OH229500   2.293   0.404  13.354  0.0267  0.7351  0.4967
 2670TIP3    H129501   2.372   0.429  13.403  0.0850 -0.9592  1.3555
 2670TIP3    H229502   2.326   0.347  13.285 -0.3910  0.3944  0.5750
 2671TIP3   OH229503   1.709   2.021  14.255  0.2692 -0.0939  0.1640
 2671TIP3    H129504   1.740   2.025  14.164 -0.9977 -0.1743 -0.2869
 2671TIP3    H229505   1.694   2.112  14.279  0.1290 -0.1060  0.1222
 2672TIP3   OH229506   0.234   0.406   3.188  0.2647 -0.1085  0.6486
 2672TIP3    H129507   0.310   0.460   3.210  0.7253  0.3729 -1.7870
 2672TIP3    H229508   0.267   0.316   3.195  1.1461  0.0941 -0.4626
 2673TIP3   OH229509   2.315   3.107  16.636 -0.1731 -0.0289 -0.0090
 2673TIP3    H129510   2.249   3.040  16.654 -1.7330  1.8404  1.7063
 2673TIP3    H229511   2.398   3.063  16.649 -1.0905 -2.0141 -0.5196
 2674TIP3   OH229512   2.342   1.823  16.454  0.1918 -0.1152  0.6728
 2674TIP3    H129513   2.263   1.868  16.482  0.2092  0.0377  0.4779
 2674TIP3    H229514   2.314   1.733  16.438  0.0659 -0.0706  0.6422
 2675TIP3   OH229515   5.841   5.099  15.417 -0.0931  0.0308 -0.6158
 2675TIP3    H129516   5.879   5.164  15.357 -1.3139  1.7568  0.3688
 2675TIP3    H229517   5.862   5.015  15.378 -1.7694  1.0400 -4.1252
 2676TIP3   OH229518   2.164   5.874  13.190 -0.0288  0.3763  0.4389
 2676TIP3    H129519   2.249   5.869  13.234 -0.3689 -2.4828  0.9937
 2676TIP3    H229520   2.185   5.874  13.097  0.7256 -3.0764  0.4471
 2677TIP3   OH229521   1.355   0.688   0.349  0.2844  0.7959 -0.6753
 2677TIP3    H129522   1.263   0.664   0.342 -0.0864  2.0389 -0.3394
 2677TIP3    H229523   1.390   0.630   0.417 -0.5226  1.0806 -0.0100
 2678TIP3   OH229524   4.664   2.863   4.924  0.4557  0.1361 -0.0626
 2678TIP3    H129525   4.620   2.879   4.841  1.0952  0.9759 -0.2472
 2678TIP3    H229526   4.653   2.769   4.938 -3.1890  0.5440  0.9453
 2679TIP3   OH229527   4.533   2.686  13.517 -0.3319 -0.2583 -0.1925
 2679TIP3    H129528   4.514   2.668  13.609 -1.0893 -1.2443 -0.5270
 2679TIP3    H229529   4.613   2.635  13.499  0.1243  0.3599  0.0482
 2680TIP3   OH229530   3.240   2.694  13.809  0.2825  0.1458  0.2466
 2680TIP3    H129531   3.231   2.599  13.803 -0.7037  0.2391  0.1509
 2680TIP3    H229532   3.201   2.717  13.893 -1.0219  0.6416 -0.4710
 2681TIP3   OH229533   5.721   3.630   3.865  0.1970 -0.8492 -0.0695
 2681TIP3    H129534   5.691   3.700   3.923 -2.1980 -2.4247  0.7645
 2681TIP3    H229535   5.806   3.604   3.900  1.6278  2.1659 -0.9918
 2682TIP3   OH229536   2.044   6.206   4.908 -0.0125  0.3121  0.3303
 2682TIP3    H129537   1.953   6.194   4.934 -1.0682 -0.1834 -3.0921
 2682TIP3    H229538   2.051   6.300   4.891 -0.0145  0.2984  0.2513
 2683TIP3   OH229539   4.113   4.917  15.729 -0.0643  0.1309  0.6607
 2683TIP3    H129540   4.126   5.009  15.707 -0.0888  0.3434  1.4942
 2683TIP3    H229541   4.173   4.900  15.802 -1.8138  0.1823  2.1943
 2684TIP3   OH229542   5.944   2.001   2.385 -0.5297  0.4703  0.0674
 2684TIP3    H129543   6.032   2.019   2.417 -0.4914  1.5691 -0.6064
 2684TIP3    H229544   5.942   2.039   2.297 -2.8613  4.0667  1.4434
 2685TIP3   OH229545   1.431   2.576  12.107  0.2716 -0.6710 -0.9351
 2685TIP3    H129546   1.347   2.531  12.111 -0.1210 -0.0962 -2.3457
 2685TIP3    H229547   1.410   2.669  12.112  0.9703 -0.5566  0.4078
 2686TIP3   OH229548   0.204   2.438  14.764 -0.0517  0.2519 -0.1307
 2686TIP3    H129549   0.234   2.348  14.775 -1.3505 -0.3842 -1.3714
 2686TIP3    H229550   0.137   2.449  14.832  0.2505  0.3539  0.1514
 2687TIP3   OH229551   3.583   3.824   0.710  0.1615 -0.1992 -0.9388
 2687TIP3    H129552   3.542   3.865   0.786 -0.6748 -1.5321 -0.6412
 2687TIP3    H229553   3.662   3.877   0.694  0.3276  0.1465  0.8104
 2688TIP3   OH229554   5.917   1.340   6.742 -0.0051  0.1046 -0.4642
 2688TIP3    H129555   5.957   1.304   6.664 -0.0453  0.5151 -0.6802
 2688TIP3    H229556   5.828   1.303   6.744  0.2713 -0.5565 -0.1563
 2689TIP3   OH229557   3.596   2.861  14.854  0.4406  0.6182 -0.2438
 2689TIP3    H129558   3.595   2.950  14.890 -1.1814  1.7074 -2.6889
 2689TIP3    H229559   3.530   2.814  14.904  1.1106  0.8370  0.8852
 2690TIP3   OH229560   6.530   0.976   0.703 -0.4705  0.0507  0.2903
 2690TIP3    H129561   6.562   0.899   0.656 -1.2433 -0.5447  0.7265
 2690TIP3    H229562   6.440   0.987   0.673  0.2431  2.0369 -1.3388
 2691TIP3   OH229563   0.952   2.103   1.652 -0.3101  0.3789 -0.3699
 2691TIP3    H129564   1.014   2.175   1.665  0.4046 -0.1663 -0.6574
 2691TIP3    H229565   0.881   2.120   1.713 -0.6043  1.8250 -1.0787
 2692TIP3   OH229566   2.090   5.468   3.915  0.2595 -0.4211  0.0277
 2692TIP3    H129567   2.153   5.516   3.861  0.2130  0.3935  0.6759
 2692TIP3    H229568   2.123   5.477   4.004 -2.3294  2.7102  0.8409
 2693TIP3   OH229569   3.653   6.813   2.688 -0.5652  0.0954  0.2124
 2693TIP3    H129570   3.724   6.860   2.645 -1.3253 -1.1023 -2.5629
 2693TIP3    H229571   3.697   6.756   2.751  0.7819  0.6428 -0.1850
 2694TIP3   OH229572   3.324   6.548   0.493  0.5683  0.2057  0.1990
 2694TIP3    H129573   3.341   6.497   0.414  2.0604 -0.1157  0.6957
 2694TIP3    H229574   3.406   6.597   0.507  1.2502 -1.5106  2.8279
 2695TIP3   OH229575   5.208   3.373   1.877 -0.4423  0.3862  0.0492
 2695TIP3    H129576   5.146   3.438   1.844 -1.5242 -0.9051 -0.5619
 2695TIP3    H229577   5.269   3.360   1.804  0.8068  1.9118  0.7745
 2696TIP3   OH229578   6.185   4.025   2.606 -0.0678 -0.0611  0.4365
 2696TIP3    H129579   6.160   4.117   2.592 -1.7778 -0.3385  1.4182
 2696TIP3    H229580   6.154   3.980   2.528  1.4615  0.2750 -0.4069
 2697TIP3   OH229581   4.145   5.408  17.073 -0.2972  0.3257  0.3162
 2697TIP3    H129582   4.197   5.480  17.108  1.0839 -1.0994  1.4159
 2697TIP3    H229583   4.208   5.336  17.062 -1.5391 -0.6220 -1.0426
 2698TIP3   OH229584   2.261   6.009   0.146  1.2353 -0.1044  0.3057
 2698TIP3    H129585   2.322   6.022   0.219  1.7239  0.4465 -0.1896
 2698TIP3    H229586   2.225   5.922   0.160  0.3098  0.5141  1.9476
 2699TIP3   OH229587   1.181   0.020  15.649 -0.3134 -0.2131 -0.4479
 2699TIP3    H129588   1.110  -0.028  15.692 -0.8111  0.2197 -0.7739
 2699TIP3    H229589   1.180  -0.011  15.559  0.1745 -0.4957 -0.3589
 2700TIP3   OH229590   4.626   0.101  17.132  0.4235  0.1057 -0.0397
 2700TIP3    H129591   4.669   0.022  17.166  2.4465  1.3767  0.5212
 2700TIP3    H229592   4.667   0.116  17.047 -0.9112 -0.1576 -0.7568
 2701TIP3   OH229593   3.743   5.615  16.273 -0.0602  0.3126  0.3961
 2701TIP3    H129594   3.670   5.608  16.334 -0.3672  1.6327  0.2051
 2701TIP3    H229595   3.744   5.531  16.227 -0.9664 -0.0108  0.9498
 2702TIP3   OH229596   4.751   5.214   3.907  0.3121 -0.4103  0.1455
 2702TIP3    H129597   4.749   5.288   3.846  2.7693 -1.1176 -0.9052
 2702TIP3    H229598   4.784   5.251   3.988 -0.5061  0.0285  0.2936
 2703TIP3   OH229599   4.748   3.428  15.413  0.5695 -0.6823  0.3705
 2703TIP3    H129600   4.737   3.520  15.436  0.3698 -1.0629  1.8966
 2703TIP3    H229601   4.725   3.423  15.321 -1.1594  0.4898  0.7036
 2704TIP3   OH229602   4.882   3.039  13.315 -0.3322 -0.2416  0.4378
 2704TIP3    H129603   4.894   2.987  13.235 -1.1101  0.1882  0.0290
 2704TIP3    H229604   4.787   3.050  13.322 -0.1679  1.6832  0.1417
 2705TIP3   OH229605   0.481   6.040  13.233  0.2724 -0.0450  0.1017
 2705TIP3    H129606   0.413   6.027  13.166  1.0595 -1.7192 -0.4301
 2705TIP3    H229607   0.433   6.069  13.310 -0.9574 -0.3532 -0.5163
 2706TIP3   OH229608   5.472   3.895   3.618  0.1058 -0.2990  0.3000
 2706TIP3    H129609   5.449   3.987   3.614  0.1257 -0.3416 -2.1835
 2706TIP3    H229610   5.397   3.849   3.580  0.3417 -1.2719  0.9645
 2707TIP3   OH229611   4.611   3.800   3.081 -0.5676 -0.5708  0.1141
 2707TIP3    H129612   4.569   3.851   3.150 -0.4149 -1.0008  0.5343
 2707TIP3    H229613   4.540   3.774   3.022 -0.5027  1.0324 -0.7122
 2708TIP3   OH229614   6.155   4.390   4.283  0.1481 -0.5436  0.0966
 2708TIP3    H129615   6.238   4.367   4.326 -0.5192 -0.3358  1.5625
 2708TIP3    H229616   6.140   4.481   4.310 -1.2223 -1.0089  0.9957
 2709TIP3   OH229617   5.125   4.170   3.515  0.9630  0.3637 -0.1412
 2709TIP3    H129618   5.188   4.165   3.443 -2.0847 -1.2691 -2.9781
 2709TIP3    H229619   5.109   4.078   3.538  0.5642  0.7993  1.3812
 2710TIP3   OH229620   6.726   6.608   1.510 -0.4731  0.1014  0.5011
 2710TIP3    H129621   6.696   6.524   1.546  1.0046 -1.5756 -1.8598
 2710TIP3    H229622   6.821   6.607   1.523 -0.2734  0.7803 -0.7342
 2711TIP3   OH229623   2.683   3.907  12.744 -0.2501 -0.1608  0.1515
 2711TIP3    H129624   2.694   3.812  12.734  0.7863  0.0484 -1.0196
 2711TIP3    H229625   2.658   3.937  12.656 -0.3148  0.6890  0.4510
 2712TIP3   OH229626   4.568   5.939   0.969  0.7622  0.0358 -0.1796
 2712TIP3    H129627   4.547   5.868   0.907  0.8086  0.8879 -1.2053
 2712TIP3    H229628   4.485   5.987   0.978  0.5769 -0.4772  0.9699
 2713TIP3   OH229629   4.646   4.099  14.948  0.4369  0.2867  0.4633
 2713TIP3    H129630   4.710   4.104  14.877 -1.4472  0.2329 -1.3234
 2713TIP3    H229631   4.640   4.006  14.967  0.5525  0.2503  0.3306
 2714TIP3   OH229632   2.605   3.265   5.201  0.8149  0.3035 -0.0668
 2714TIP3    H129633   2.700   3.266   5.215  1.0383  0.7907 -1.3727
 2714TIP3    H229634   2.594   3.312   5.118 -0.6780  1.3410  0.6759
 2715TIP3   OH229635   2.579   6.486   4.039  0.3466  0.4719 -0.1342
 2715TIP3    H129636   2.597   6.579   4.053  0.7252  0.7359 -2.1231
 2715TIP3    H229637   2.621   6.465   3.955 -2.9601 -0.4986 -1.7138
 2716TIP3   OH229638   4.545   3.186  17.046 -0.0829 -0.1809 -0.1256
 2716TIP3    H129639   4.607   3.155  17.112  0.3724 -0.6048 -0.7351
 2716TIP3    H229640   4.509   3.267  17.083 -0.6056 -0.9490  1.0811
 2717TIP3   OH229641   0.876   4.736   4.179 -0.2139  0.0585 -0.0498
 2717TIP3    H129642   0.826   4.674   4.126 -0.1743 -0.9456  1.0409
 2717TIP3    H229643   0.910   4.683   4.251 -1.0623  1.5391  1.5189
 2718TIP3   OH229644   2.353   6.655  14.509 -0.0257  0.4778 -0.2358
 2718TIP3    H129645   2.312   6.664  14.595  0.1195  0.4551 -0.1648
 2718TIP3    H229646   2.322   6.730  14.459  0.7597  1.0890  0.1825
 2719TIP3   OH229647   2.242   4.914  12.295  0.3787 -0.0498  0.3699
 2719TIP3    H129648   2.239   4.888  12.203 -0.7975 -1.7589  0.8290
 2719TIP3    H229649   2.297   4.847  12.337  0.2920  0.2792  1.0215
 2720TIP3   OH229650   5.759   3.031  16.174 -0.0347  0.0203 -0.3674
 2720TIP3    H129651   5.830   2.970  16.194 -0.8986 -0.8404  0.1895
 2720TIP3    H229652   5.700   3.024  16.249 -0.8029  0.5770 -0.8998
 2721TIP3   OH229653   5.061   3.891  16.916  0.0139  0.1737  0.2565
 2721TIP3    H129654   5.007   3.866  16.842 -2.5050 -0.7087  2.2343
 2721TIP3    H229655   4.999   3.913  16.986  2.2226  2.1407  1.7867
 2722TIP3   OH229656   3.030   3.177  13.920  0.2718  0.4448  0.4745
 2722TIP3    H129657   3.006   3.115  13.851 -1.5778  0.6273  0.8971
 2722TIP3    H229658   3.029   3.124  14.000 -2.2443  1.1115  0.9769
 2723TIP3   OH229659   2.745   1.665  15.094  0.0066 -0.5102 -0.0142
 2723TIP3    H129660   2.795   1.646  15.174  0.4688 -0.1768 -0.2149
 2723TIP3    H229661   2.717   1.756  15.104  1.5896  0.1304 -0.9998
 2724TIP3   OH229662   2.182   4.774  11.428 -0.0819  0.3214 -0.6158
 2724TIP3    H129663   2.225   4.688  11.428  0.0201  0.3721 -0.5421
 2724TIP3    H229664   2.228   4.823  11.359 -0.2563  0.2596 -0.7771
 2725TIP3   OH229665   1.787   1.466  10.413 -0.0549 -0.0659  0.0837
 2725TIP3    H129666   1.789   1.529  10.341  0.8762  0.4283  0.5278
 2725TIP3    H229667   1.871   1.422  10.409  0.1158  0.1516  1.0222
 2726TIP3   OH229668   6.030   0.768   0.315 -0.9518  0.4553  0.5908
 2726TIP3    H129669   6.035   0.799   0.406  0.3249  1.0739  0.3371
 2726TIP3    H229670   6.042   0.673   0.322 -1.0205  0.4760  1.0800
 2727TIP3   OH229671   2.129   5.304  15.318  0.7356 -0.3830 -0.0847
 2727TIP3    H129672   2.140   5.274  15.228 -0.7306 -0.3007 -0.3205
 2727TIP3    H229673   2.172   5.389  15.321 -2.1618  1.2987 -1.7393
 2728TIP3   OH229674   3.623   1.897  14.149 -0.0179 -0.1549 -0.3101
 2728TIP3    H129675   3.656   1.816  14.110  1.3035  0.4606 -0.5262
 2728TIP3    H229676   3.638   1.964  14.082 -0.4119  0.4011  0.1486
 2729TIP3   OH229677   1.759   0.745  12.859  0.3194 -0.3847 -0.5998
 2729TIP3    H129678   1.843   0.788  12.850  0.9841 -1.4540  0.2070
 2729TIP3    H229679   1.736   0.716  12.771 -1.0385  3.0805 -1.5616
 2730TIP3   OH229680   2.988   3.966  16.380 -0.0117  0.6138 -0.4548
 2730TIP3    H129681   2.948   3.911  16.313  0.7530  1.2492 -1.4588
 2730TIP3    H229682   2.962   3.925  16.463  0.3717 -1.1411 -1.1591
 2731TIP3   OH229683   5.011   3.959   0.705  0.0539  0.3472 -0.0006
 2731TIP3    H129684   5.075   4.029   0.716 -0.0721  0.2222  1.7265
 2731TIP3    H229685   5.060   3.888   0.663  1.2146  0.0987  1.6613
 2732TIP3   OH229686   5.137   3.937   0.380  0.1996 -0.6195 -0.5683
 2732TIP3    H129687   5.125   3.962   0.289 -0.8467 -1.1403 -0.5940
 2732TIP3    H229688   5.103   3.848   0.385  0.6005 -0.7365  0.2550
 2733TIP3   OH229689   0.799   4.488  11.506  0.4525  0.0762  0.1150
 2733TIP3    H129690   0.797   4.446  11.420  1.1388 -1.0274  0.6179
 2733TIP3    H229691   0.715   4.534  11.512  0.5887  0.5619 -1.3287
 2734TIP3   OH229692   3.595   0.264   3.178  0.0517 -0.1911 -0.9477
 2734TIP3    H129693   3.509   0.225   3.167 -0.2941  1.0561 -3.3264
 2734TIP3    H229694   3.647   0.228   3.106  1.7180 -1.2489  0.6701
 2735TIP3   OH229695   2.008   4.792  11.657 -0.4177 -0.0654  0.2775
 2735TIP3    H129696   2.046   4.866  11.704 -2.0110  1.2155 -0.3743
 2735TIP3    H229697   2.068   4.776  11.584 -0.9852  1.8624 -0.6782
 2736TIP3   OH229698   5.215   3.129  15.943 -0.3992  0.3344 -0.2317
 2736TIP3    H129699   5.244   3.071  16.014  3.0438  0.1223 -1.6163
 2736TIP3    H229700   5.192   3.070  15.872  0.2602  0.6012 -0.6720
 2737TIP3   OH229701   2.987   3.671   0.323 -0.6691  0.3383  0.3171
 2737TIP3    H129702   3.003   3.739   0.389 -0.9132  0.0977  0.6239
 2737TIP3    H229703   2.916   3.618   0.359 -0.4746 -0.0862  0.0803
 2738TIP3   OH229704   6.658   5.978  16.258  0.1558 -0.3754  0.3849
 2738TIP3    H129705   6.699   5.893  16.269 -1.5059 -1.2066  0.4377
 2738TIP3    H229706   6.582   5.976  16.316 -1.7023 -0.0940 -1.9016
 2739TIP3   OH229707   4.615   4.463  13.996 -0.2051 -0.1861  0.3886
 2739TIP3    H129708   4.677   4.498  14.060 -0.0311  1.6260 -0.7102
 2739TIP3    H229709   4.656   4.477  13.911 -0.2003 -3.0508 -0.1794
 2740TIP3   OH229710   4.757   3.840   2.820 -0.2391  0.4928 -0.2554
 2740TIP3    H129711   4.748   3.852   2.726 -0.4041 -1.8108 -0.5983
 2740TIP3    H229712   4.667   3.849   2.854 -0.4578 -0.3817 -0.5764
 2741TIP3   OH229713   5.182   0.118  13.215 -0.2541  0.7916 -0.2602
 2741TIP3    H129714   5.184   0.173  13.137  0.8098  1.1727  0.0150
 2741TIP3    H229715   5.212   0.032  13.185  3.2708  1.6802  0.2195
 2742TIP3   OH229716   0.603   2.288  13.923  0.6100 -0.6829  0.3013
 2742TIP3    H129717   0.510   2.265  13.928  0.9058 -1.8039  1.2101
 2742TIP3    H229718   0.604   2.383  13.916 -0.6140 -0.6595  0.2430
 2743TIP3   OH229719   4.709   5.110  13.538  1.1794 -0.0570 -0.5144
 2743TIP3    H129720   4.796   5.114  13.500  1.7981  0.6734  0.9141
 2743TIP3    H229721   4.682   5.018  13.527  1.4047  0.0783 -2.4493
 2744TIP3   OH229722   0.191   4.924   4.734  0.4150 -0.3662  0.3996
 2744TIP3    H129723   0.282   4.905   4.713  0.0906  0.8492 -2.6428
 2744TIP3    H229724   0.195   4.993   4.800  1.7129  0.2404 -0.2781
 2745TIP3   OH229725   2.173   1.024   3.906  0.0249 -0.5601  0.6876
 2745TIP3    H129726   2.180   1.120   3.909  1.6002 -0.5594 -1.0289
 2745TIP3    H229727   2.105   1.007   3.841  1.7600 -0.5223 -1.2694
 2746TIP3   OH229728   0.994   1.719  13.327  0.3468  0.1629 -0.2011
 2746TIP3    H129729   0.955   1.716  13.240 -2.3336 -0.4025  0.9216
 2746TIP3    H229730   1.053   1.644  13.330 -2.3941 -2.1410 -0.3465
 2747TIP3   OH229731   5.333   5.574  11.547 -0.2464  0.6218 -0.4367
 2747TIP3    H129732   5.361   5.606  11.460 -1.7417  1.5687 -0.6138
 2747TIP3    H229733   5.360   5.644  11.607  0.9608 -0.1217 -0.0846
 2748TIP3   OH229734   4.358   1.202   0.147 -0.6112  0.3124 -0.5357
 2748TIP3    H129735   4.443   1.167   0.174 -0.0745  0.8619 -1.4668
 2748TIP3    H229736   4.358   1.293   0.176 -0.0645  0.8852 -2.2234
 2749TIP3   OH229737   0.137   6.512  12.981  0.2948 -0.2564  0.4808
 2749TIP3    H129738   0.100   6.590  13.023 -0.3085  0.4328 -1.2484
 2749TIP3    H229739   0.068   6.481  12.923  1.8951  0.3011 -1.8606
 2750TIP3   OH229740   2.630   2.551  11.855  0.2299 -0.0684  0.2847
 2750TIP3    H129741   2.677   2.468  11.846 -1.8362 -1.1436 -1.5196
 2750TIP3    H229742   2.615   2.560  11.949  0.1384 -1.9716  0.4859
 2751TIP3   OH229743   6.092   1.801  11.904 -0.0960  0.2662 -0.5676
 2751TIP3    H129744   6.172   1.789  11.955  0.2659 -0.5802 -1.3037
 2751TIP3    H229745   6.087   1.895  11.888  0.6720  0.3382 -0.3968
 2752TIP3   OH229746   4.361   0.206   4.273  0.3468 -0.1507  0.5638
 2752TIP3    H129747   4.342   0.128   4.325 -0.1849  0.1946  0.9014
 2752TIP3    H229748   4.317   0.191   4.189 -0.7014  0.2482  1.0184
 2753TIP3   OH229749   1.832   2.810   3.913  0.0680 -0.0806 -0.7687
 2753TIP3    H129750   1.838   2.732   3.970  0.3356  0.1852 -0.4306
 2753TIP3    H229751   1.905   2.800   3.852  1.1293  0.7318  0.3202
 2754TIP3   OH229752   4.684   4.844  11.930  0.4278 -0.1315 -0.0641
 2754TIP3    H129753   4.744   4.919  11.926  0.4565 -0.1118  0.6797
 2754TIP3    H229754   4.738   4.772  11.962  0.2197 -0.2931 -0.0737
 2755TIP3   OH229755   0.614   5.080  16.225 -0.1643  0.1248 -0.2600
 2755TIP3    H129756   0.597   5.033  16.143  1.7011  0.3152 -0.7955
 2755TIP3    H229757   0.555   5.039  16.288 -1.0635 -0.5705 -1.5026
 2756TIP3   OH229758   1.545   4.219  13.262  0.6525  0.6563  0.1009
 2756TIP3    H129759   1.534   4.307  13.297 -0.2564  0.4482  0.3602
 2756TIP3    H229760   1.636   4.217  13.230  0.2025  2.2129 -1.4304
 2757TIP3   OH229761   4.795   4.184   5.478 -0.3366  0.7419 -0.3907
 2757TIP3    H129762   4.733   4.174   5.407  1.1392  1.4189 -1.8568
 2757TIP3    H229763   4.838   4.268   5.461  0.5448  0.5954  0.9177
 2758TIP3   OH229764   0.949   4.965   4.041  0.4926  0.7183 -0.0235
 2758TIP3    H129765   0.913   4.886   4.082  1.1315  0.3643 -0.1322
 2758TIP3    H229766   0.919   5.036   4.097  2.3651  0.1482  1.8406
 2759TIP3   OH229767   5.406   4.974   5.561  0.2809 -0.3294  0.3543
 2759TIP3    H129768   5.330   5.032   5.561  1.4147  1.2623 -1.3559
 2759TIP3    H229769   5.481   5.033   5.569  1.4115 -1.7466  0.5514
 2760TIP3   OH229770   0.138   6.410   3.375 -0.0311 -0.2971 -0.6694
 2760TIP3    H129771   0.057   6.364   3.398 -0.3116  0.5886  0.1717
 2760TIP3    H229772   0.201   6.382   3.441  0.0579 -0.1652 -0.6996
 2761TIP3   OH229773   0.255   2.676  11.944  0.1325  0.0847  0.0766
 2761TIP3    H129774   0.335   2.665  11.995 -0.1398  0.8559  0.6954
 2761TIP3    H229775   0.263   2.763  11.905  0.4842 -0.6191 -1.5041
 2762TIP3   OH229776   6.087   0.162   4.285 -0.0294 -0.5692  0.1040
 2762TIP3    H129777   6.127   0.182   4.369 -0.4725  1.6543 -0.1610
 2762TIP3    H229778   6.154   0.186   4.220 -0.8766  0.9374 -0.2557
 2763TIP3   OH229779   0.212   0.909   3.547  0.0953 -0.2900  0.2819
 2763TIP3    H129780   0.306   0.913   3.531  0.3096 -0.4272  1.4129
 2763TIP3    H229781   0.201   0.939   3.638 -0.6969 -2.2796  0.9085
 2764TIP3   OH229782   5.950   1.721   3.560  0.5674 -0.0530  0.9294
 2764TIP3    H129783   5.993   1.748   3.479  0.2088 -0.5292  0.5792
 2764TIP3    H229784   5.905   1.640   3.538 -0.5121  0.4336  1.2842
 2765TIP3   OH229785   3.539   3.313   2.838 -0.0077 -0.7673  0.1719
 2765TIP3    H129786   3.550   3.403   2.867 -0.5999 -0.6878  0.1579
 2765TIP3    H229787   3.474   3.276   2.898 -0.4882 -0.8989 -0.4189
 2766TIP3   OH229788   5.229   2.898  13.211  0.1198 -0.3383  0.3227
 2766TIP3    H129789   5.287   2.886  13.286  1.7343 -0.1841 -0.8613
 2766TIP3    H229790   5.233   2.814  13.165 -0.5463 -0.2976  0.1811
 2767TIP3   OH229791   0.574   0.505   4.032 -0.2069  0.3875  0.0467
 2767TIP3    H129792   0.579   0.439   4.101 -0.6789  1.1212  0.8040
 2767TIP3    H229793   0.512   0.570   4.065 -0.6907  0.5980 -1.2103
 2768TIP3   OH229794   1.457   5.417  12.292  0.5626 -0.0743 -0.0998
 2768TIP3    H129795   1.397   5.403  12.365  1.2156  1.0337  0.6722
 2768TIP3    H229796   1.539   5.376  12.319  0.2762 -1.2980 -1.0157
 2769TIP3   OH229797   6.152   5.157  11.643 -0.2336  0.3468 -0.0893
 2769TIP3    H129798   6.170   5.250  11.652  0.8451  0.0028  1.6302
 2769TIP3    H229799   6.214   5.127  11.577 -1.0420  0.9308 -1.1575
 2770TIP3   OH229800   4.263   6.223  14.399 -0.0524 -0.3732 -0.1226
 2770TIP3    H129801   4.291   6.273  14.475 -0.6598 -1.1825  0.6556
 2770TIP3    H229802   4.219   6.146  14.435 -0.8817 -0.4860 -1.2900
 2771TIP3   OH229803   3.813   0.227  16.218  0.7061 -0.2085 -0.0856
 2771TIP3    H129804   3.879   0.219  16.286  1.4088  1.8236 -0.4632
 2771TIP3    H229805   3.862   0.233  16.137  0.0489  0.7810 -0.4312
 2772TIP3   OH229806   2.758   5.732  13.122 -0.0706  0.5054 -0.3389
 2772TIP3    H129807   2.676   5.705  13.080  1.0923 -2.5302 -0.8927
 2772TIP3    H229808   2.747   5.707  13.214 -0.3594  1.6800 -0.0333
 2773TIP3   OH229809   4.575   6.184   2.480  0.2742 -0.5595  0.3373
 2773TIP3    H129810   4.604   6.263   2.527 -2.0985  0.8619 -0.4080
 2773TIP3    H229811   4.484   6.171   2.509  0.0818 -2.0659 -0.8087
 2774TIP3   OH229812   4.077   5.879  16.185  0.5862 -0.0330  0.8562
 2774TIP3    H129813   4.074   5.968  16.222 -0.7081  0.4598 -0.3542
 2774TIP3    H229814   4.075   5.822  16.261 -0.6570  0.9693  1.6305
 2775TIP3   OH229815   2.682   2.480   0.390  0.8007 -0.1165  0.8030
 2775TIP3    H129816   2.755   2.451   0.337  2.1676 -0.0217  2.5326
 2775TIP3    H229817   2.647   2.557   0.345 -0.7234 -2.3018 -2.0418
 2776TIP3   OH229818   5.016   0.474   1.050  0.2898  0.0913  0.4264
 2776TIP3    H129819   4.927   0.504   1.030 -0.0126  0.1981  1.8216
 2776TIP3    H229820   5.072   0.547   1.022 -0.2545  1.0053  1.6356
 2777TIP3   OH229821   4.698   2.630  15.056 -0.2056  0.9082  0.3036
 2777TIP3    H129822   4.644   2.583  14.992  1.4715 -0.9964  0.1785
 2777TIP3    H229823   4.788   2.608  15.032  0.5665  2.2472  1.7741
 2778TIP3   OH229824   4.473   2.341  15.275 -0.5341  0.1888  0.4508
 2778TIP3    H129825   4.401   2.279  15.283 -0.2670 -0.0228  1.3521
 2778TIP3    H229826   4.473   2.367  15.183 -0.9463 -0.7869  0.1680
 2779TIP3   OH229827   3.008   4.795  15.244 -0.6889  0.3577 -0.1432
 2779TIP3    H129828   3.098   4.782  15.274 -1.3313 -1.0718  1.3796
 2779TIP3    H229829   2.997   4.730  15.174 -0.5480  0.5226 -0.3199
 2780TIP3   OH229830   2.201   3.022   3.156  0.1580  0.4134  0.5367
 2780TIP3    H129831   2.219   2.954   3.091 -0.7401  0.8431 -0.1849
 2780TIP3    H229832   2.164   2.974   3.231  1.4500 -0.1147  0.8763
 2781TIP3   OH229833   3.089   5.314  16.405  0.0375 -0.0475 -0.1614
 2781TIP3    H129834   3.052   5.400  16.389  1.3503  0.7440  0.8077
 2781TIP3    H229835   3.071   5.296  16.497  0.5418 -0.3938 -0.1211
 2782TIP3   OH229836   4.472   4.817  12.094  0.0416  0.5741 -0.0425
 2782TIP3    H129837   4.546   4.852  12.045 -1.0544  0.9782 -1.4918
 2782TIP3    H229838   4.443   4.741  12.043  0.5487 -0.6800  1.4733
 2783TIP3   OH229839   5.891   3.742  12.094 -0.1683  0.0309  0.3445
 2783TIP3    H129840   5.828   3.713  12.028  0.8551 -0.0813 -0.6225
 2783TIP3    H229841   5.894   3.837  12.084 -1.3206  0.2215  1.4800
 2784TIP3   OH229842   5.839   6.538   4.551  0.3361 -0.1550  0.0050
 2784TIP3    H129843   5.927   6.519   4.584 -0.4109 -1.3362  1.4599
 2784TIP3    H229844   5.818   6.623   4.589  1.0833  0.4455 -0.8879
 2785TIP3   OH229845   6.170   1.525   3.811 -0.3385 -0.1137 -0.1191
 2785TIP3    H129846   6.130   1.454   3.760 -2.8746  0.5534  0.7864
 2785TIP3    H229847   6.264   1.516   3.794 -0.5673 -3.3665 -0.4173
 2786TIP3   OH229848   1.528   2.818  17.148  0.4103  0.7516 -0.2174
 2786TIP3    H129849   1.451   2.871  17.125 -1.6198 -2.0073 -0.3069
 2786TIP3    H229850   1.503   2.774  17.229  1.0389 -1.7522 -1.3007
 2787TIP3   OH229851   5.716   6.736  15.754  0.3287  0.3673  0.1620
 2787TIP3    H129852   5.679   6.651  15.776 -0.3692  0.1284 -1.7714
 2787TIP3    H229853   5.700   6.790  15.832  1.9939 -1.5764  1.9715
 2788TIP3   OH229854   1.480   3.032   4.806 -0.1113  0.0669 -0.5214
 2788TIP3    H129855   1.553   3.011   4.864 -1.5445 -0.4166  1.2045
 2788TIP3    H229856   1.513   3.102   4.750  1.9587 -0.7915 -0.4429
 2789TIP3   OH229857   4.890   6.324   4.451  0.2704  0.3686 -0.8799
 2789TIP3    H129858   4.936   6.293   4.372  0.5021 -0.0396 -0.5925
 2789TIP3    H229859   4.875   6.417   4.435 -3.4054 -0.4506 -3.2294
 2790TIP3   OH229860   3.349   0.230   2.059  0.1755 -0.0995 -0.3710
 2790TIP3    H129861   3.271   0.179   2.039  0.9215 -1.1883 -0.5576
 2790TIP3    H229862   3.365   0.280   1.979 -1.2504  1.4021  0.2257
 2791TIP3   OH229863   5.771   2.953   0.612 -0.1768  0.5260  0.3603
 2791TIP3    H129864   5.830   2.982   0.682 -1.7610 -0.4513  2.1912
 2791TIP3    H229865   5.760   2.859   0.627 -0.1754  0.1957 -1.5274
 2792TIP3   OH229866   0.473   6.201  16.113  0.0181  0.6288  0.8462
 2792TIP3    H129867   0.560   6.175  16.084 -0.1506  0.6912  0.2631
 2792TIP3    H229868   0.440   6.256  16.042 -1.6004 -1.6516 -0.3112
 2793TIP3   OH229869   2.685   5.727   0.597  0.1130  0.2907 -0.0489
 2793TIP3    H129870   2.723   5.738   0.510 -2.1601  2.6607 -0.9059
 2793TIP3    H229871   2.615   5.792   0.600 -2.2546 -2.1301  2.2494
 2794TIP3   OH229872   1.935   1.958  14.572  0.1582  0.3389 -0.3339
 2794TIP3    H129873   1.979   2.019  14.631 -0.0201  1.1503 -1.0178
 2794TIP3    H229874   1.975   1.976  14.486 -2.7602  2.4728 -1.4080
 2795TIP3   OH229875   4.353   2.076   3.880  0.1629  0.2969 -0.1205
 2795TIP3    H129876   4.302   2.008   3.924 -0.3751  2.1140  2.2761
 2795TIP3    H229877   4.379   2.135   3.950  2.7174  1.2801 -1.7645
 2796TIP3   OH229878   5.525   5.205   3.556 -0.2631  0.2173  0.2804
 2796TIP3    H129879   5.504   5.258   3.633 -0.7362  2.3861 -1.2610
 2796TIP3    H229880   5.440   5.174   3.525 -0.1055 -0.3166  0.3657
 2797TIP3   OH229881   5.640   5.906   0.530 -0.1630  0.1871  0.0961
 2797TIP3    H129882   5.649   5.938   0.619  0.0876  0.0676  0.1122
 2797TIP3    H229883   5.638   5.811   0.538 -2.1227  0.1932  0.1685
 2798TIP3   OH229884   0.404   4.506  11.564 -0.3943  0.0251  0.7636
 2798TIP3    H129885   0.466   4.577  11.546 -0.2827 -0.1203  0.5753
 2798TIP3    H229886   0.322   4.551  11.585 -0.9952  0.2083 -1.6560
 2799TIP3   OH229887   0.520   5.245   1.743  0.4010 -0.2606  0.0011
 2799TIP3    H129888   0.447   5.221   1.686  0.9129 -0.0813 -0.7452
 2799TIP3    H229889   0.572   5.306   1.691  1.0975 -0.4009  0.5172
 2800TIP3   OH229890   3.824   3.655  13.693 -0.1523 -0.1921 -0.5635
 2800TIP3    H129891   3.837   3.695  13.779  0.8091 -0.2960 -0.6511
 2800TIP3    H229892   3.809   3.729  13.634  0.6182 -0.0214 -0.5502
 2801TIP3   OH229893   5.486   6.672   2.591 -0.2345  0.7388  0.1537
 2801TIP3    H129894   5.466   6.586   2.629 -2.4568  0.0255 -2.2888
 2801TIP3    H229895   5.432   6.733   2.641  0.4326  0.5684  1.1120
 2802TIP3   OH229896   5.419   4.439  13.068 -0.1300  0.1661  0.4630
 2802TIP3    H129897   5.513   4.450  13.083  0.0299 -1.0388  0.4521
 2802TIP3    H229898   5.394   4.515  13.015  0.6691  0.9144  1.1424
 2803TIP3   OH229899   0.595   5.318   4.455  0.1209 -0.9640  0.1022
 2803TIP3    H129900   0.638   5.235   4.433  0.3069 -1.3599  1.8366
 2803TIP3    H229901   0.513   5.292   4.497  1.3881 -0.4103  3.1586
 2804TIP3   OH229902   6.492   1.389   3.585  0.5143 -0.1448 -0.2373
 2804TIP3    H129903   6.518   1.478   3.562  0.0466  0.1596  0.4059
 2804TIP3    H229904   6.575   1.341   3.590  0.7270  0.1004 -1.1958
 2805TIP3   OH229905   1.506   3.775   4.608  0.2704 -0.2283 -0.7657
 2805TIP3    H129906   1.462   3.797   4.527 -1.1510 -1.2391 -0.3063
 2805TIP3    H229907   1.460   3.825   4.675 -0.4453 -1.5425 -0.2379
 2806TIP3   OH229908   1.956   0.432   0.655  0.5041  0.0083  0.6788
 2806TIP3    H129909   2.050   0.443   0.645  0.3903  0.9268  0.5409
 2806TIP3    H229910   1.918   0.512   0.618 -0.4020 -0.9270 -0.4624
 2807TIP3   OH229911   0.638   0.259  11.561 -0.1460 -0.0411 -0.1961
 2807TIP3    H129912   0.622   0.339  11.612 -1.0216 -0.2719 -0.0878
 2807TIP3    H229913   0.621   0.188  11.623 -0.1038 -0.3203 -0.5019
 2808TIP3   OH229914   5.092   1.652  13.955 -0.0670  0.2026 -0.5832
 2808TIP3    H129915   5.073   1.745  13.968  1.1248  0.4063 -0.2224
 2808TIP3    H229916   5.097   1.616  14.043 -0.5853 -0.2244 -0.7250
 2809TIP3   OH229917   0.861   5.979   5.730  0.5693  0.0204  0.1442
 2809TIP3    H129918   0.845   6.061   5.777  2.7464  0.5478  0.0382
 2809TIP3    H229919   0.933   5.938   5.776 -0.9965 -2.3013  0.6865
 2810TIP3   OH229920   4.630   2.993  14.031 -0.1534  0.5831 -0.4317
 2810TIP3    H129921   4.595   2.987  14.120  0.7955 -0.7727 -0.1127
 2810TIP3    H229922   4.554   2.983  13.974 -0.7371  1.2122  0.2136
 2811TIP3   OH229923   6.309   2.453  13.546  0.1318  0.1658 -0.0756
 2811TIP3    H129924   6.350   2.466  13.631 -0.4066 -0.5058  0.3057
 2811TIP3    H229925   6.228   2.504  13.550  0.1568  0.2150 -0.2135
 2812TIP3   OH229926   4.883   5.449   5.981  1.1814 -0.7882  0.7401
 2812TIP3    H129927   4.897   5.459   6.075 -0.1965 -2.1951  1.1318
 2812TIP3    H229928   4.790   5.467   5.968  1.8617  2.1454 -0.8260
 2813TIP3   OH229929   2.219   3.881   3.561 -0.2900 -0.2502  0.2740
 2813TIP3    H129930   2.135   3.835   3.573 -0.4250  0.1661  0.9228
 2813TIP3    H229931   2.224   3.941   3.635 -0.3418  1.1479 -0.8244
 2814TIP3   OH229932   6.083   6.325  13.353  0.6595 -0.3852 -0.2481
 2814TIP3    H129933   6.078   6.373  13.436  0.4559 -0.5091 -0.1910
 2814TIP3    H229934   6.092   6.394  13.287  0.5741 -0.2755 -0.1474
 2815TIP3   OH229935   5.398   0.486  16.507 -0.5297 -0.3784  0.0486
 2815TIP3    H129936   5.453   0.408  16.518  0.4043  0.1751 -0.5278
 2815TIP3    H229937   5.460   0.559  16.504 -1.1649  0.1349 -2.1104
 2816TIP3   OH229938   3.909   5.795  11.832  0.1934  0.4419 -0.0719
 2816TIP3    H129939   3.930   5.706  11.859 -1.2764  0.2616  0.5831
 2816TIP3    H229940   3.994   5.837  11.819  0.9325 -1.3187 -1.3875
 2817TIP3   OH229941   3.217   3.099  11.233 -0.3519 -0.0032  0.2055
 2817TIP3    H129942   3.269   3.140  11.164 -0.3035  2.4004  1.5735
 2817TIP3    H229943   3.272   3.028  11.266  0.0660 -0.4901 -1.4573
 2818TIP3   OH229944   4.354   1.379   5.471  0.5289  0.5374 -0.1186
 2818TIP3    H129945   4.309   1.461   5.448  0.6636  0.5972 -0.1708
 2818TIP3    H229946   4.410   1.360   5.395  1.0319  0.7743  0.1874
 2819TIP3   OH229947   3.246   2.398   3.737 -0.0242  0.7050  0.2418
 2819TIP3    H129948   3.320   2.452   3.710  0.2819  0.1775  0.0032
 2819TIP3    H229949   3.261   2.382   3.831  0.8157 -0.3758 -0.0519
 2820TIP3   OH229950   0.522   1.042  11.733 -0.5501  0.1162  0.3288
 2820TIP3    H129951   0.463   0.968  11.718  0.0693 -0.9120  2.6495
 2820TIP3    H229952   0.609   1.003  11.737 -0.2696  0.8278  2.2100
 2821TIP3   OH229953   1.001   5.022   4.639 -0.0142  0.0251  0.2397
 2821TIP3    H129954   0.981   5.105   4.683  1.4479 -0.0307  1.0773
 2821TIP3    H229955   0.990   4.955   4.706 -1.9949 -0.5957 -0.6447
 2822TIP3   OH229956   2.485   0.054  13.031  0.4695  0.4328 -0.0970
 2822TIP3    H129957   2.548   0.122  13.054  1.0682 -0.6002  1.5589
 2822TIP3    H229958   2.489   0.047  12.936  0.5620  2.5061 -0.2809
 2823TIP3   OH229959   2.551   0.214   0.510  0.0341 -0.0493 -0.1638
 2823TIP3    H129960   2.645   0.230   0.510  0.1963 -0.6581 -2.4253
 2823TIP3    H229961   2.532   0.184   0.598  2.6260 -3.3361 -0.5267
 2824TIP3   OH229962   3.149   2.245   1.440  0.6465 -0.4481 -0.5289
 2824TIP3    H129963   3.082   2.238   1.372  0.2649 -0.4587 -0.1564
 2824TIP3    H229964   3.102   2.277   1.517  1.2293  0.3529 -0.4958
 2825TIP3   OH229965   4.940   1.445   1.203  0.6698 -0.2095  0.2973
 2825TIP3    H129966   4.948   1.357   1.166 -2.8680 -0.5281  0.0124
 2825TIP3    H229967   4.949   1.504   1.127 -1.2198 -0.5940 -0.2640
 2826TIP3   OH229968   5.025   0.430  13.337  0.2056 -0.0726 -0.2667
 2826TIP3    H129969   4.972   0.459  13.263  0.5751 -1.7977 -1.2698
 2826TIP3    H229970   4.982   0.350  13.367  0.8456 -0.1389  0.5128
 2827TIP3   OH229971   2.792   5.948  16.705  0.0906 -0.1760 -0.0535
 2827TIP3    H129972   2.839   5.865  16.718  2.3987  1.2840  1.7309
 2827TIP3    H229973   2.718   5.944  16.765  1.6663  0.0403  1.9837
 2828TIP3   OH229974   0.546   2.989   3.189  0.4013  0.2214 -0.7166
 2828TIP3    H129975   0.500   3.071   3.206 -1.2571 -0.7086 -0.5432
 2828TIP3    H229976   0.509   2.958   3.106 -3.1489 -2.9856  1.6876
 2829TIP3   OH229977   6.710   2.686   1.076  0.1380 -0.3672 -0.1623
 2829TIP3    H129978   6.804   2.680   1.063 -0.1029 -0.9982 -1.7739
 2829TIP3    H229979   6.696   2.774   1.112  1.4605 -0.7992  1.5006
 2830TIP3   OH229980   5.589   4.425  11.505 -0.1242 -0.4979 -0.0169
 2830TIP3    H129981   5.667   4.481  11.505  0.2960 -1.0359  1.5977
 2830TIP3    H229982   5.555   4.432  11.416  1.6268 -0.0546 -0.6976
 2831TIP3   OH229983   0.287   1.164   1.191  0.1131  0.0005  0.1321
 2831TIP3    H129984   0.253   1.075   1.184 -0.5849  0.1263  1.6730
 2831TIP3    H229985   0.365   1.156   1.245 -1.1384  0.5530  2.1478
 2832TIP3   OH229986   1.352   3.912  12.458 -0.5047  0.4969 -0.0322
 2832TIP3    H129987   1.262   3.934  12.434 -0.8725 -0.6061  0.2631
 2832TIP3    H229988   1.370   3.831  12.411 -0.0410  0.1470  0.7227
 2833TIP3   OH229989   0.154   3.917   4.401  0.3249 -0.6137 -0.5623
 2833TIP3    H129990   0.161   4.009   4.426 -0.4554 -0.6014 -0.3564
 2833TIP3    H229991   0.105   3.918   4.319 -1.9985 -0.9574  0.7110
 2834TIP3   OH229992   3.750   3.756  12.568 -0.6030  0.4648  0.0423
 2834TIP3    H129993   3.711   3.842  12.585 -0.0516  0.5652  0.8085
 2834TIP3    H229994   3.751   3.750  12.472 -0.0065  1.6132 -0.0392
 2835TIP3   OH229995   1.305   1.142  16.941 -0.3163  0.0208 -0.2693
 2835TIP3    H129996   1.245   1.076  16.906  0.5481 -0.4031 -0.9924
 2835TIP3    H229997   1.382   1.092  16.968  0.1372  0.6764 -0.3277
 2836TIP3   OH229998   5.394   4.381   6.133  0.0859 -0.0568  0.6283
 2836TIP3    H129999   5.303   4.373   6.106  0.3010 -0.4715 -0.0207
 2836TIP3    H230000   5.406   4.312   6.198  0.2911 -0.9649 -0.3359
 2837TIP3   OH230001   2.260   1.586   2.792 -0.5496 -0.2707  0.1513
 2837TIP3    H130002   2.330   1.627   2.740  0.6582  2.5467  3.5472
 2837TIP3    H230003   2.306   1.525   2.849 -1.2038 -0.2522  0.7077
 2838TIP3   OH230004   6.287   5.267   3.374  0.1702 -0.2466 -0.7363
 2838TIP3    H130005   6.331   5.191   3.412  0.9820 -0.0462 -1.2414
 2838TIP3    H230006   6.221   5.292   3.439 -0.3081 -1.5450 -0.6933
 2839TIP3   OH230007   2.076   1.945  14.272  0.0595 -0.3636 -0.1964
 2839TIP3    H130008   2.125   1.901  14.202 -0.5707 -0.0192 -0.8706
 2839TIP3    H230009   2.102   2.037  14.265 -1.1764 -0.0600 -1.0015
 2840TIP3   OH230010   2.434   0.746   6.143  0.0325  0.2673 -0.0808
 2840TIP3    H130011   2.441   0.824   6.088 -2.2555 -0.5877 -1.7336
 2840TIP3    H230012   2.371   0.770   6.211 -1.0646 -0.2862 -0.8947
 2841TIP3   OH230013   3.060   5.146   2.770  0.3920  0.2516 -0.2563
 2841TIP3    H130014   3.101   5.064   2.740  1.0282 -0.0792  1.4531
 2841TIP3    H230015   3.040   5.193   2.689  1.4836 -0.8817 -1.2220
 2842TIP3   OH230016   4.313   3.953  11.342 -0.5949 -0.8784 -0.3244
 2842TIP3    H130017   4.270   3.903  11.273 -0.8924  0.3599 -1.0674
 2842TIP3    H230018   4.290   4.044  11.324 -2.1302 -0.6058  2.3719
 2843TIP3   OH230019   2.807   4.842  15.443 -0.1417 -0.0029  0.6878
 2843TIP3    H130020   2.809   4.938  15.440  2.0954  0.0020  0.1689
 2843TIP3    H230021   2.856   4.815  15.366  0.5252 -1.5228  1.5943
 2844TIP3   OH230022   6.194   0.126   6.374 -0.4822  0.3018 -0.7706
 2844TIP3    H130023   6.220   0.053   6.431 -0.7129  1.4077  0.8190
 2844TIP3    H230024   6.103   0.105   6.350 -1.0315  0.6937  0.8173
 2845TIP3   OH230025   0.502   0.220  14.680 -0.4423  0.2683 -0.1698
 2845TIP3    H130026   0.547   0.239  14.763  0.9815 -0.0947 -0.8216
 2845TIP3    H230027   0.420   0.269  14.685 -0.7503 -0.3659  1.7757
 2846TIP3   OH230028   3.700   2.235   2.763  0.1810 -0.1353 -0.2947
 2846TIP3    H130029   3.690   2.218   2.857 -1.6833  0.3178 -0.3693
 2846TIP3    H230030   3.664   2.157   2.720 -0.9311  0.5177 -0.6056
 2847TIP3   OH230031   4.843   2.238   1.724  0.0897 -0.1256  0.2565
 2847TIP3    H130032   4.750   2.261   1.713  0.0551  0.5821  1.8643
 2847TIP3    H230033   4.863   2.186   1.646 -0.7228  2.5795 -1.9427
 2848TIP3   OH230034   4.888   4.810   1.509 -0.3394  0.3439 -0.0570
 2848TIP3    H130035   4.843   4.787   1.428  0.5219  0.8243 -0.6881
 2848TIP3    H230036   4.822   4.855   1.561 -0.1948  2.5657 -1.6665
 2849TIP3   OH230037   6.760   6.402  11.688  0.7353  0.1397 -0.0907
 2849TIP3    H130038   6.757   6.443  11.602  0.9734 -0.3587 -0.3397
 2849TIP3    H230039   6.850   6.415  11.718  0.8836 -0.4297 -0.2852
 2850TIP3   OH230040   3.799   1.425   1.488 -0.7032 -0.0924  0.4607
 2850TIP3    H130041   3.773   1.356   1.427  0.5099  1.7900 -2.4511
 2850TIP3    H230042   3.717   1.457   1.526 -1.6062 -0.8630 -0.7809
 2851TIP3   OH230043   5.895   1.388  13.864  0.2247  0.3152 -0.0409
 2851TIP3    H130044   5.886   1.323  13.933 -0.0010 -0.4803 -0.8099
 2851TIP3    H230045   5.809   1.393  13.823  0.7462 -0.3574 -1.2621
 2852TIP3   OH230046   4.538   6.141  12.587 -0.4693 -0.1620  0.0826
 2852TIP3    H130047   4.466   6.169  12.531  0.1840  0.4193 -0.4716
 2852TIP3    H230048   4.585   6.221  12.608  0.7441 -0.6758 -0.5870
 2853TIP3   OH230049   0.533   1.907  10.386 -0.1872 -0.2128  0.1164
 2853TIP3    H130050   0.445   1.938  10.365  0.6468  3.1995  1.1586
 2853TIP3    H230051   0.585   1.928  10.308  0.5707  2.0511  1.1576
 2854TIP3   OH230052   0.969   5.171  13.002  0.1787  0.7093  0.3560
 2854TIP3    H130053   0.945   5.215  13.084 -0.3348 -0.5240  0.8918
 2854TIP3    H230054   0.909   5.208  12.937  1.2348  2.4210  0.2917
 2855TIP3   OH230055   6.269   0.613  16.903 -0.5219 -0.3392 -0.8906
 2855TIP3    H130056   6.319   0.602  16.984  1.2625 -1.2943 -2.0646
 2855TIP3    H230057   6.286   0.703  16.876 -0.4527 -0.2776 -0.6411
 2856TIP3   OH230058   4.701   6.550   3.323 -0.5386  0.0262 -0.0001
 2856TIP3    H130059   4.666   6.638   3.334 -0.6727  0.0789 -0.7444
 2856TIP3    H230060   4.755   6.555   3.243  1.9588  0.1727  1.5891
 2857TIP3   OH230061   2.177   4.614  14.100 -0.0934 -0.7872 -0.2681
 2857TIP3    H130062   2.193   4.551  14.170  0.3347 -0.3182  0.0610
 2857TIP3    H230063   2.174   4.699  14.144 -0.3164 -0.5379 -0.7555
 2858TIP3   OH230064   4.392   2.263   3.391 -0.1107 -0.7641  0.0571
 2858TIP3    H130065   4.399   2.178   3.347  1.4465 -1.1720  1.0054
 2858TIP3    H230066   4.476   2.306   3.373 -0.6494  0.3339  0.0846
 2859TIP3   OH230067   2.095   0.076  13.483 -0.4284  0.3516 -0.0201
 2859TIP3    H130068   2.090  -0.006  13.435 -0.0911  0.5347 -0.3725
 2859TIP3    H230069   2.092   0.144  13.416 -2.1453  0.6874  0.3464
 2860TIP3   OH230070   2.689   2.421  15.467  0.3873  0.0909 -0.9004
 2860TIP3    H130071   2.730   2.508  15.460  0.2968  0.4599  1.8943
 2860TIP3    H230072   2.757   2.361  15.437  1.0827  1.0365 -1.2868
 2861TIP3   OH230073   3.485   6.647  15.427 -0.2766 -0.9262 -0.5583
 2861TIP3    H130074   3.517   6.559  15.448 -0.5845 -1.2512 -1.4275
 2861TIP3    H230075   3.488   6.694  15.511 -0.7593 -1.9737  0.0620
 2862TIP3   OH230076   2.549   6.495   4.340 -0.1960 -0.1744  0.5750
 2862TIP3    H130077   2.607   6.439   4.391 -0.3630 -0.6897  0.1986
 2862TIP3    H230078   2.545   6.455   4.254 -1.9114 -0.7483  0.8658
 2863TIP3   OH230079   1.697   5.951   3.540  0.9002 -0.1107  0.2168
 2863TIP3    H130080   1.638   5.954   3.464  1.9120  1.9766 -0.5915
 2863TIP3    H230081   1.763   5.887   3.516  0.8828  0.1029 -0.4462
 2864TIP3   OH230082   4.981   0.311  14.712  0.3139  0.4117 -0.4506
 2864TIP3    H130083   4.913   0.278  14.771 -0.8637 -0.6536 -2.3228
 2864TIP3    H230084   4.963   0.404  14.704  0.9619  0.7509  1.3997
 2865TIP3   OH230085   6.174   3.998   1.159 -0.0470 -0.1467 -0.7417
 2865TIP3    H130086   6.150   3.919   1.207  0.1267  0.6878  0.8028
 2865TIP3    H230087   6.165   4.069   1.223  0.0167  1.0652 -2.0121
 2866TIP3   OH230088   2.482   2.354   1.427  0.3186  0.0039  0.4939
 2866TIP3    H130089   2.400   2.310   1.407 -0.8816  2.5807 -0.7303
 2866TIP3    H230090   2.458   2.425   1.487  1.9632 -0.2065  1.4693
 2867TIP3   OH230091   1.922   3.236   2.520 -0.3564 -0.1805 -0.0218
 2867TIP3    H130092   1.915   3.290   2.441 -1.6149  0.1305  0.2800
 2867TIP3    H230093   2.016   3.232   2.539 -0.0924  0.2582 -1.1713
 2868TIP3   OH230094   4.475   3.558  13.997 -0.4992 -0.6556  0.4718
 2868TIP3    H130095   4.552   3.591  13.952 -2.0349  0.2234 -1.6770
 2868TIP3    H230096   4.461   3.471  13.961 -0.5277 -0.8076  0.8462
 2869TIP3   OH230097   4.954   3.208  15.388 -0.3618 -0.0960 -0.6427
 2869TIP3    H130098   4.986   3.186  15.476  1.1479 -0.1056 -1.1677
 2869TIP3    H230099   4.902   3.287  15.401 -0.2170 -0.1339  0.2605
 2870TIP3   OH230100   0.703   4.984   5.787  0.3161 -0.8083 -0.5523
 2870TIP3    H130101   0.633   5.047   5.769  1.2842  0.1518 -1.0953
 2870TIP3    H230102   0.686   4.954   5.876 -0.0356  0.4082 -0.1875
 2871TIP3   OH230103   3.975   3.981  16.520 -0.0514 -0.3862 -0.3503
 2871TIP3    H130104   3.988   4.075  16.503 -2.3160  0.0796  0.1574
 2871TIP3    H230105   3.929   3.978  16.604  1.1261 -2.0548  0.2855
 2872TIP3   OH230106   1.682   4.528  15.330  0.6741 -0.0333  0.0197
 2872TIP3    H130107   1.605   4.571  15.293 -0.4768 -2.6864 -0.9345
 2872TIP3    H230108   1.749   4.596  15.333 -0.7303  1.5891 -2.2094
 2873TIP3   OH230109   6.477   0.950  13.623  0.3689  0.1937  0.0077
 2873TIP3    H130110   6.489   0.863  13.585 -1.2599 -0.6371  1.2672
 2873TIP3    H230111   6.525   1.009  13.565  2.0378 -1.6017 -0.5293
 2874TIP3   OH230112   1.394   0.347   1.093 -0.5467 -0.2642  0.3502
 2874TIP3    H130113   1.347   0.292   1.156 -1.0866  1.2209  1.2986
 2874TIP3    H230114   1.325   0.386   1.039 -0.2584  0.2679  0.3571
 2875TIP3   OH230115   5.065   6.078   0.530  0.0974 -0.6199  0.4475
 2875TIP3    H130116   5.004   6.020   0.483 -0.7122  1.1753 -0.8399
 2875TIP3    H230117   5.009   6.149   0.563  1.2089  0.0136  0.9928
 2876TIP3   OH230118   0.134   0.333  11.361 -1.1293 -0.0836  0.7170
 2876TIP3    H130119   0.106   0.424  11.348  1.8105  0.6569 -1.8793
 2876TIP3    H230120   0.081   0.283  11.299 -0.3564  0.4958 -0.4612
 2877TIP3   OH230121   2.425   3.488  16.674  0.0100 -0.2815  0.2759
 2877TIP3    H130122   2.391   3.470  16.762  0.6938  0.7395  0.7610
 2877TIP3    H230123   2.357   3.454  16.615  0.2585 -2.4921  1.1423
 2878TIP3   OH230124   0.742   6.421   5.496  0.2813 -0.8881 -0.5180
 2878TIP3    H130125   0.752   6.476   5.418 -1.7974 -0.9609 -0.8896
 2878TIP3    H230126   0.806   6.456   5.558 -0.1952  1.2305 -1.1405
 2879TIP3   OH230127   6.506   2.709  11.992 -0.1103 -0.5490 -1.0282
 2879TIP3    H130128   6.582   2.700  11.934  1.5476 -1.1743  1.1073
 2879TIP3    H230129   6.518   2.794  12.035 -1.6225  0.1692 -1.9448
 2880TIP3   OH230130   5.069   6.262   6.495  0.2700 -0.0234 -0.5618
 2880TIP3    H130131   5.089   6.266   6.402  1.2452 -1.1471 -0.4374
 2880TIP3    H230132   5.012   6.185   6.503 -1.7824  1.4330 -0.5105
 2881TIP3   OH230133   1.105   2.498   4.074  0.6091 -0.2624  0.4865
 2881TIP3    H130134   1.075   2.518   3.985 -0.3852 -1.0552  0.6262
 2881TIP3    H230135   1.093   2.579   4.122  0.7047  0.0360  0.0150
 2882TIP3   OH230136   1.489   1.535  10.482 -0.1367 -0.3339 -0.4150
 2882TIP3    H130137   1.580   1.566  10.478 -0.1258 -0.4537 -1.9773
 2882TIP3    H230138   1.437   1.612  10.457 -0.2357 -0.9880 -2.4189
 2883TIP3   OH230139   4.602   1.204  13.954  0.1758  0.1431 -0.0067
 2883TIP3    H130140   4.663   1.259  13.905 -0.4256  0.4466 -0.4347
 2883TIP3    H230141   4.596   1.244  14.040 -1.5223  1.7611 -0.8166
 2884TIP3   OH230142   0.087   5.242  15.022 -0.2058  0.1695 -0.2476
 2884TIP3    H130143   0.143   5.183  14.973 -2.3763 -1.4337 -0.9763
 2884TIP3    H230144   0.014   5.262  14.962 -1.6213  0.2173  1.4013
 2885TIP3   OH230145   0.646   3.252   1.257  1.0330  0.0536 -0.1672
 2885TIP3    H130146   0.654   3.312   1.182 -1.4767 -0.2992 -0.8237
 2885TIP3    H230147   0.566   3.280   1.301  1.2992 -1.1323  1.1351
 2886TIP3   OH230148   1.031   5.690  11.030 -0.2777 -0.0906 -0.3637
 2886TIP3    H130149   0.988   5.621  11.080 -0.0309 -0.1943 -0.2959
 2886TIP3    H230150   1.123   5.663  11.024 -0.6402 -1.0334 -2.4885
 2887TIP3   OH230151   0.299   6.052  12.605  0.1588  0.1750 -0.1019
 2887TIP3    H130152   0.263   6.116  12.543 -0.1549  0.1326  0.0338
 2887TIP3    H230153   0.226   5.995  12.626  0.2056  0.3121  0.4638
 2888TIP3   OH230154   0.669   4.965   1.757  0.0893  0.6315 -0.0558
 2888TIP3    H130155   0.659   4.887   1.813  0.1802  0.2635 -0.5461
 2888TIP3    H230156   0.603   5.027   1.790  0.8395  0.8212  1.1319
 2889TIP3   OH230157   4.607   3.916  15.201  0.1389  0.3703  0.1656
 2889TIP3    H130158   4.701   3.934  15.197  0.2710 -0.1082  0.9769
 2889TIP3    H230159   4.569   3.994  15.241  0.0024  1.1210 -1.3272
 2890TIP3   OH230160   1.735   0.558   2.015 -0.0193 -0.2525 -0.1807
 2890TIP3    H130161   1.647   0.580   1.984 -0.3382 -0.4361  0.5686
 2890TIP3    H230162   1.783   0.641   2.012 -0.4906  0.0479  0.2582
 2891TIP3   OH230163   1.763   3.592  11.152 -0.1047 -0.1706  0.1295
 2891TIP3    H130164   1.679   3.594  11.105  0.2602 -1.5222 -0.6142
 2891TIP3    H230165   1.823   3.637  11.093 -0.8122  3.4836  1.8916
 2892TIP3   OH230166   4.695   1.388   3.501  0.6663  0.1889 -0.8569
 2892TIP3    H130167   4.733   1.465   3.457  0.6370  0.3779 -0.5507
 2892TIP3    H230168   4.624   1.361   3.443 -0.1982  1.2141 -0.2926
 2893TIP3   OH230169   0.839   6.544   2.548 -0.2651 -0.5043  0.1316
 2893TIP3    H130170   0.812   6.567   2.637 -1.2424 -0.7485 -0.0888
 2893TIP3    H230171   0.763   6.499   2.511  0.2517 -0.7020 -0.7181
 2894TIP3   OH230172   0.507   5.182   5.770 -0.0447  0.4199 -0.0566
 2894TIP3    H130173   0.438   5.247   5.752 -0.3231  0.7050  1.7914
 2894TIP3    H230174   0.485   5.149   5.857  1.4889 -0.3706  0.0456
 2895TIP3   OH230175   5.788   1.513   3.499  0.4598  0.5269  0.0625
 2895TIP3    H130176   5.705   1.466   3.511  1.0516 -0.5138  0.1543
 2895TIP3    H230177   5.806   1.507   3.405  2.3594 -2.7028  0.4810
 2896TIP3   OH230178   2.637   2.528  12.493  0.5307  0.0288 -0.1234
 2896TIP3    H130179   2.585   2.555  12.569  1.4730  0.3743  0.4201
 2896TIP3    H230180   2.668   2.610  12.454  1.7669 -0.1806  0.3631
 2897TIP3   OH230181   5.293   3.868  12.264  0.6885  1.0270  0.0672
 2897TIP3    H130182   5.271   3.775  12.271  2.3588  0.5065 -1.0459
 2897TIP3    H230183   5.313   3.895  12.353 -0.2275  0.4542  0.4641
 2898TIP3   OH230184   3.364   2.213  10.990 -0.0817 -0.0753 -0.1069
 2898TIP3    H130185   3.343   2.147  10.924 -0.7883 -0.2533  0.2958
 2898TIP3    H230186   3.286   2.267  10.997 -0.1204 -0.2303  0.7895
 2899TIP3   OH230187   3.227   2.280   2.223 -0.2597  0.0239 -0.6032
 2899TIP3    H130188   3.223   2.376   2.222  2.0867  0.1829 -2.0356
 2899TIP3    H230189   3.261   2.258   2.309 -0.7026  0.4850 -0.3055
 2900TIP3   OH230190   3.139   3.739  11.583 -0.5861 -0.4061 -0.4345
 2900TIP3    H130191   3.093   3.659  11.557  3.0303 -2.2189 -1.8831
 2900TIP3    H230192   3.107   3.805  11.522 -0.4214 -1.9112 -2.2562
 2901TIP3   OH230193   2.296   4.941  10.571  0.3497  0.2823 -0.6325
 2901TIP3    H130194   2.366   4.979  10.625 -0.6454  1.2763  0.0110
 2901TIP3    H230195   2.249   4.882  10.631  0.1043  0.2974 -0.8098
 2902TIP3   OH230196   4.812   6.676  12.281 -0.2749  0.0512 -0.5158
 2902TIP3    H130197   4.750   6.739  12.317  0.6947 -0.2115  1.7610
 2902TIP3    H230198   4.758   6.616  12.230 -1.7217  0.5622  0.3675
 2903TIP3   OH230199   2.509   0.545   1.686 -0.2224  0.1622  0.6734
 2903TIP3    H130200   2.529   0.618   1.628  1.5992 -0.4999  0.4046
 2903TIP3    H230201   2.481   0.586   1.768 -2.4193  1.1110 -0.4711
 2904TIP3   OH230202   1.096   3.116  11.875  0.1743  0.3490  0.1897
 2904TIP3    H130203   1.023   3.176  11.893  0.1137  0.8230 -1.4925
 2904TIP3    H230204   1.060   3.029  11.890 -1.0191  0.5299 -1.3811
 2905TIP3   OH230205   1.758   4.169  10.888  0.5709 -0.3713 -0.1828
 2905TIP3    H130206   1.850   4.150  10.869 -0.3632 -3.8197 -2.1572
 2905TIP3    H230207   1.749   4.262  10.870  3.2312 -0.3573 -2.0949
 2906TIP3   OH230208   6.192   2.328  14.654  1.0961 -0.0535  0.2565
 2906TIP3    H130209   6.263   2.265  14.648 -0.0010 -1.1887 -1.6829
 2906TIP3    H230210   6.118   2.278  14.689  0.2270  0.1107 -1.2538
 2907TIP3   OH230211   1.678   3.257  15.782 -0.7725  0.4909 -0.1956
 2907TIP3    H130212   1.635   3.333  15.821  0.0059  1.9538 -2.0226
 2907TIP3    H230213   1.661   3.266  15.688  0.3542 -0.9372 -0.5647
 2908TIP3   OH230214   4.658   6.308  13.328 -0.4202  0.2266 -0.1473
 2908TIP3    H130215   4.610   6.336  13.250 -1.3467 -0.6042  0.1094
 2908TIP3    H230216   4.730   6.370  13.335  0.4547 -0.4129 -2.4096
 2909TIP3   OH230217   3.174   5.414   5.454  0.1339  0.3971  0.2057
 2909TIP3    H130218   3.173   5.382   5.363  0.1256 -2.2539  1.0443
 2909TIP3    H230219   3.254   5.465   5.460  1.1267 -0.9348 -0.8603
 2910TIP3   OH230220   3.358   5.777   1.609  0.7530 -0.1980  0.5207
 2910TIP3    H130221   3.357   5.814   1.697 -2.8214  0.5566  0.2975
 2910TIP3    H230222   3.371   5.852   1.551  0.4175 -0.2934  0.3174
 2911TIP3   OH230223   3.844   2.477   2.421 -0.8314 -0.3809 -0.1245
 2911TIP3    H130224   3.750   2.483   2.440 -1.0996 -2.1811 -0.6992
 2911TIP3    H230225   3.860   2.383   2.408  1.3601 -0.3115  1.4260
 2912TIP3   OH230226   3.365   3.296  14.422  0.2141 -0.5922 -0.0380
 2912TIP3    H130227   3.444   3.303  14.475  0.0995 -0.6757  0.1423
 2912TIP3    H230228   3.382   3.221  14.364 -0.1836 -1.3070  0.7573
 2913TIP3   OH230229   3.286   3.406   4.375  0.3592 -0.4747  0.0134
 2913TIP3    H130230   3.260   3.496   4.353 -1.0874 -0.3893  1.7782
 2913TIP3    H230231   3.350   3.416   4.445 -1.6845 -0.7710  2.0337
 2914TIP3   OH230232   6.259   1.460   0.207 -0.4058 -0.3674  0.3399
 2914TIP3    H130233   6.294   1.528   0.264 -0.7445 -1.2145  1.5992
 2914TIP3    H230234   6.192   1.503   0.154 -0.3505  0.3501  0.8523
 2915TIP3   OH230235   0.762   0.621  13.722 -0.3206  0.0442 -0.0222
 2915TIP3    H130236   0.815   0.696  13.695 -0.3675  0.2885  0.5481
 2915TIP3    H230237   0.760   0.626  13.818  0.3964 -1.1849  0.0706
 2916TIP3   OH230238   2.609   1.156  16.198 -0.0097  0.1861 -0.3973
 2916TIP3    H130239   2.633   1.215  16.126  0.0498 -0.5755 -1.0214
 2916TIP3    H230240   2.533   1.108  16.165 -0.3800  0.2837  0.3095
 2917TIP3   OH230241   3.372   0.214  12.560  0.1138 -0.0577 -0.1538
 2917TIP3    H130242   3.321   0.135  12.541 -0.7569  0.6360 -0.7585
 2917TIP3    H230243   3.371   0.220  12.656  2.6376 -2.3326  0.1726
 2918TIP3   OH230244   5.828   4.192  11.243 -0.0745 -0.5963  0.0495
 2918TIP3    H130245   5.812   4.171  11.335 -0.7393 -1.3615 -0.2307
 2918TIP3    H230246   5.811   4.111  11.196 -2.9290  0.5105 -1.1065
 2919TIP3   OH230247   2.393   6.779  16.614 -0.3219 -0.9325 -0.0858
 2919TIP3    H130248   2.416   6.785  16.706 -2.4525 -0.1169  0.4267
 2919TIP3    H230249   2.321   6.840  16.602 -0.4793 -1.4327 -2.1829
 2920TIP3   OH230250   3.552   5.520  17.053 -0.2221  0.2354  0.2490
 2920TIP3    H130251   3.642   5.517  17.022 -0.4334  0.7091 -0.4250
 2920TIP3    H230252   3.552   5.586  17.123  0.3590 -1.1927  1.6548
 2921TIP3   OH230253   1.500   1.053  15.800 -0.0406 -0.5854 -0.0878
 2921TIP3    H130254   1.471   1.137  15.834 -0.1976 -1.6482  2.6615
 2921TIP3    H230255   1.595   1.055  15.809  0.1809  0.0697 -2.0998
 2922TIP3   OH230256   3.343   6.005   0.380 -0.3669 -0.6333 -0.9803
 2922TIP3    H130257   3.371   5.935   0.439  1.1083  0.5439 -0.2312
 2922TIP3    H230258   3.251   6.020   0.402  0.1417 -0.2267  1.0204
 2923TIP3   OH230259   3.345   6.696   2.124  0.4507  0.5017 -0.1255
 2923TIP3    H130260   3.347   6.601   2.112 -0.7341  0.5559 -0.8274
 2923TIP3    H230261   3.316   6.731   2.040  0.2866  1.4508  0.3119
 2924TIP3   OH230262   5.760   0.439  14.741 -0.2275 -0.3128 -0.1789
 2924TIP3    H130263   5.841   0.489  14.736 -0.0784 -0.4362  0.8967
 2924TIP3    H230264   5.691   0.505  14.725  0.1014 -0.6309 -3.7625
 2925TIP3   OH230265   6.342   5.416   5.942 -0.2422  0.0343  0.2761
 2925TIP3    H130266   6.428   5.373   5.949  0.8591  2.3380  2.2694
 2925TIP3    H230267   6.355   5.486   5.878 -0.1935  1.2119  1.5227
 2926TIP3   OH230268   6.173   1.975   5.725  0.3070 -1.1744 -0.1764
 2926TIP3    H130269   6.174   1.890   5.682 -2.3688 -1.6675  0.5603
 2926TIP3    H230270   6.137   1.958   5.812  4.1371  0.0401  1.8581
 2927TIP3   OH230271   5.660   5.818   1.427  0.5718 -0.5039  0.9320
 2927TIP3    H130272   5.629   5.870   1.501 -1.4171  1.0830 -0.8849
 2927TIP3    H230273   5.604   5.741   1.425  0.4440 -0.4103  0.9242
 2928TIP3   OH230274   4.553   6.035   0.664  0.5849  0.0274  1.0462
 2928TIP3    H130275   4.489   5.984   0.715  1.6793  0.0861  2.5474
 2928TIP3    H230276   4.504   6.113   0.637  0.0638  0.2160  2.4123
 2929TIP3   OH230277   5.908   2.623  12.686 -0.3839  0.2878  0.4388
 2929TIP3    H130278   5.990   2.670  12.671  0.3532 -1.3003 -0.8069
 2929TIP3    H230279   5.920   2.578  12.770 -1.1750  2.3769  1.7436
 2930TIP3   OH230280   1.024   6.710  15.869  0.1496 -0.5633 -0.1677
 2930TIP3    H130281   1.027   6.682  15.960 -1.1917  1.3589  0.5529
 2930TIP3    H230282   0.998   6.631  15.820  1.9386 -1.8879  0.9178
 2931TIP3   OH230283   0.039   3.292  14.214 -0.1763  0.2749  0.4435
 2931TIP3    H130284  -0.020   3.363  14.241 -1.7566 -1.3651  1.4901
 2931TIP3    H230285   0.080   3.263  14.295 -0.6762 -0.9673  0.2622
 2932TIP3   OH230286   4.902   6.712  14.205  0.0250 -0.0549 -0.0938
 2932TIP3    H130287   4.959   6.778  14.167 -2.2952  1.6316 -0.8914
 2932TIP3    H230288   4.846   6.684  14.133 -2.7661  1.3269  1.3824
 2933TIP3   OH230289   4.067   6.635  11.388  0.4955  0.0083 -0.1804
 2933TIP3    H130290   4.029   6.722  11.393  1.1890  0.3091 -0.1187
 2933TIP3    H230291   4.039   6.592  11.469  1.3204  0.6509  0.4547
 2934TIP3   OH230292   5.904   6.285  12.259  0.2353 -0.4508  0.5207
 2934TIP3    H130293   5.835   6.242  12.310 -0.9292 -0.4465 -0.9561
 2934TIP3    H230294   5.940   6.350  12.318 -1.4763 -0.0313  1.1826
 2935TIP3   OH230295   5.653   4.780  15.357 -0.1765  0.5103 -0.0310
 2935TIP3    H130296   5.746   4.769  15.376 -0.3746  0.6424  1.0399
 2935TIP3    H230297   5.635   4.712  15.291  0.7675  0.7848 -0.6005
 2936TIP3   OH230298   3.169   1.771   4.974  0.0604 -0.0660  0.1714
 2936TIP3    H130299   3.113   1.739   5.045  0.4784 -0.7622  0.1904
 2936TIP3    H230300   3.257   1.774   5.012  0.2735 -0.3736 -0.2974
 2937TIP3   OH230301   3.059   6.577  13.424  0.2784  0.4972  0.6752
 2937TIP3    H130302   3.057   6.673  13.428  0.9264  0.7697 -2.6527
 2937TIP3    H230303   2.968   6.552  13.407  0.4983  0.8190 -1.2150
 2938TIP3   OH230304   5.168   2.031  15.868  0.1309  0.3769 -0.2496
 2938TIP3    H130305   5.208   2.058  15.951  1.7821 -1.4144 -0.4017
 2938TIP3    H230306   5.178   2.107  15.811  1.4023  0.7164  0.3933
 2939TIP3   OH230307   0.117   1.955  14.396 -0.5010 -0.4702 -0.4063
 2939TIP3    H130308   0.057   1.891  14.357 -1.4029 -1.5051  2.3888
 2939TIP3    H230309   0.061   2.030  14.416 -0.3212 -0.4259 -0.0725
 2940TIP3   OH230310   5.981   1.739   2.469  0.4267 -0.1854 -0.0725
 2940TIP3    H130311   5.965   1.734   2.563 -0.4911 -1.2772 -0.2547
 2940TIP3    H230312   5.965   1.830   2.445 -2.3829 -0.4860  0.3506
 2941TIP3   OH230313   6.039   6.690   4.842 -0.2566 -0.3590  0.6384
 2941TIP3    H130314   6.073   6.734   4.764 -0.6054  0.5371  0.9820
 2941TIP3    H230315   6.079   6.738   4.915  0.8648 -1.8162  1.0294
 2942TIP3   OH230316   4.916   3.900   4.879 -0.4030  0.4094  0.2932
 2942TIP3    H130317   4.918   3.949   4.961  2.2404  0.7745  0.0865
 2942TIP3    H230318   4.986   3.939   4.826  0.7691 -2.5252 -0.4913
 2943TIP3   OH230319   0.803   1.626  16.035  0.1083 -0.2204 -0.5607
 2943TIP3    H130320   0.793   1.585  15.949  2.4001 -0.1093 -0.9658
 2943TIP3    H230321   0.828   1.717  16.015 -0.5261  0.1416  0.2487
 2944TIP3   OH230322   3.421   0.753  15.979  0.4959 -0.2522 -0.0928
 2944TIP3    H130323   3.461   0.837  15.958 -0.1004  0.0191 -0.1621
 2944TIP3    H230324   3.489   0.704  16.026  0.7544  0.3700  0.1841
 2945TIP3   OH230325   5.256   3.203  14.745 -0.2299  0.5768 -0.0935
 2945TIP3    H130326   5.173   3.184  14.701 -0.4124  2.7383 -0.7992
 2945TIP3    H230327   5.287   3.283  14.703  1.9345  0.1324  0.5748
 2946TIP3   OH230328   3.805   3.881  13.523  0.1523  0.8205  0.7170
 2946TIP3    H130329   3.786   3.897  13.431 -0.0150  0.3211  0.6605
 2946TIP3    H230330   3.867   3.950  13.547 -0.1468  1.2209  0.3524
 2947TIP3   OH230331   3.660   5.888   0.304 -0.1105  0.2652  0.4483
 2947TIP3    H130332   3.746   5.917   0.275 -0.6928  1.8496  0.2072
 2947TIP3    H230333   3.598   5.933   0.247 -1.1249 -0.4754  0.9196
 2948TIP3   OH230334   4.491   2.359   6.090  0.1492  0.3545 -0.7081
 2948TIP3    H130335   4.469   2.452   6.083 -2.2749  0.0093  1.2506
 2948TIP3    H230336   4.538   2.351   6.173  0.1272 -0.2088 -0.7454
 2949TIP3   OH230337   5.225   5.832   5.345  0.3575  0.3495  0.4813
 2949TIP3    H130338   5.185   5.827   5.258 -0.3065 -0.0457  0.7934
 2949TIP3    H230339   5.316   5.857   5.329  0.1032  0.8179 -0.2867
 2950TIP3   OH230340   1.218   2.236   0.010 -0.2087  0.0969 -0.4629
 2950TIP3    H130341   1.209   2.205  -0.080  1.9423 -0.1609 -0.6248
 2950TIP3    H230342   1.295   2.190   0.045 -1.2160 -0.1335  1.6734
 2951TIP3   OH230343   2.025   4.709   1.767 -0.6983  0.0909  0.0537
 2951TIP3    H130344   2.054   4.707   1.858 -1.3013 -1.1870  0.2380
 2951TIP3    H230345   1.976   4.627   1.755  0.0469 -0.1568 -1.6305
 2952TIP3   OH230346   1.061   2.990  16.708  0.1108 -0.1524  0.1491
 2952TIP3    H130347   1.122   3.042  16.760  2.4699 -1.2512 -1.3092
 2952TIP3    H230348   0.994   3.053  16.679  1.9098  1.7125 -0.1974
 2953TIP3   OH230349   6.053   2.025  16.054 -0.1973 -0.0688  1.0907
 2953TIP3    H130350   6.001   1.949  16.080 -1.1005  0.2742  0.3339
 2953TIP3    H230351   6.110   1.992  15.985 -0.8666  0.0215  0.4853
 2954TIP3   OH230352   4.856   6.643   0.950 -0.2121 -0.5828 -0.6584
 2954TIP3    H130353   4.843   6.643   1.045  0.1922 -0.8784 -0.6002
 2954TIP3    H230354   4.768   6.637   0.914 -0.4301  0.3575 -0.3138
 2955TIP3   OH230355   0.607   1.354  14.172 -0.5101  0.1557  0.0078
 2955TIP3    H130356   0.666   1.424  14.145 -0.7231  0.3855  0.1289
 2955TIP3    H230357   0.520   1.393  14.167 -0.4949  0.5840  2.0752
 2956TIP3   OH230358   3.869   0.069  17.053 -0.3445  0.5152  0.4786
 2956TIP3    H130359   3.883  -0.025  17.055  3.1890  0.8303 -1.1066
 2956TIP3    H230360   3.924   0.103  17.124 -0.6838  1.4200  0.3228
 2957TIP3   OH230361   4.275   1.472  16.360  0.1313 -0.0916 -0.7614
 2957TIP3    H130362   4.246   1.391  16.403  0.8159  0.2706  0.4409
 2957TIP3    H230363   4.354   1.447  16.312  2.4944  0.4783  2.4892
 2958TIP3   OH230364   3.223   0.847   1.386  0.0122  0.3888 -0.3124
 2958TIP3    H130365   3.257   0.901   1.315  0.0482 -1.6040 -1.9136
 2958TIP3    H230366   3.276   0.767   1.384  0.4007  0.4902  2.3840
 2959TIP3   OH230367   0.627   4.732  12.554 -0.2132 -0.3635 -0.4382
 2959TIP3    H130368   0.672   4.658  12.514  0.2347 -0.3648  0.0519
 2959TIP3    H230369   0.669   4.809  12.517  1.0426 -0.3567  0.8974
 2960TIP3   OH230370   5.183   6.148   3.771  0.2298 -0.1002 -0.2609
 2960TIP3    H130371   5.180   6.239   3.801  0.9909 -0.1940  0.1327
 2960TIP3    H230372   5.126   6.146   3.694  0.4344  0.7842 -0.4463
 2961TIP3   OH230373   2.317   0.170  16.869  0.0644 -0.5443 -0.1688
 2961TIP3    H130374   2.238   0.144  16.916  0.2644  0.6321  0.8848
 2961TIP3    H230375   2.389   0.128  16.916  0.1595 -0.5657 -0.3314
 2962TIP3   OH230376   4.167   4.970  13.328 -0.3720 -0.5922  0.4317
 2962TIP3    H130377   4.082   4.974  13.284  0.3768 -0.2127 -1.0725
 2962TIP3    H230378   4.209   5.053  13.307  0.2675 -0.6641  1.3700
 2963TIP3   OH230379   2.411   2.256  11.479  0.1206 -0.6699  0.4421
 2963TIP3    H130380   2.413   2.351  11.475 -0.6945 -0.6603  0.2513
 2963TIP3    H230381   2.386   2.236  11.569 -2.8786 -0.6432 -0.2917
 2964TIP3   OH230382   5.850   6.229   4.998 -0.1098 -0.0647  0.1800
 2964TIP3    H130383   5.756   6.236   5.018  0.1857  1.3076  1.2882
 2964TIP3    H230384   5.893   6.246   5.082  1.1338  0.2881 -0.5111
 2965TIP3   OH230385   2.880   4.019   5.982 -0.1136  0.2447 -0.3746
 2965TIP3    H130386   2.825   4.097   5.985 -0.5346 -0.0550 -0.1873
 2965TIP3    H230387   2.912   4.008   6.072  0.9778  0.9159 -0.6530
 2966TIP3   OH230388   4.927   0.209  15.731 -0.4967  0.0458 -0.5424
 2966TIP3    H130389   4.945   0.133  15.786 -1.1284 -0.7721 -1.4334
 2966TIP3    H230390   4.976   0.193  15.651  0.9281  1.5358 -0.0104
 2967TIP3   OH230391   4.929   3.421  16.592 -0.5097 -0.5335 -0.8991
 2967TIP3    H130392   4.872   3.427  16.515  0.1269 -0.9130 -1.4095
 2967TIP3    H230393   4.932   3.327  16.612 -0.5720 -0.4471 -0.4927
 2968TIP3   OH230394   6.585   5.927  12.651 -0.2820 -0.1633 -0.3752
 2968TIP3    H130395   6.593   5.910  12.745  2.1730 -1.4537 -0.7267
 2968TIP3    H230396   6.614   5.845  12.609  1.6851  1.3370 -2.2120
 2969TIP3   OH230397   4.112   1.907   1.259  0.0997  0.3864  0.0375
 2969TIP3    H130398   4.060   1.965   1.204 -0.6080  1.3908  1.6692
 2969TIP3    H230399   4.061   1.825   1.263  0.0935  0.3551 -0.6698
 2970TIP3   OH230400   6.399   1.064  11.385 -0.5202 -0.1291 -0.2356
 2970TIP3    H130401   6.428   1.139  11.437  1.3691 -2.6604  2.7938
 2970TIP3    H230402   6.385   1.099  11.298  0.1419  3.7210  1.0015
 2971TIP3   OH230403   4.093   5.655  13.933  0.0603  0.3329  0.4149
 2971TIP3    H130404   4.124   5.624  14.019 -0.4285 -0.2660  0.3833
 2971TIP3    H230405   4.171   5.655  13.878  0.8516  2.7766  1.3926
 2972TIP3   OH230406   6.541   2.587  15.614  0.3677  0.3697  0.6692
 2972TIP3    H130407   6.540   2.630  15.528 -0.3755 -0.5027  0.2282
 2972TIP3    H230408   6.634   2.572  15.632  0.5641  1.0403  0.2703
 2973TIP3   OH230409   2.862   2.291  14.199 -0.3174  0.0952 -0.0586
 2973TIP3    H130410   2.840   2.202  14.170 -0.4368 -1.0487  3.0790
 2973TIP3    H230411   2.947   2.281  14.244 -1.0227  1.2101  1.6232
 2974TIP3   OH230412   0.963   3.406   5.302  0.1132  0.3379  0.6467
 2974TIP3    H130413   0.895   3.451   5.352 -0.5403 -0.2760  0.3290
 2974TIP3    H230414   0.993   3.471   5.239  1.2816  1.2838  2.1065
 2975TIP3   OH230415   3.730   3.123   2.735  0.0269  0.1660 -0.0965
 2975TIP3    H130416   3.675   3.101   2.659 -0.3451  0.4133  0.0984
 2975TIP3    H230417   3.675   3.181   2.788  0.9379  1.4918 -0.5398
 2976TIP3   OH230418   3.340   0.073  12.803 -0.0078 -0.7650 -0.1614
 2976TIP3    H130419   3.371  -0.018  12.809  2.0907 -0.1555 -0.7718
 2976TIP3    H230420   3.396   0.121  12.864 -2.2106 -0.0861  1.4242
 2977TIP3   OH230421   5.982   4.065  12.622 -0.4304 -0.5103 -0.3238
 2977TIP3    H130422   5.894   4.091  12.593 -0.3781 -0.7464 -0.6973
 2977TIP3    H230423   6.035   4.066  12.542  0.4253  1.6623  0.1959
 2978TIP3   OH230424   5.886   3.153  12.957  0.8221  0.3846  0.2173
 2978TIP3    H130425   5.877   3.156  13.052 -1.1128 -0.5501  0.1301
 2978TIP3    H230426   5.799   3.175  12.924  1.4210  0.5585 -1.3418
 2979TIP3   OH230427   0.877   3.707   3.354  0.1147  0.3412 -0.7476
 2979TIP3    H130428   0.785   3.730   3.366  0.4171  1.9200 -1.1251
 2979TIP3    H230429   0.881   3.663   3.269 -0.4029 -0.4739 -0.3522
 2980TIP3   OH230430   2.800   0.320   1.610 -0.5868 -0.1110  0.7564
 2980TIP3    H130431   2.771   0.324   1.701 -0.1932  0.3938  0.8666
 2980TIP3    H230432   2.880   0.268   1.612 -0.1965  0.4742  0.8113
 2981TIP3   OH230433   3.450   3.129   0.588 -0.2439  0.9051 -0.4026
 2981TIP3    H130434   3.486   3.101   0.672 -0.8021 -2.4083 -1.1060
 2981TIP3    H230435   3.406   3.212   0.607 -0.8205  0.0249  2.7129
 2982TIP3   OH230436   0.791   1.472   5.952  0.0068 -0.5667  0.2917
 2982TIP3    H130437   0.877   1.501   5.919 -0.0359 -0.4245  0.3060
 2982TIP3    H230438   0.804   1.379   5.972  0.9425  0.0308  2.8550
 2983TIP3   OH230439   4.370   4.596  12.743  0.0584 -0.6942  0.0357
 2983TIP3    H130440   4.375   4.623  12.652  1.4248  0.0333  0.3047
 2983TIP3    H230441   4.369   4.677  12.793  1.0031 -1.0834  0.7252
 2984TIP3   OH230442   4.767   2.878  11.477 -0.1305  0.6732  0.8338
 2984TIP3    H130443   4.790   2.938  11.406 -1.2069  1.4946  1.1605
 2984TIP3    H230444   4.746   2.796  11.433  1.5129  0.4459  0.3923
 2985TIP3   OH230445   4.291   1.443  15.726 -0.3711 -0.5339 -0.4333
 2985TIP3    H130446   4.243   1.511  15.680  1.1209 -0.2985 -1.6818
 2985TIP3    H230447   4.326   1.386  15.657  1.9097 -0.1806  0.3414
 2986TIP3   OH230448   4.318   3.259  14.336  0.1753  0.3232  0.0908
 2986TIP3    H130449   4.345   3.335  14.387  1.9900 -0.5097  0.4736
 2986TIP3    H230450   4.223   3.258  14.342  0.1885  1.8731  1.0513
 2987TIP3   OH230451   0.822   4.656  14.572 -0.1170  0.1831 -0.8127
 2987TIP3    H130452   0.883   4.706  14.519 -0.8277  2.2117  0.1741
 2987TIP3    H230453   0.749   4.716  14.587 -1.9553 -1.8353 -1.1927
 2988TIP3   OH230454   2.186   6.373  14.020 -0.0299  0.1855 -0.0913
 2988TIP3    H130455   2.235   6.450  13.992 -0.0888  0.9903  1.7973
 2988TIP3    H230456   2.214   6.360  14.111 -2.1098 -0.2837  0.5357
 2989TIP3   OH230457   6.087   6.358   2.495 -0.0804  0.7022  0.1048
 2989TIP3    H130458   6.068   6.332   2.405 -0.2882  1.4830 -0.0849
 2989TIP3    H230459   6.126   6.280   2.535 -0.5908  0.1432 -0.4662
 2990TIP3   OH230460   2.423   1.423   1.351  0.2803 -0.3890 -0.2770
 2990TIP3    H130461   2.450   1.460   1.267  0.9937  1.3520  0.6675
 2990TIP3    H230462   2.489   1.356   1.369 -0.6755 -1.7810 -1.7292
 2991TIP3   OH230463   1.830   5.176   3.062 -0.1734  0.5652 -0.3848
 2991TIP3    H130464   1.856   5.267   3.075  0.9224  0.2741 -0.4229
 2991TIP3    H230465   1.835   5.163   2.967 -1.6647  0.8339 -0.5166
 2992TIP3   OH230466   3.090   6.113   0.747 -0.1955  0.0982 -0.4263
 2992TIP3    H130467   3.115   6.193   0.700  1.2503 -0.4216 -0.5988
 2992TIP3    H230468   3.091   6.045   0.679 -1.2611 -0.1143 -0.2494
 2993TIP3   OH230469   3.527   1.871  13.841  0.0343 -0.1782 -0.0277
 2993TIP3    H130470   3.458   1.926  13.803  0.2897  0.0664 -0.1408
 2993TIP3    H230471   3.605   1.926  13.839  0.0867 -0.2197  0.7007
 2994TIP3   OH230472   1.763   0.584   4.712 -0.2346  0.0085 -0.1853
 2994TIP3    H130473   1.745   0.495   4.681 -1.8314 -0.2995  1.4889
 2994TIP3    H230474   1.814   0.571   4.792 -1.3968  0.5390  0.6565
 2995TIP3   OH230475   1.433   5.794   6.270 -0.2503  1.0953 -0.3161
 2995TIP3    H130476   1.469   5.711   6.298 -2.2404  0.9086  2.0260
 2995TIP3    H230477   1.344   5.774   6.241 -0.7373  2.3591  0.2007
 2996TIP3   OH230478   4.758   0.526  13.556 -0.6834  0.2381  0.0360
 2996TIP3    H130479   4.846   0.538  13.590 -0.3545  1.6121 -1.2017
 2996TIP3    H230480   4.700   0.557  13.626 -0.3064 -2.0425  1.4522
 2997TIP3   OH230481   0.861   2.963  14.687  0.2276  0.3096 -0.0026
 2997TIP3    H130482   0.784   2.986  14.738  0.7542  0.9693  0.5145
 2997TIP3    H230483   0.829   2.952  14.597 -0.4450  0.6477  0.1981
 2998TIP3   OH230484   6.806   1.595   1.372  0.1058 -0.4092  0.2222
 2998TIP3    H130485   6.781   1.664   1.434  1.7830  0.0418  0.4475
 2998TIP3    H230486   6.864   1.538   1.423  3.6696  1.3765 -1.4446
 2999TIP3   OH230487   0.690   3.487  11.545 -0.2188 -0.3402 -0.0471
 2999TIP3    H130488   0.765   3.428  11.552 -0.8052 -1.1512 -0.3993
 2999TIP3    H230489   0.624   3.449  11.602 -0.0377  0.9253  1.0514
 3000TIP3   OH230490   3.382   4.123  13.740 -0.1287  0.3957  0.1780
 3000TIP3    H130491   3.359   4.131  13.648  0.6030 -0.5479 -0.1042
 3000TIP3    H230492   3.477   4.115  13.741 -0.2626 -2.0841  0.7730
 3001TIP3   OH230493   3.648   2.167   0.767 -0.4014 -0.4684  0.0591
 3001TIP3    H130494   3.642   2.242   0.708  1.8593  0.6376  1.1047
 3001TIP3    H230495   3.733   2.127   0.746 -1.0734 -2.0965  0.2913
 3002TIP3   OH230496   4.113   4.535  11.142 -0.1601  0.4503 -0.5149
 3002TIP3    H130497   4.178   4.526  11.071  1.7246  0.1550  1.1678
 3002TIP3    H230498   4.061   4.455  11.137 -0.5005  0.7331 -1.9611
 3003TIP3   OH230499   3.635   5.081   3.545  0.0100  0.3374  0.2899
 3003TIP3    H130500   3.562   5.020   3.555 -0.0611 -0.0288 -1.9393
 3003TIP3    H230501   3.708   5.040   3.590 -0.3322 -0.8476 -0.2078
 3004TIP3   OH230502   6.794   4.528  15.519 -0.1510  0.1938 -0.3112
 3004TIP3    H130503   6.819   4.443  15.483  0.6295  0.5822 -0.7014
 3004TIP3    H230504   6.789   4.512  15.614  2.9070  0.3583 -0.0077
 3005TIP3   OH230505   4.153   6.008   5.896  0.3946 -0.0815 -0.0977
 3005TIP3    H130506   4.123   5.928   5.853  3.3112 -1.3049 -0.1388
 3005TIP3    H230507   4.242   5.987   5.926  1.1858  3.0745  0.1430
 3006TIP3   OH230508   5.605   2.452  16.970  0.7608  0.2410  0.3420
 3006TIP3    H130509   5.569   2.531  16.929  2.1046  0.2997 -0.8059
 3006TIP3    H230510   5.533   2.418  17.024 -1.1235  0.2213 -1.9917
 3007TIP3   OH230511   0.216   3.089   1.351 -0.2181 -0.3054 -0.0354
 3007TIP3    H130512   0.219   3.159   1.416 -0.9584 -1.1592  0.9368
 3007TIP3    H230513   0.185   3.012   1.398 -1.0091 -0.9001 -1.4412
 3008TIP3   OH230514   5.953   1.064   6.234  0.1926 -0.8656 -0.3194
 3008TIP3    H130515   5.922   1.153   6.215 -1.1761 -1.4335 -0.9147
 3008TIP3    H230516   6.048   1.072   6.236  0.0698  0.8399  0.8260
 3009TIP3   OH230517   0.637   2.365  15.246  0.2915 -0.1038 -0.0706
 3009TIP3    H130518   0.676   2.432  15.189  0.2482 -0.2379 -0.2555
 3009TIP3    H230519   0.690   2.370  15.326 -0.1500  0.6345  0.1863
 3010TIP3   OH230520   4.622   1.278   1.210  0.2837 -0.6524 -0.7332
 3010TIP3    H130521   4.614   1.193   1.167 -0.8457 -1.2062  0.5179
 3010TIP3    H230522   4.674   1.261   1.288  0.4903 -0.0841 -0.7427
 3011TIP3   OH230523   4.160   3.420  13.679  0.2067  0.3006 -0.4182
 3011TIP3    H130524   4.149   3.479  13.754  0.0891 -0.6416  0.3242
 3011TIP3    H230525   4.182   3.478  13.606 -2.1574  1.5191 -0.2618
 3012TIP3   OH230526   5.937   0.706  15.646  0.5584  0.3098  0.2231
 3012TIP3    H130527   5.872   0.691  15.578  0.8499 -1.9021  0.3788
 3012TIP3    H230528   5.954   0.620  15.684  2.5493  1.0276  1.1263
 3013TIP3   OH230529   4.172   3.851  15.149  0.1536  0.1315  0.3055
 3013TIP3    H130530   4.227   3.897  15.212  0.9090 -1.7655  1.0948
 3013TIP3    H230531   4.111   3.801  15.202 -0.6171  0.1722 -0.5258
 3014TIP3   OH230532   1.036   5.732   2.715 -0.0093  0.8156  0.2230
 3014TIP3    H130533   1.000   5.810   2.757 -0.2671  0.7403  0.1455
 3014TIP3    H230534   1.039   5.755   2.622 -2.1657 -0.0282 -0.1248
 3015TIP3   OH230535   4.373   0.096   6.394  0.8053  0.3813 -0.0621
 3015TIP3    H130536   4.416   0.176   6.422 -0.3148  0.7915  0.5663
 3015TIP3    H230537   4.390   0.090   6.300  1.4208  1.0203  0.0079
 3016TIP3   OH230538   2.781   2.693  15.509 -0.4706  0.0531 -0.3066
 3016TIP3    H130539   2.846   2.742  15.560 -0.4586  0.4207 -0.6721
 3016TIP3    H230540   2.777   2.739  15.426 -0.2429 -0.7437 -0.7659
 3017TIP3   OH230541   0.096   1.815  11.482 -0.1785 -0.0446  0.4207
 3017TIP3    H130542   0.140   1.893  11.515 -0.5193 -0.0463  0.8904
 3017TIP3    H230543   0.137   1.798  11.396 -0.4707  0.9455  0.0807
 3018TIP3   OH230544   6.073   1.371  16.862  0.7063 -0.7326 -0.1704
 3018TIP3    H130545   6.024   1.407  16.936  1.8422 -0.0060  0.2667
 3018TIP3    H230546   6.028   1.404  16.785  0.4972 -0.0908  0.2197
 3019TIP3   OH230547   4.690   2.030  16.479 -0.1194 -0.7088 -0.1451
 3019TIP3    H130548   4.662   2.076  16.558  0.6403 -0.6679  0.1072
 3019TIP3    H230549   4.769   2.076  16.451 -1.0087  0.0095 -1.5945
 3020TIP3   OH230550   5.790   6.294  13.578 -0.5052  0.3821  0.0251
 3020TIP3    H130551   5.820   6.237  13.649  0.1660  1.6092  0.7705
 3020TIP3    H230552   5.797   6.240  13.500 -0.1966 -0.6602  0.7477
 3021TIP3   OH230553   6.670   1.028  14.261 -0.3275 -0.6717 -0.2550
 3021TIP3    H130554   6.575   1.014  14.267 -0.0521 -2.3914  1.0563
 3021TIP3    H230555   6.683   1.118  14.292 -1.5024 -0.5523 -0.0579
 3022TIP3   OH230556   4.894   2.176  16.369  0.1337 -0.5121  0.4528
 3022TIP3    H130557   4.930   2.117  16.303 -0.6768  0.1738 -0.6387
 3022TIP3    H230558   4.970   2.204  16.420  0.6939 -1.5095  0.2067
 3023TIP3   OH230559   4.507   3.533  12.589 -0.0782  0.0936 -0.3683
 3023TIP3    H130560   4.454   3.454  12.576  0.8462 -0.8186  1.1089
 3023TIP3    H230561   4.542   3.554  12.502 -0.1295 -1.2806 -0.7384
 3024TIP3   OH230562   0.662   0.789   6.461 -0.8508  0.2858 -0.3299
 3024TIP3    H130563   0.727   0.854   6.487  0.1719 -0.5662 -0.6599
 3024TIP3    H230564   0.583   0.812   6.510  0.6815 -0.6929  2.8884
 3025TIP3   OH230565   2.811   6.296   4.123  0.2750 -0.2999 -0.1230
 3025TIP3    H130566   2.715   6.297   4.117  0.2412  0.5067  0.4342
 3025TIP3    H230567   2.836   6.389   4.119  1.1026 -0.5433 -1.1690
 3026TIP3   OH230568   6.546   2.540   5.245  0.1889  0.0931  0.1015
 3026TIP3    H130569   6.608   2.472   5.272  1.1604  0.6864 -0.5542
 3026TIP3    H230570   6.542   2.532   5.150 -0.4787  0.2942  0.1115
 3027TIP3   OH230571   5.926   4.486   5.865  0.1528  0.4881 -0.4470
 3027TIP3    H130572   5.991   4.553   5.885 -2.1307  2.1064  2.4505
 3027TIP3    H230573   5.947   4.414   5.926  0.5549  0.0326 -1.1160
 3028TIP3   OH230574   4.916   5.817   6.418 -0.7192 -0.1012  0.0207
 3028TIP3    H130575   4.912   5.728   6.451  0.4070 -0.4205 -0.6344
 3028TIP3    H230576   4.840   5.826   6.360 -0.8726 -0.6146  0.1447
 3029TIP3   OH230577   0.699   5.451  14.554 -0.0374  0.0097 -0.0856
 3029TIP3    H130578   0.714   5.511  14.627 -1.6711  0.8411 -0.3798
 3029TIP3    H230579   0.780   5.455  14.503  0.1616  1.4421  0.2860
 3030TIP3   OH230580   4.410   6.157  14.909 -0.2964 -0.4286  0.0291
 3030TIP3    H130581   4.373   6.244  14.895 -1.5422 -1.0011 -0.3294
 3030TIP3    H230582   4.505   6.170  14.901 -0.4357  0.9629  0.4053
 3031TIP3   OH230583   5.870   1.406  14.203 -0.1756  0.3723  0.7415
 3031TIP3    H130584   5.857   1.342  14.273 -0.3415  0.7292  1.0348
 3031TIP3    H230585   5.808   1.476  14.222  0.3383  0.8466  0.6834
 3032TIP3   OH230586   5.587   2.209  10.719  0.4409  0.3983  0.1868
 3032TIP3    H130587   5.627   2.242  10.638 -0.0147 -0.0568 -0.2296
 3032TIP3    H230588   5.565   2.288  10.768 -0.7024  0.7394 -0.8292
 3033TIP3   OH230589   4.427   1.300   3.049 -0.0369 -0.1469  0.2276
 3033TIP3    H130590   4.461   1.345   2.971 -1.4342 -0.6397 -0.7059
 3033TIP3    H230591   4.341   1.268   3.022 -0.8953  0.3285  2.2145
 3034TIP3   OH230592   3.832   4.490   5.325 -0.0526 -0.2038  0.0656
 3034TIP3    H130593   3.832   4.445   5.410 -0.1925  0.7699  0.6060
 3034TIP3    H230594   3.909   4.548   5.329  0.2769 -0.5795 -0.7181
 3035TIP3   OH230595   5.630   5.598   4.417  0.2432 -0.5284 -0.6613
 3035TIP3    H130596   5.635   5.625   4.509 -0.4168  0.4305 -0.8930
 3035TIP3    H230597   5.676   5.666   4.369  2.3576 -2.0307 -0.8993
 3036TIP3   OH230598   2.004   3.197  16.669 -0.3099  0.4898  0.1813
 3036TIP3    H130599   2.049   3.116  16.647 -0.2957  0.2191  1.1631
 3036TIP3    H230600   1.998   3.196  16.765 -0.6362  1.4674  0.1837
 3037TIP3   OH230601   5.184   5.411  11.855 -0.3460  0.2626 -0.3790
 3037TIP3    H130602   5.177   5.501  11.888  2.1316 -0.3066  2.0501
 3037TIP3    H230603   5.157   5.356  11.928 -1.0635 -1.0215 -1.5619
 3038TIP3   OH230604   0.389   3.719   3.492  0.0398 -0.5924 -0.1691
 3038TIP3    H130605   0.348   3.803   3.514 -1.1425 -1.2068  0.0379
 3038TIP3    H230606   0.329   3.679   3.429  0.5509 -1.3237 -0.2017
 3039TIP3   OH230607   4.785   2.672   4.345  0.6131 -0.0002 -0.1418
 3039TIP3    H130608   4.729   2.602   4.312  0.5997 -0.5009  0.9161
 3039TIP3    H230609   4.744   2.701   4.427  1.2817  0.3985  0.0684
 3040TIP3   OH230610   4.216   6.553  13.972 -0.4160  0.1358  0.4452
 3040TIP3    H130611   4.246   6.508  13.893  1.4600  1.6193  0.2502
 3040TIP3    H230612   4.292   6.602  14.002 -1.2341  0.0464  2.8983
 3041TIP3   OH230613   3.210   4.218   2.158  0.3859 -0.2353  0.1557
 3041TIP3    H130614   3.278   4.150   2.164  0.2515 -0.6648 -2.2397
 3041TIP3    H230615   3.246   4.282   2.096  0.0870  1.4426  1.6306
 3042TIP3   OH230616   0.772   1.719   4.681 -0.0007 -0.0296 -0.3653
 3042TIP3    H130617   0.850   1.671   4.653 -1.2743 -1.2784 -1.9319
 3042TIP3    H230618   0.756   1.781   4.610 -1.3649 -0.9363 -0.8775
 3043TIP3   OH230619   0.247   3.216   4.302  0.0173 -0.2959  0.7272
 3043TIP3    H130620   0.188   3.277   4.257  0.6514 -0.3073 -0.1469
 3043TIP3    H230621   0.196   3.135   4.309 -0.0227 -0.3680 -0.1907
 3044TIP3   OH230622   2.433   2.554  12.299  0.3774  0.6139 -0.2308
 3044TIP3    H130623   2.501   2.486  12.306 -0.8425 -0.9274 -2.2284
 3044TIP3    H230624   2.353   2.505  12.277 -0.7261  2.6490 -0.9732
 3045TIP3   OH230625   0.323   3.205  14.979 -0.3852  0.3759  0.0380
 3045TIP3    H130626   0.332   3.298  15.003 -1.3477  0.5957 -0.3857
 3045TIP3    H230627   0.292   3.162  15.058 -0.7708  0.5723 -0.0064
 3046TIP3   OH230628   2.894   6.264  15.764 -0.2050  0.3120 -0.5690
 3046TIP3    H130629   2.906   6.173  15.738  0.2068  0.6259 -1.5349
 3046TIP3    H230630   2.802   6.283  15.748  0.0556  0.5208 -1.9350
 3047TIP3   OH230631   3.949   4.441   3.150  0.2136  0.5449  0.7798
 3047TIP3    H130632   3.985   4.353   3.141 -1.2162 -0.1073  1.1677
 3047TIP3    H230633   3.970   4.484   3.067  1.7873  0.1960  0.9628
 3048TIP3   OH230634   2.015   3.614  11.022  0.5020  0.0966 -0.3062
 3048TIP3    H130635   2.104   3.643  11.006  0.0561  1.5812 -0.3239
 3048TIP3    H230636   2.005   3.618  11.117 -0.0067  1.5253 -0.3920
 3049TIP3   OH230637   3.277   4.971  14.717  0.1128 -0.3307 -0.1695
 3049TIP3    H130638   3.289   4.970  14.622  0.5809 -1.3195 -0.1104
 3049TIP3    H230639   3.293   5.062  14.742 -0.0513 -0.0553 -1.0407
 3050TIP3   OH230640   4.487   4.255  13.617 -0.2587  0.1897  0.5225
 3050TIP3    H130641   4.571   4.265  13.572  0.5053  0.4367  1.9619
 3050TIP3    H230642   4.424   4.238  13.547  1.1083 -0.7318 -0.5132
 3051TIP3   OH230643   4.629   3.910   5.570 -0.2670 -0.1016 -0.1785
 3051TIP3    H130644   4.723   3.890   5.565 -0.3254 -2.2881  3.6430
 3051TIP3    H230645   4.625   4.005   5.578  2.0482 -0.1035  2.8967
 3052TIP3   OH230646   3.931   2.722  13.142  0.3436 -0.5540  0.5991
 3052TIP3    H130647   3.945   2.780  13.217 -0.1545 -0.5777  0.7131
 3052TIP3    H230648   3.836   2.719  13.131  0.4193 -0.4755 -0.0959
 3053TIP3   OH230649   0.221   3.231  17.161 -1.0992 -0.5690  0.0195
 3053TIP3    H130650   0.159   3.294  17.124 -1.2305 -0.9966 -0.4878
 3053TIP3    H230651   0.191   3.146  17.130 -1.2400 -0.9479  1.1457
 3054TIP3   OH230652   4.636   3.937   2.348 -0.4002 -0.0238  0.4381
 3054TIP3    H130653   4.701   3.889   2.400 -0.3840 -2.1513 -1.4012
 3054TIP3    H230654   4.666   3.929   2.258 -3.0266 -0.8036 -0.4506
 3055TIP3   OH230655   0.480   0.149  15.346  0.1880 -0.0365 -0.5770
 3055TIP3    H130656   0.458   0.182  15.434 -0.3198 -0.1034 -0.6811
 3055TIP3    H230657   0.487   0.228  15.292  1.4843  0.0873 -0.2655
 3056TIP3   OH230658   3.123   5.861   5.243  0.1936 -0.6957 -0.3094
 3056TIP3    H130659   3.075   5.939   5.215  0.9412  0.0341  0.3822
 3056TIP3    H230660   3.166   5.830   5.163  1.0543  0.4634 -0.3247
 3057TIP3   OH230661   6.490   2.442  14.048  0.3290 -0.6302 -0.1035
 3057TIP3    H130662   6.460   2.485  14.128 -0.1433 -1.1149 -0.0165
 3057TIP3    H230663   6.500   2.350  14.072  1.9813 -0.4909 -0.1019
 3058TIP3   OH230664   2.691   0.017  14.791 -0.0458 -0.4947  0.4033
 3058TIP3    H130665   2.671  -0.034  14.870 -1.4200 -1.9263 -0.8030
 3058TIP3    H230666   2.645   0.100  14.803 -0.2512 -0.7046  1.0815
 3059TIP3   OH230667   0.435   5.947  16.850  0.0621 -0.4737 -0.1404
 3059TIP3    H130668   0.458   5.900  16.770 -0.6154 -1.4609  0.2287
 3059TIP3    H230669   0.346   5.978  16.834  0.5110  0.7415 -0.3929
 3060TIP3   OH230670   3.338   1.565   4.015 -0.3847  0.3740 -0.4824
 3060TIP3    H130671   3.385   1.637   3.973  2.1200  0.9699  2.9020
 3060TIP3    H230672   3.299   1.604   4.093 -0.1422 -1.6402  0.7232
 3061TIP3   OH230673   3.288   3.919  16.646 -0.4149 -0.9778 -0.0930
 3061TIP3    H130674   3.368   3.921  16.697  0.3137 -1.4076 -1.1677
 3061TIP3    H230675   3.250   3.833  16.663  0.3600 -1.5310 -1.0119
 3062TIP3   OH230676   1.551   6.469  16.423  0.2451  0.4218 -0.4745
 3062TIP3    H130677   1.633   6.430  16.452 -1.1488 -1.7856  0.7795
 3062TIP3    H230678   1.485   6.434  16.483 -1.7536  1.3719 -2.0058
 3063TIP3   OH230679   5.237   2.854  16.697 -0.5161 -0.0170 -0.0525
 3063TIP3    H130680   5.201   2.939  16.722 -1.7435 -0.6426  0.3843
 3063TIP3    H230681   5.236   2.803  16.778  2.9333  0.4205  0.4042
 3064TIP3   OH230682   0.107   2.989  16.444  0.1380  0.1824 -0.3880
 3064TIP3    H130683   0.113   2.900  16.479 -0.4993  0.0639 -0.5646
 3064TIP3    H230684   0.036   3.029  16.494 -0.6225  0.0871 -1.3761
 3065TIP3   OH230685   2.805   4.483  12.383  0.0615  0.2210 -0.7461
 3065TIP3    H130686   2.812   4.563  12.436 -0.1521 -0.2580  0.0284
 3065TIP3    H230687   2.820   4.412  12.446  2.1570 -0.3040 -1.7687
 3066TIP3   OH230688   4.289   2.964  15.235  0.2895  0.4252  0.0244
 3066TIP3    H130689   4.327   3.041  15.192 -2.0765  1.6685 -0.0246
 3066TIP3    H230690   4.198   2.964  15.207 -0.5595 -0.5757  2.5150
 3067TIP3   OH230691   0.539   1.125   1.376 -0.0094  0.3876 -0.1135
 3067TIP3    H130692   0.617   1.144   1.429  0.0521  1.1446 -0.4534
 3067TIP3    H230693   0.492   1.058   1.425  0.9275 -0.1931  0.0320
 3068TIP3   OH230694   4.962   1.243   1.007 -0.1088  0.6424  0.1231
 3068TIP3    H130695   5.037   1.239   0.948 -0.6499  0.0134 -0.5382
 3068TIP3    H230696   4.886   1.222   0.952 -0.5379 -0.7134  1.1610
 3069TIP3   OH230697   1.698   5.571  15.352 -0.0617 -0.0164  0.1360
 3069TIP3    H130698   1.717   5.615  15.269  0.3861 -0.7978 -0.1890
 3069TIP3    H230699   1.705   5.640  15.418 -0.5118  0.6354 -0.4775
 3070TIP3   OH230700   5.342   2.684   6.871  0.2613 -0.0241  0.2930
 3070TIP3    H130701   5.398   2.655   6.799 -0.6190  0.3629 -0.5710
 3070TIP3    H230702   5.326   2.605   6.923  2.5893  0.0748  1.3004
 3071TIP3   OH230703   6.803   4.324  11.049 -0.0297 -0.0550  0.0967
 3071TIP3    H130704   6.815   4.305  10.956 -1.6647  0.2840 -0.2229
 3071TIP3    H230705   6.726   4.272  11.074 -0.4847  0.9555  0.8729
 3072TIP3   OH230706   2.108   6.411  12.019 -0.0256 -0.0214  0.1043
 3072TIP3    H130707   2.188   6.393  12.068 -1.1197 -0.7900  1.6983
 3072TIP3    H230708   2.122   6.498  11.981  2.1074 -0.7267 -0.8676
 3073TIP3   OH230709   5.131   4.186   1.412 -0.2942  0.1694 -0.1743
 3073TIP3    H130710   5.175   4.220   1.334 -1.6384  2.4459 -0.0345
 3073TIP3    H230711   5.075   4.117   1.380  1.2733 -0.8899 -0.7543
 3074TIP3   OH230712   2.617   4.797  14.680 -0.1931 -0.1542  0.8549
 3074TIP3    H130713   2.613   4.701  14.687 -1.7925 -0.0565  1.9172
 3074TIP3    H230714   2.700   4.820  14.722 -0.7178 -0.9819  2.4627
 3075TIP3   OH230715   1.822   4.615  12.646  0.5508  0.4084 -0.0642
 3075TIP3    H130716   1.836   4.687  12.584  1.6677  1.4393  1.3135
 3075TIP3    H230717   1.763   4.651  12.712 -0.2459 -0.5184 -0.2514
 3076TIP3   OH230718   6.324   1.066   1.187  0.6419  0.5791  0.7607
 3076TIP3    H130719   6.336   1.107   1.273  3.2292 -0.5364  1.0345
 3076TIP3    H230720   6.392   1.104   1.132 -0.6881  0.9348 -0.7237
 3077TIP3   OH230721   4.254   1.626  12.956 -0.0488  0.2545  0.2804
 3077TIP3    H130722   4.255   1.711  12.911  1.6850  0.5662  0.8511
 3077TIP3    H230723   4.279   1.646  13.046  1.4877 -0.9604  0.1734
 3078TIP3   OH230724   6.716   3.136   3.029  0.2805  0.3864 -0.1855
 3078TIP3    H130725   6.676   3.134   2.942  0.4397 -1.4084 -0.2520
 3078TIP3    H230726   6.643   3.131   3.090  0.1677  1.6638 -0.1767
 3079TIP3   OH230727   2.035   5.603  13.572 -0.0713  0.4854  0.2435
 3079TIP3    H130728   1.979   5.606  13.494 -0.2903  0.5009  0.4013
 3079TIP3    H230729   1.999   5.533  13.625 -1.7790  2.3549  1.7185
 3080TIP3   OH230730   5.636   4.124  16.066  0.1963  0.1665  0.2670
 3080TIP3    H130731   5.574   4.194  16.047 -1.1413 -0.9326  0.4527
 3080TIP3    H230732   5.667   4.096  15.980 -0.3126  0.0608  0.1190
 3081TIP3   OH230733   2.035   0.328   4.941 -0.4486 -0.0855  0.1959
 3081TIP3    H130734   2.039   0.328   4.845  2.9251 -2.0135  0.2046
 3081TIP3    H230735   1.971   0.260   4.962 -0.2046 -0.6110 -0.7103
 3082TIP3   OH230736   0.231   0.543   5.758 -0.3680 -0.2826 -0.1350
 3082TIP3    H130737   0.154   0.551   5.701 -0.0397  0.1135 -0.5326
 3082TIP3    H230738   0.197   0.558   5.846 -0.8928 -0.9360 -0.2118
 3083TIP3   OH230739   6.247   1.151  14.808  0.0888  0.3882  0.6780
 3083TIP3    H130740   6.230   1.090  14.880  0.5054  0.0358  0.4840
 3083TIP3    H230741   6.163   1.159  14.763  0.1014 -0.2867  0.5245
 3084TIP3   OH230742   0.364   4.830  12.986 -0.3428 -0.2215 -0.4202
 3084TIP3    H130743   0.355   4.880  12.904  2.6619  1.0165 -0.1151
 3084TIP3    H230744   0.416   4.754  12.962 -0.8219 -0.7098  0.0615
 3085TIP3   OH230745   3.909   0.179  12.905 -0.0965 -0.5432  0.2923
 3085TIP3    H130746   3.883   0.226  12.826 -0.6208  1.2036  1.4301
 3085TIP3    H230747   3.831   0.130  12.931  0.1942 -1.4245 -0.4472
 3086TIP3   OH230748   4.317   2.537  16.095  0.1831  0.0662  0.1883
 3086TIP3    H130749   4.260   2.488  16.155 -0.3944  0.0218 -0.3962
 3086TIP3    H230750   4.290   2.509  16.008  1.2178 -0.0862 -0.0960
 3087TIP3   OH230751   0.706   2.177  15.041  0.2764  0.4022 -0.6286
 3087TIP3    H130752   0.798   2.166  15.064 -0.0114 -0.9803 -0.0124
 3087TIP3    H230753   0.666   2.213  15.120 -0.1468 -1.4206  0.0391
 3088TIP3   OH230754   3.580   1.741  12.950  0.4504  0.3604  0.0206
 3088TIP3    H130755   3.633   1.786  12.884  0.1726 -0.2485 -0.6311
 3088TIP3    H230756   3.567   1.807  13.019 -0.1587  1.3762 -1.0205
 3089TIP3   OH230757   5.857   4.239   1.107  0.0588  0.0986 -0.0457
 3089TIP3    H130758   5.870   4.328   1.074 -0.0123  0.0668 -0.1579
 3089TIP3    H230759   5.774   4.210   1.068 -0.0730  0.0957  0.2318
 3090TIP3   OH230760   6.172   6.723   6.164 -0.5679  0.6270 -0.5292
 3090TIP3    H130761   6.104   6.788   6.182 -0.7971  0.1861  0.2213
 3090TIP3    H230762   6.253   6.774   6.157 -0.4352  0.8387  1.8842
 3091TIP3   OH230763   4.602   1.513  13.856  0.3262 -0.1263  0.0354
 3091TIP3    H130764   4.682   1.538  13.809 -0.5286  0.8066 -0.9903
 3091TIP3    H230765   4.623   1.529  13.948  1.2535  0.3186 -0.2348
 3092TIP3   OH230766   2.442   5.345   0.999  0.2968  0.1322 -0.6748
 3092TIP3    H130767   2.471   5.258   1.026 -1.6555 -0.3889 -0.0583
 3092TIP3    H230768   2.461   5.348   0.905  1.5313 -0.4623 -0.4557
 3093TIP3   OH230769   3.861   2.199   2.273  0.0388  0.7761 -0.5211
 3093TIP3    H130770   3.905   2.168   2.194 -0.5912  1.1423 -1.0321
 3093TIP3    H230771   3.768   2.179   2.258  0.2023 -2.0722  1.4924
 3094TIP3   OH230772   2.135   3.323  13.492  0.5377 -0.3064 -0.6005
 3094TIP3    H130773   2.119   3.369  13.409  0.0073 -0.2562 -0.4754
 3094TIP3    H230774   2.190   3.249  13.468 -0.9583 -1.2489 -1.2867
 3095TIP3   OH230775   0.052   0.530   4.792  0.0338 -0.1126 -0.1080
 3095TIP3    H130776   0.134   0.580   4.790 -0.1364  0.1575 -0.5074
 3095TIP3    H230777   0.016   0.546   4.879 -0.6807  1.5828 -0.6638
 3096TIP3   OH230778   0.721   2.456   1.658  0.5574 -0.0339  0.6564
 3096TIP3    H130779   0.681   2.528   1.706 -0.9786 -0.5540  0.1940
 3096TIP3    H230780   0.782   2.417   1.721  0.9558  1.2501  1.1134
 3097TIP3   OH230781   5.342   6.763  10.691 -0.0307  0.4514 -0.5693
 3097TIP3    H130782   5.324   6.695  10.756  0.1564  0.7732 -0.1784
 3097TIP3    H230783   5.326   6.720  10.607  0.3254 -0.1440 -0.3382
 3098TIP3   OH230784   3.537   1.339   3.461 -0.2137  0.4702  0.1369
 3098TIP3    H130785   3.519   1.298   3.546 -1.1012 -1.2693 -0.8390
 3098TIP3    H230786   3.618   1.299   3.432 -0.0960  0.8096 -0.0145
 3099TIP3   OH230787   1.501   0.551   3.977  0.0918  0.6015 -0.5180
 3099TIP3    H130788   1.585   0.520   3.941  0.0287  0.9045 -0.9304
 3099TIP3    H230789   1.436   0.493   3.939  0.1823 -0.1531  0.4352
 3100TIP3   OH230790   5.957   3.022   4.128 -0.2132  0.0869 -0.1881
 3100TIP3    H130791   5.899   3.014   4.052  0.9447 -0.0067 -1.0883
 3100TIP3    H230792   5.945   2.939   4.176 -0.7768  0.0475 -0.3983
 3101TIP3   OH230793   2.438   2.874   6.005  0.3803  0.3734 -0.6583
 3101TIP3    H130794   2.389   2.815   6.062 -0.3756  1.3096 -0.3131
 3101TIP3    H230795   2.375   2.900   5.938  1.0249 -0.0669 -1.4499
 3102TIP3   OH230796   0.396   2.241  12.391 -0.4197 -0.4232  0.7223
 3102TIP3    H130797   0.435   2.222  12.476  2.2644  0.8955 -0.1187
 3102TIP3    H230798   0.374   2.334  12.394  2.2904  0.3755 -0.8535
 3103TIP3   OH230799   3.056   5.488  13.607  0.4389 -0.1349 -0.4505
 3103TIP3    H130800   3.076   5.422  13.673  0.9737  0.6347  0.1897
 3103TIP3    H230801   2.974   5.459  13.567  1.4621 -1.9853 -1.2822
 3104TIP3   OH230802   3.180   6.751   4.372  0.1119 -0.0380  0.6291
 3104TIP3    H130803   3.200   6.700   4.294 -2.8150 -1.3082  0.5964
 3104TIP3    H230804   3.265   6.764   4.414  1.6263 -0.3405 -2.0917
 3105TIP3   OH230805   5.427   6.257   0.878  0.9825  0.0390 -0.1039
 3105TIP3    H130806   5.431   6.211   0.962 -2.2755  0.7951  0.6227
 3105TIP3    H230807   5.340   6.236   0.843  1.3929  1.5175 -2.2217
 3106TIP3   OH230808   5.723   5.627  13.598  0.4044 -0.2433 -0.3548
 3106TIP3    H130809   5.801   5.614  13.544  0.4920 -0.4849 -0.1734
 3106TIP3    H230810   5.737   5.571  13.674 -0.5660 -1.3594 -0.9621
 3107TIP3   OH230811   3.274   1.581   2.266  0.5985  0.7420  0.2344
 3107TIP3    H130812   3.329   1.585   2.344  1.7005 -2.5667 -0.2313
 3107TIP3    H230813   3.329   1.539   2.199 -0.7757  2.1740 -1.9239
 3108TIP3   OH230814   2.573   4.352   5.182 -0.0651 -0.3859 -0.3504
 3108TIP3    H130815   2.627   4.381   5.255 -0.0956 -0.7867 -0.1696
 3108TIP3    H230816   2.498   4.412   5.184 -0.2027 -0.5687  0.1164
 3109TIP3   OH230817   2.523   0.269  15.783 -0.0457  0.5447  0.1649
 3109TIP3    H130818   2.472   0.349  15.770 -0.6024  0.2912  0.7035
 3109TIP3    H230819   2.608   0.299  15.815 -0.2967  0.9172  0.4863
 3110TIP3   OH230820   1.079   6.030  14.792  0.2512  0.0693  0.0702
 3110TIP3    H130821   1.157   6.051  14.741  1.6758 -1.0334  1.7117
 3110TIP3    H230822   1.080   5.935  14.799 -1.5131 -0.0006 -0.2542
 3111TIP3   OH230823   6.738   4.302  13.449  0.1338 -0.0641 -0.7888
 3111TIP3    H130824   6.738   4.308  13.353  1.8399  0.0347 -0.8205
 3111TIP3    H230825   6.825   4.269  13.471  0.1270  0.8358  0.7695
 3112TIP3   OH230826   0.853   2.931  16.295 -0.2579  0.6302  0.1382
 3112TIP3    H130827   0.766   2.920  16.333 -0.3577 -2.7772 -0.7238
 3112TIP3    H230828   0.910   2.876  16.349  0.9702  1.1793 -0.5429
 3113TIP3   OH230829   4.144   1.255  11.660 -0.4855  0.0225 -0.3086
 3113TIP3    H130830   4.218   1.197  11.642  0.5525  1.0292  0.5658
 3113TIP3    H230831   4.156   1.329  11.601 -1.8504 -0.6503 -1.4793
 3114TIP3   OH230832   2.621   1.845  10.301  0.5464  0.6784  0.1695
 3114TIP3    H130833   2.567   1.905  10.251 -0.3002 -0.0694  0.1584
 3114TIP3    H230834   2.587   1.851  10.390  0.7105  0.5016  0.2444
 3115TIP3   OH230835   2.490   5.297   5.110 -0.1343  0.4333  0.0413
 3115TIP3    H130836   2.566   5.273   5.162  0.9592  1.1112 -1.1825
 3115TIP3    H230837   2.442   5.360   5.164 -0.1796 -0.4641  1.0717
 3116TIP3   OH230838   4.242   4.603  14.222 -0.5931  0.2895 -0.1603
 3116TIP3    H130839   4.241   4.510  14.246  1.7639  0.0634 -0.7477
 3116TIP3    H230840   4.260   4.603  14.128 -0.9207  1.3551 -0.2325
 3117TIP3   OH230841   1.511   1.755   1.576 -0.3302  0.1652 -0.3207
 3117TIP3    H130842   1.600   1.788   1.563  0.2982 -1.0319  0.7734
 3117TIP3    H230843   1.495   1.700   1.499  0.7892 -1.4523  0.5349
 3118TIP3   OH230844   5.697   4.827  13.822  0.1182  0.2635  0.3922
 3118TIP3    H130845   5.694   4.741  13.862  0.1694  0.6651  1.2815
 3118TIP3    H230846   5.691   4.888  13.895 -1.4804  1.0197 -0.3358
 3119TIP3   OH230847   1.642   0.428  12.511  0.1725  0.4868  0.5558
 3119TIP3    H130848   1.715   0.392  12.562  1.3582 -0.3609 -1.6052
 3119TIP3    H230849   1.568   0.370  12.531  0.5122  0.3695  1.5250
 3120TIP3   OH230850   2.290   4.933  16.727  0.3593  0.3920 -0.1857
 3120TIP3    H130851   2.198   4.946  16.750  0.0928  2.3405 -2.0890
 3120TIP3    H230852   2.287   4.878  16.648  0.9289 -0.4935  0.3829
 3121TIP3   OH230853   2.792   2.866  11.813  0.1381 -0.3846  0.1401
 3121TIP3    H130854   2.800   2.777  11.780 -0.1976 -1.1334  1.9485
 3121TIP3    H230855   2.755   2.916  11.740  1.7544 -1.3368 -1.4331
 3122TIP3   OH230856   3.351   4.431   6.493  0.0837  0.2032  0.2938
 3122TIP3    H130857   3.381   4.356   6.443 -2.7726  0.0577 -1.4308
 3122TIP3    H230858   3.426   4.456   6.547  1.0626 -4.0967  1.3073
 3123TIP3   OH230859   0.555   5.615  16.939 -0.4820 -0.2336 -0.0991
 3123TIP3    H130860   0.494   5.627  17.012  0.5261  0.1044  0.7204
 3123TIP3    H230861   0.554   5.521  16.922  1.6310 -0.8785  2.5595
 3124TIP3   OH230862   4.045   4.379  11.933  0.2051 -0.2554  0.0450
 3124TIP3    H130863   4.023   4.472  11.928  1.3619  0.0177 -0.3358
 3124TIP3    H230864   4.098   4.362  11.855  0.1438 -1.2008  0.1889
 3125TIP3   OH230865   4.990   3.457  11.507 -0.2292  0.3016 -0.1646
 3125TIP3    H130866   5.054   3.455  11.578 -0.6394 -1.3170  0.1944
 3125TIP3    H230867   4.984   3.550  11.482  0.2114  0.8435  1.6425
 3126TIP3   OH230868   6.509   6.494  11.233  0.1132  0.4069  0.3666
 3126TIP3    H130869   6.512   6.580  11.193  2.1429  0.9199  1.5168
 3126TIP3    H230870   6.525   6.509  11.326 -0.9863 -1.0797  0.8470
 3127TIP3   OH230871   0.013   3.400  17.133  0.1417  0.1478  0.3714
 3127TIP3    H130872   0.035   3.461  17.204 -1.3858  0.3794  0.7049
 3127TIP3    H230873  -0.039   3.332  17.176 -0.8968  0.3460 -0.5300
 3128TIP3   OH230874   5.624   4.816  13.547 -0.0805 -0.0395 -0.4580
 3128TIP3    H130875   5.627   4.890  13.609  0.7334 -0.2264 -0.2627
 3128TIP3    H230876   5.597   4.855  13.464 -1.2832  0.2013  0.0232
 3129TIP3   OH230877   2.701   3.885   1.956 -0.2041  0.3210 -0.2127
 3129TIP3    H130878   2.739   3.808   1.998 -0.2576  0.0759 -0.6127
 3129TIP3    H230879   2.726   3.877   1.864  0.3289  1.1060 -0.1468
 3130TIP3   OH230880   5.194   1.770  15.167  0.2429 -0.0236 -0.1317
 3130TIP3    H130881   5.126   1.800  15.107 -0.7296 -1.2466  0.3396
 3130TIP3    H230882   5.223   1.686  15.131  0.9917  0.1388  0.0721
 3131TIP3   OH230883   4.682   3.511  11.222 -0.3966  0.0478  0.1174
 3131TIP3    H130884   4.686   3.496  11.317 -1.2230 -1.1727 -0.0195
 3131TIP3    H230885   4.772   3.496  11.193 -0.1850  0.1852  0.6830
 3132TIP3   OH230886   2.317   4.769   0.869 -0.3248 -0.0792  0.3067
 3132TIP3    H130887   2.358   4.683   0.874  0.5146  0.3085  0.2185
 3132TIP3    H230888   2.252   4.769   0.941 -1.6485 -1.4319 -0.8259
 3133TIP3   OH230889   0.648   6.741  11.461  0.9629  0.3078  0.1180
 3133TIP3    H130890   0.708   6.742  11.536 -0.2139 -0.6265  1.1177
 3133TIP3    H230891   0.694   6.789  11.393  2.4831  0.3509  1.1251
 3134TIP3   OH230892   1.335   4.989   1.644 -0.4417  0.3524 -0.0776
 3134TIP3    H130893   1.308   4.977   1.735 -1.9949  0.8848 -0.4481
 3134TIP3    H230894   1.380   5.073   1.643 -0.0157  0.1318  0.2747
 3135TIP3   OH230895   1.709   1.293  13.581  0.2976 -0.0228  0.1782
 3135TIP3    H130896   1.665   1.371  13.547 -1.0555 -0.1961  1.4136
 3135TIP3    H230897   1.657   1.220  13.546  1.3364 -0.3778 -0.6726
 3136TIP3   OH230898   5.407   0.868   4.400 -1.0789 -0.2059  0.1875
 3136TIP3    H130899   5.423   0.784   4.445  0.9764 -1.6007 -2.8098
 3136TIP3    H230900   5.436   0.934   4.463  0.5541 -1.9631  1.4045
 3137TIP3   OH230901   3.240   0.471   2.480 -0.6289 -0.7847 -0.1291
 3137TIP3    H130902   3.312   0.459   2.418  0.3075  1.5327  0.3919
 3137TIP3    H230903   3.214   0.563   2.469 -0.4422 -0.2803  2.8271
 3138TIP3   OH230904   0.348   3.320  14.382 -0.2236  0.1188  0.1202
 3138TIP3    H130905   0.413   3.340  14.450  0.0340 -0.2919 -0.0025
 3138TIP3    H230906   0.374   3.374  14.308  0.5146 -0.7041 -0.2354
 3139TIP3   OH230907   6.784   2.967   0.765 -0.3164  0.6847 -0.1101
 3139TIP3    H130908   6.699   3.007   0.751 -0.3076  0.5894 -0.4285
 3139TIP3    H230909   6.830   3.029   0.823 -1.0388  0.1456  1.0733
 3140TIP3   OH230910   5.653   2.588  16.556  0.4225  0.4127  0.2097
 3140TIP3    H130911   5.691   2.506  16.523 -1.9979 -1.0518  0.7743
 3140TIP3    H230912   5.578   2.604  16.499 -0.5970  0.8541  1.6194
 3141TIP3   OH230913   3.709   5.058   2.549 -0.5548 -0.0845  0.4621
 3141TIP3    H130914   3.765   5.060   2.626  1.5659 -0.2643 -0.9858
 3141TIP3    H230915   3.746   4.989   2.494 -1.0478  1.0385 -1.3898
 3142TIP3   OH230916   0.643   1.094  13.800 -0.1721  0.0841 -0.8560
 3142TIP3    H130917   0.605   1.079  13.886 -1.3736 -0.5223 -1.4651
 3142TIP3    H230918   0.698   1.172  13.811 -0.8600  0.4279  0.2824
 3143TIP3   OH230919   2.257   5.913   3.069 -0.9600  0.2150  0.6493
 3143TIP3    H130920   2.348   5.913   3.038 -0.3878  0.0511  2.2140
 3143TIP3    H230921   2.214   5.981   3.017  0.3135  0.9958  0.5604
 3144TIP3   OH230922   6.310   0.633   0.209  0.0044 -0.4848 -0.0308
 3144TIP3    H130923   6.333   0.708   0.264  0.3249  0.7283 -1.7312
 3144TIP3    H230924   6.275   0.673   0.129 -1.1214 -2.1908 -0.4373
 3145TIP3   OH230925   3.799   6.292   2.344 -0.2729 -0.0047 -0.0026
 3145TIP3    H130926   3.803   6.375   2.393  0.2925 -0.4365  0.7069
 3145TIP3    H230927   3.824   6.316   2.254 -1.6521  0.8600 -0.1772
 3146TIP3   OH230928   3.503   3.088   0.307  0.8057 -0.0860 -0.5525
 3146TIP3    H130929   3.541   3.076   0.393  0.6007  0.5302 -0.3679
 3146TIP3    H230930   3.551   3.162   0.269 -0.2862  0.8076 -0.2474
 3147TIP3   OH230931   0.738   3.097  13.138  0.2359  0.0439  0.4494
 3147TIP3    H130932   0.694   3.116  13.221  1.5630  0.4164  1.0834
 3147TIP3    H230933   0.715   3.006  13.120 -1.1361  0.3432  0.5352
 3148TIP3   OH230934   2.915   3.588   1.092 -0.1493 -0.0682  0.6304
 3148TIP3    H130935   2.976   3.514   1.097 -1.5073 -1.5040 -1.8251
 3148TIP3    H230936   2.843   3.563   1.150 -0.2833 -0.3748  0.3393
 3149TIP3   OH230937   4.464   4.321   4.728 -0.4293 -0.1129  0.2245
 3149TIP3    H130938   4.369   4.325   4.734 -0.3737  0.9989  0.5511
 3149TIP3    H230939   4.494   4.407   4.757  0.7210 -0.7325  0.9983
 3150TIP3   OH230940   1.799   1.301  15.711 -0.7307  0.1302 -0.4010
 3150TIP3    H130941   1.780   1.359  15.637 -0.4950  0.2514 -0.3664
 3150TIP3    H230942   1.723   1.243  15.716 -0.2367 -0.6449 -1.4696
 3151TIP3   OH230943   4.507   4.065  16.619 -0.3209 -0.3349 -0.0785
 3151TIP3    H130944   4.577   4.003  16.601 -1.1997 -1.4599  0.2511
 3151TIP3    H230945   4.552   4.147  16.642  0.8494 -0.4369 -1.8277
 3152TIP3   OH230946   6.488   6.065  12.455  0.1238  0.5558 -0.5434
 3152TIP3    H130947   6.435   6.005  12.402  1.1407 -0.9214  0.0638
 3152TIP3    H230948   6.496   6.022  12.540  1.3352  1.3092 -0.2564
 3153TIP3   OH230949   1.712   0.485  14.137  0.3434  0.0583 -0.1751
 3153TIP3    H130950   1.671   0.399  14.125  1.4568 -0.4566 -0.4399
 3153TIP3    H230951   1.668   0.542  14.074  0.4904 -0.6383 -0.9242
 3154TIP3   OH230952   3.425   4.468   0.857  0.2219  0.1925  0.1852
 3154TIP3    H130953   3.448   4.540   0.915  2.8236  0.9506 -1.6137
 3154TIP3    H230954   3.339   4.440   0.887  0.9850  1.1209  3.7717
 3155TIP3   OH230955   4.510   5.749   0.773 -0.0715  0.9429  0.1146
 3155TIP3    H130956   4.417   5.739   0.752 -0.5446  0.6044  2.1367
 3155TIP3    H230957   4.553   5.676   0.727 -0.8109  1.0209 -0.7211
 3156TIP3   OH230958   4.000   2.002   2.826  0.3190 -0.0091 -0.5650
 3156TIP3    H130959   3.980   2.081   2.877  0.4435 -0.0726 -0.4138
 3156TIP3    H230960   4.032   1.940   2.892  1.3775  0.2172 -0.8457
 3157TIP3   OH230961   0.228   1.491  15.823  0.4060  1.2412  0.0688
 3157TIP3    H130962   0.163   1.499  15.892  0.6633 -0.0034  0.4828
 3157TIP3    H230963   0.177   1.472  15.744  0.2856 -2.1279  0.8033
 3158TIP3   OH230964   2.126   3.637   0.133  0.0583  0.0697 -0.0915
 3158TIP3    H130965   2.188   3.569   0.109  1.0858  0.7735  0.5142
 3158TIP3    H230966   2.059   3.634   0.063  0.8211 -0.6193 -0.8108
 3159TIP3   OH230967   3.021   4.637  11.679 -0.8355  0.4430 -0.0434
 3159TIP3    H130968   2.940   4.660  11.633 -0.8494  2.4982  0.8988
 3159TIP3    H230969   3.000   4.646  11.772  0.2569  0.2932  0.2386
 3160TIP3   OH230970   2.363   1.074   5.738  0.3442  0.1809 -0.3005
 3160TIP3    H130971   2.316   1.116   5.665  0.5057  0.4215 -0.2676
 3160TIP3    H230972   2.305   1.083   5.813  0.6214  0.8610 -0.1594
 3161TIP3   OH230973   0.055   1.657   0.825  0.5032 -0.1656 -0.3011
 3161TIP3    H130974   0.019   1.688   0.742 -0.6637  0.7250  0.5092
 3161TIP3    H230975   0.075   1.737   0.874  3.3323 -0.6089 -0.5476
 3162TIP3   OH230976   3.017   0.701   2.668 -0.4409 -0.2115 -0.0694
 3162TIP3    H130977   3.065   0.718   2.587  0.3080  0.2291  0.4605
 3162TIP3    H230978   3.082   0.707   2.737 -0.9817 -1.0452  0.5380
 3163TIP3   OH230979   4.603   5.418   3.375  0.0728  0.4236 -0.3256
 3163TIP3    H130980   4.677   5.380   3.422 -0.1845 -1.2536 -1.1837
 3163TIP3    H230981   4.640   5.452   3.293 -0.0241 -0.0141 -0.5555
 3164TIP3   OH230982   0.214   0.140  13.732  0.5178 -0.0712  0.1422
 3164TIP3    H130983   0.294   0.115  13.685 -0.0953 -2.0793  0.0910
 3164TIP3    H230984   0.149   0.154  13.662  0.9185  2.2563  0.1297
 3165TIP3   OH230985   3.503   2.649   5.161 -0.3558 -0.1751  0.7863
 3165TIP3    H130986   3.566   2.696   5.107 -0.4094  0.4386  1.2520
 3165TIP3    H230987   3.509   2.558   5.132  1.0831 -0.2089  1.1393
 3166TIP3   OH230988   6.140   0.713   5.863 -0.0826  0.2260  0.1117
 3166TIP3    H130989   6.098   0.653   5.924 -0.3634 -1.4378 -1.6170
 3166TIP3    H230990   6.233   0.689   5.865  0.2084  1.3043  1.0646
 3167TIP3   OH230991   4.070   6.658  17.029  0.1904  0.4313 -0.5312
 3167TIP3    H130992   4.079   6.678  17.123  2.7569 -1.4641 -0.2595
 3167TIP3    H230993   4.135   6.714  16.987 -0.5037  0.7999 -1.1297
 3168TIP3   OH230994   3.428   6.201  11.335  0.2148  0.1310  0.2564
 3168TIP3    H130995   3.510   6.251  11.337  0.1571  0.3983 -1.8157
 3168TIP3    H230996   3.453   6.113  11.364  0.8764  0.6287  1.2507
 3169TIP3   OH230997   1.583   0.407  16.259  0.6967 -0.0727  0.1385
 3169TIP3    H130998   1.554   0.380  16.172  1.5698  0.2391 -0.2621
 3169TIP3    H230999   1.501   0.422  16.308  0.1941 -1.6465 -0.1566
 3170TIP3   OH231000   6.823   2.856  13.792  0.3119 -0.1574 -0.8046
 3170TIP3    H131001   6.867   2.834  13.874 -0.9075 -0.3914 -0.1885
 3170TIP3    H231002   6.753   2.917  13.818  0.8210  0.9270 -1.8751
 3171TIP3   OH231003   1.770   2.756  15.451 -0.0165  0.0192  0.3106
 3171TIP3    H131004   1.808   2.821  15.510  0.6993 -1.0274  1.0584
 3171TIP3    H231005   1.732   2.690  15.510 -2.1463  0.5373 -0.4257
 3172TIP3   OH231006   4.532   1.482   0.848  0.5963 -0.3703  0.8456
 3172TIP3    H131007   4.612   1.493   0.797  0.4969 -1.4214  0.4505
 3172TIP3    H231008   4.557   1.507   0.937  1.4849 -1.0860  0.8117
 3173TIP3   OH231009   2.340   4.858   6.139  0.1324  0.0054  0.0804
 3173TIP3    H131010   2.382   4.773   6.152  0.7645  0.1395 -0.9284
 3173TIP3    H231011   2.407   4.911   6.095 -0.3471  0.9403  0.4409
 3174TIP3   OH231012   0.095   3.906   1.186  0.1648  0.2485 -0.2117
 3174TIP3    H131013   0.067   3.966   1.117 -0.6696  0.6712  0.4742
 3174TIP3    H231014   0.140   3.835   1.140 -2.1796 -0.5573 -1.3898
 3175TIP3   OH231015   0.078   4.056  12.568  0.0692 -0.6048  0.0639
 3175TIP3    H131016   0.058   4.094  12.653 -0.2851 -0.9824  0.1507
 3175TIP3    H231017   0.138   3.984  12.587  0.1327 -0.5763 -0.0239
 3176TIP3   OH231018   3.270   2.352  14.636  0.4387 -0.6105  0.1129
 3176TIP3    H131019   3.318   2.433  14.653 -0.7307 -0.1500  1.4247
 3176TIP3    H231020   3.178   2.375  14.648  0.1230 -2.3172  1.4582
 3177TIP3   OH231021   3.251   5.357  11.831  1.3928 -0.7676  0.0265
 3177TIP3    H131022   3.253   5.429  11.894 -1.8132 -1.4250  1.0561
 3177TIP3    H231023   3.289   5.283  11.879  0.4650 -0.8573  0.6491
 3178TIP3   OH231024   5.882   3.600  14.256 -0.2983  0.1427  0.2779
 3178TIP3    H131025   5.867   3.573  14.165 -0.7138 -0.8299  0.6260
 3178TIP3    H231026   5.930   3.527  14.295  0.2326  0.7319  0.7372
 3179TIP3   OH231027   5.846   5.826   2.916  0.0711  0.0230  0.0738
 3179TIP3    H131028   5.916   5.816   2.852 -0.3053 -2.1340 -0.0577
 3179TIP3    H231029   5.853   5.749   2.972 -0.6896  0.9997  1.5857
 3180TIP3   OH231030   4.115   5.437   3.384  0.2349 -0.1447  0.1962
 3180TIP3    H131031   4.088   5.347   3.367 -0.9274  0.1469  0.4040
 3180TIP3    H231032   4.189   5.429   3.445 -2.3413 -0.9161  3.5268
 3181TIP3   OH231033   3.666   3.045   4.309 -0.1340  0.1484  0.1080
 3181TIP3    H131034   3.629   3.051   4.397  1.4102 -0.7606  0.8791
 3181TIP3    H231035   3.711   2.960   4.308  2.2554  1.3293 -0.5531
 3182TIP3   OH231036   4.248   2.325   0.315  0.2405  0.1799  0.0188
 3182TIP3    H131037   4.282   2.321   0.404 -0.6770  0.4918  0.3972
 3182TIP3    H231038   4.210   2.412   0.307  0.1690  0.0976 -0.6253
 3183TIP3   OH231039   2.043   4.000   0.758  0.5490 -0.0505  0.6426
 3183TIP3    H131040   2.117   3.979   0.700  0.9237  1.3317  0.5699
 3183TIP3    H231041   2.034   3.923   0.814  1.5870 -0.5379  0.1800
 3184TIP3   OH231042   0.787   1.454  11.565 -0.2575 -0.5634 -0.1219
 3184TIP3    H131043   0.717   1.493  11.617 -0.1517 -1.1603  0.4795
 3184TIP3    H231044   0.748   1.375  11.527 -0.6633  0.4312 -1.8508
 3185TIP3   OH231045   6.165   1.208  12.907 -0.0040  0.4251 -0.3742
 3185TIP3    H131046   6.127   1.142  12.965 -0.2063  1.1463  0.3288
 3185TIP3    H231047   6.221   1.261  12.964  0.0768  0.9243 -0.9077
 3186TIP3   OH231048   6.543   6.813  12.946  0.1564 -0.1271  0.2590
 3186TIP3    H131049   6.562   6.724  12.915 -0.5145  0.4207 -1.9014
 3186TIP3    H231050   6.628   6.857  12.944  0.4017 -0.5571  0.8359
 3187TIP3   OH231051   5.755   1.626  15.286 -0.5350  0.6892 -0.4216
 3187TIP3    H131052   5.842   1.589  15.302 -0.5635 -1.6339 -4.3462
 3187TIP3    H231053   5.764   1.676  15.205 -2.4629  2.2258  0.2321
 3188TIP3   OH231054   5.147   1.694  15.494  0.6013  0.1765 -0.9666
 3188TIP3    H131055   5.074   1.650  15.450 -1.4545  2.2229  0.1549
 3188TIP3    H231056   5.179   1.757  15.429 -0.6150  1.2797 -0.5525
 3189TIP3   OH231057   3.080   2.306   5.074  0.6544  0.0053  0.3660
 3189TIP3    H131058   3.134   2.328   4.998  0.5737 -1.2450 -0.0726
 3189TIP3    H231059   3.130   2.337   5.149  0.1239  2.5088 -0.2116
 3190TIP3   OH231060   5.831   0.800   6.557  0.5230  0.3993 -0.4474
 3190TIP3    H131061   5.804   0.840   6.475 -0.3427  1.8290  0.5007
 3190TIP3    H231062   5.874   0.871   6.605 -0.7577  0.1365  1.1443
 3191TIP3   OH231063   0.075   0.508  16.271 -0.0112 -0.4836  0.5077
 3191TIP3    H131064   0.156   0.487  16.317  0.0995 -0.4818  0.3147
 3191TIP3    H231065   0.091   0.592  16.230 -0.8721  0.5980  2.2818
 3192TIP3   OH231066   2.779   6.379   0.914 -0.2909 -0.5813 -0.2363
 3192TIP3    H131067   2.702   6.377   0.856  0.4100  1.1487 -1.2872
 3192TIP3    H231068   2.784   6.290   0.949 -2.3510 -0.9359 -0.6862
 3193TIP3   OH231069   5.594   3.977   2.915 -0.2723  0.7252  0.4877
 3193TIP3    H131070   5.532   4.025   2.860 -0.0477  0.0634 -0.3716
 3193TIP3    H231071   5.549   3.896   2.937  0.9631 -0.6916 -1.8248
 3194TIP3   OH231072   0.100   0.261  16.518  0.2759  0.7180 -0.5514
 3194TIP3    H131073   0.154   0.182  16.527  0.6185  1.0206  0.1234
 3194TIP3    H231074   0.160   0.327  16.482  0.3065  0.9842 -0.0322
 3195TIP3   OH231075   1.243   6.449   0.109  0.2170 -0.4473  0.2981
 3195TIP3    H131076   1.148   6.444   0.097  0.1026 -2.0512  1.4185
 3195TIP3    H231077   1.258   6.406   0.194  2.1119 -2.0123 -0.7385
 3196TIP3   OH231078   4.353   3.093  16.651  0.5370  0.1680 -0.1167
 3196TIP3    H131079   4.361   3.015  16.597 -0.2703  0.4445 -0.6477
 3196TIP3    H231080   4.417   3.154  16.614  1.7294 -0.4890  0.7848
 3197TIP3   OH231081   5.479   1.300   0.717 -0.6882  0.3196  0.7015
 3197TIP3    H131082   5.440   1.214   0.731  1.6940 -0.6762  1.6676
 3197TIP3    H231083   5.429   1.358   0.776 -0.5791 -0.9420  2.1101
 3198TIP3   OH231084   2.802   0.764   5.598 -0.0961 -0.1263 -0.2229
 3198TIP3    H131085   2.776   0.793   5.510 -1.8872 -1.9493 -0.3687
 3198TIP3    H231086   2.862   0.691   5.582  1.9479  1.3634  0.1445
 3199TIP3   OH231087   3.028   3.168   3.605 -0.3718 -0.4627 -0.1519
 3199TIP3    H131088   3.057   3.080   3.579 -0.5243  0.1138 -2.4725
 3199TIP3    H231089   3.075   3.227   3.546 -0.0565  1.0829  1.5505
 3200TIP3   OH231090   2.378   2.600   3.877  0.5558 -0.0431  0.2790
 3200TIP3    H131091   2.283   2.615   3.872  1.0067  3.8341  0.7772
 3200TIP3    H231092   2.391   2.560   3.963 -0.6047 -1.0919  0.0120
 3201TIP3   OH231093   6.454   4.390   2.956  0.1701 -0.2489  0.2564
 3201TIP3    H131094   6.398   4.397   3.033  1.1774 -0.3575  1.0151
 3201TIP3    H231095   6.445   4.474   2.911 -0.0386  0.0024  0.7640
 3202TIP3   OH231096   4.663   2.318   0.511  0.4869  0.0269 -0.1915
 3202TIP3    H131097   4.702   2.307   0.598 -1.2233 -0.8008  0.5245
 3202TIP3    H231098   4.586   2.373   0.526 -1.2017 -2.0318 -0.6815
 3203TIP3   OH231099   1.512   1.220  16.282 -0.5942  0.2150  0.4625
 3203TIP3    H131100   1.564   1.185  16.354 -2.2235 -0.7191  1.2434
 3203TIP3    H231101   1.425   1.233  16.320 -1.0102  1.5225 -0.8492
 3204TIP3   OH231102   6.122   5.121  15.974  0.3095 -0.3570  0.0617
 3204TIP3    H131103   6.125   5.053  16.042  0.5261 -0.2115  0.1980
 3204TIP3    H231104   6.104   5.073  15.893  2.1582 -0.7920 -0.1375
 3205TIP3   OH231105   6.215   2.853   0.295 -0.3023  0.3534 -0.2248
 3205TIP3    H131106   6.195   2.807   0.213 -1.1292 -0.7640  0.5712
 3205TIP3    H231107   6.192   2.791   0.364 -0.8770  1.7301  0.8921
 3206TIP3   OH231108   5.834   0.753   6.000  0.0858  0.0508  0.7017
 3206TIP3    H131109   5.745   0.718   5.991  0.2335 -0.4559  1.1624
 3206TIP3    H231110   5.831   0.837   5.953 -0.8334  0.3775  1.3074
 3207TIP3   OH231111   3.565   3.180   2.385  0.5284  0.1854  0.3135
 3207TIP3    H131112   3.540   3.251   2.444  1.4019  0.1440  0.7378
 3207TIP3    H231113   3.487   3.124   2.381  0.5174  0.0765  1.5960
 3208TIP3   OH231114   4.329   6.067   2.684  0.1026 -0.1751  0.6689
 3208TIP3    H131115   4.363   6.156   2.681 -1.2828  0.3919  1.0141
 3208TIP3    H231116   4.236   6.076   2.664 -0.2576 -1.4230  1.6545
 3209TIP3   OH231117   2.207   0.455   5.107 -0.1476  0.1476 -0.5520
 3209TIP3    H131118   2.137   0.414   5.056 -0.7864 -0.5223  0.8120
 3209TIP3    H231119   2.286   0.408   5.081 -0.7352 -1.4095  0.3389
 3210TIP3   OH231120   2.453   6.224   2.649  0.5360 -0.5317 -1.1617
 3210TIP3    H131121   2.371   6.218   2.599  1.3024 -2.4784 -2.3109
 3210TIP3    H231122   2.450   6.147   2.707  0.9268  0.1785 -0.1814
 3211TIP3   OH231123   0.127   3.883   5.837 -0.2913  0.5883 -0.6360
 3211TIP3    H131124   0.061   3.935   5.883  0.3228  1.5077 -0.7608
 3211TIP3    H231125   0.141   3.929   5.755 -0.5216 -0.3926 -1.2366
 3212TIP3   OH231126   6.698   6.696  14.775 -0.5161  0.7214  0.8810
 3212TIP3    H131127   6.735   6.615  14.739 -0.5065  1.3297 -0.5484
 3212TIP3    H231128   6.621   6.667  14.823 -0.3427 -0.1671  0.6482
 3213TIP3   OH231129   6.723   2.417  11.344  0.1857 -0.1365 -0.1145
 3213TIP3    H131130   6.753   2.506  11.326  0.2238 -0.5260 -2.1508
 3213TIP3    H231131   6.764   2.395  11.428 -1.0495  2.2615  1.2180
 3214TIP3   OH231132   2.624   3.337   4.503  0.0539  0.6556 -0.0684
 3214TIP3    H131133   2.702   3.311   4.454  2.7819  2.0148  3.1583
 3214TIP3    H231134   2.572   3.257   4.510  2.7959 -1.2246  0.3560
 3215TIP3   OH231135   3.521   4.848   2.250 -0.2547 -0.1786  0.1568
 3215TIP3    H131136   3.553   4.761   2.274 -2.7141 -0.7624  1.7255
 3215TIP3    H231137   3.451   4.832   2.187  0.7231  0.8653 -1.2666
 3216TIP3   OH231138   5.285   2.077   2.589 -0.0587  0.5405  0.1703
 3216TIP3    H131139   5.375   2.071   2.555 -0.4092  0.9873 -0.8767
 3216TIP3    H231140   5.288   2.149   2.651  0.3420  0.4549  0.2575
 3217TIP3   OH231141   2.776   4.703  17.017  0.2402 -0.3150 -0.5922
 3217TIP3    H131142   2.826   4.758  17.078 -0.3494  0.4265 -0.7760
 3217TIP3    H231143   2.688   4.740  17.017 -0.8943 -2.7247  1.1856
 3218TIP3   OH231144   0.048   0.425   2.443  0.3143 -0.3088  0.5826
 3218TIP3    H131145   0.101   0.499   2.474 -1.0977  0.9650  0.0450
 3218TIP3    H231146   0.027   0.377   2.523 -0.0010  0.7271  1.1418
 3219TIP3   OH231147   2.470   4.201  16.229  0.5188 -0.0311 -0.4185
 3219TIP3    H131148   2.437   4.114  16.208 -1.1189  0.3605  0.3772
 3219TIP3    H231149   2.423   4.261  16.170 -1.0055  0.6248  1.3411
 3220TIP3   OH231150   3.557   2.900  14.361  0.1564  0.1936 -0.1243
 3220TIP3    H131151   3.547   2.833  14.428  0.0489 -1.8978 -2.1319
 3220TIP3    H231152   3.649   2.896  14.335 -0.0303  0.2284 -0.8336
 3221TIP3   OH231153   2.553   0.784  10.143  0.3794 -0.5400  0.1517
 3221TIP3    H131154   2.542   0.701  10.190 -0.0157 -1.3809 -1.3661
 3221TIP3    H231155   2.620   0.830  10.193  0.3534 -1.6086  1.2397
 3222TIP3   OH231156   3.583   1.025   6.392  0.7154  0.7032  0.1826
 3222TIP3    H131157   3.548   1.079   6.321  0.2279 -0.5764 -0.5782
 3222TIP3    H231158   3.675   1.051   6.399  0.4882  1.6411 -0.1368
 3223TIP3   OH231159   2.506   6.657   2.117 -0.1427 -0.2193  0.1220
 3223TIP3    H131160   2.592   6.656   2.158  0.4357 -1.5893 -1.0672
 3223TIP3    H231161   2.521   6.630   2.027 -1.8973 -1.1469  0.0589
 3224TIP3   OH231162   6.359   3.903   2.769  0.5022  0.7010  0.4772
 3224TIP3    H131163   6.445   3.917   2.729  0.1681  0.5157 -0.3302
 3224TIP3    H231164   6.298   3.945   2.708 -0.3117 -2.0193 -0.7429
 3225TIP3   OH231165   5.085   2.994  12.529 -0.0868  0.8897  0.4241
 3225TIP3    H131166   5.006   3.026  12.485 -0.4527  0.4810  0.7717
 3225TIP3    H231167   5.125   3.073  12.566 -1.2781  0.9234  1.7438
 3226TIP3   OH231168   4.085   4.008   5.617  0.1401  0.1439  0.3639
 3226TIP3    H131169   4.077   4.029   5.711 -0.4690  0.2833  0.2860
 3226TIP3    H231170   4.087   4.094   5.574  1.9565  0.1217  0.3546
 3227TIP3   OH231171   2.481   2.196  12.820 -0.5301 -0.1966  0.7267
 3227TIP3    H131172   2.411   2.167  12.760 -0.8622  0.1300  0.9531
 3227TIP3    H231173   2.561   2.190  12.768 -0.7457 -0.4558  0.4233
 3228TIP3   OH231174   2.378   6.524   5.373  0.4589  0.0130 -0.2759
 3228TIP3    H131175   2.452   6.476   5.410  0.8822 -0.5779 -1.8070
 3228TIP3    H231176   2.383   6.507   5.279 -2.0334 -0.6101 -0.3648
 3229TIP3   OH231177   3.298   1.335   2.642  0.4681  0.2701  0.1149
 3229TIP3    H131178   3.272   1.426   2.632  1.6907  1.0584  3.2171
 3229TIP3    H231179   3.256   1.290   2.568  0.7459  3.4526 -2.1805
 3230TIP3   OH231180   0.047   4.235  15.930 -0.2550 -0.1732 -0.0094
 3230TIP3    H131181   0.014   4.212  16.017 -1.6691  1.5408 -0.0303
 3230TIP3    H231182   0.080   4.152  15.894 -1.0825 -1.2314  1.5383
 3231TIP3   OH231183   6.739   1.927  13.578  0.0610  0.3564 -0.0773
 3231TIP3    H131184   6.821   1.881  13.592 -0.5045  0.0312  2.7268
 3231TIP3    H231185   6.691   1.873  13.515  1.0584 -0.6646  0.0143
 3232TIP3   OH231186   5.742   5.398   2.899 -0.1442 -0.0892 -0.0554
 3232TIP3    H131187   5.801   5.467   2.929  2.2594 -0.4107 -3.4321
 3232TIP3    H231188   5.782   5.317   2.928 -0.7100 -0.2159  0.3825
 3233TIP3   OH231189   0.082   1.403   5.103  0.1447  0.3114 -0.2653
 3233TIP3    H131190   0.150   1.413   5.170 -0.1726 -0.6314  0.2226
 3233TIP3    H231191   0.001   1.425   5.148  0.1390  1.7492 -0.9352
 3234TIP3   OH231192   4.038   4.264   6.118 -0.2812  0.0243 -0.3978
 3234TIP3    H131193   4.097   4.291   6.189  0.8796 -1.3626 -0.7930
 3234TIP3    H231194   3.951   4.265   6.158  0.0682  1.3741  0.4168
 3235TIP3   OH231195   4.602   2.386  13.832  0.0243  0.0113  0.3015
 3235TIP3    H131196   4.615   2.332  13.910 -2.0649 -1.9520 -0.6051
 3235TIP3    H231197   4.540   2.337  13.778 -0.0311  2.1660 -1.7850
 3236TIP3   OH231198   3.440   1.823   2.470 -0.7722  0.3645 -0.5790
 3236TIP3    H131199   3.436   1.893   2.406  1.5805  1.3922  0.2447
 3236TIP3    H231200   3.492   1.754   2.428 -2.5854 -0.7098 -1.1711
 3237TIP3   OH231201   6.627   3.369  14.589  0.2618 -0.8143  0.0228
 3237TIP3    H131202   6.719   3.352  14.572  0.2490  0.1153 -1.1388
 3237TIP3    H231203   6.623   3.463  14.608 -0.2594 -1.1269  1.5247
 3238TIP3   OH231204   5.743   3.411  15.477 -0.1699  0.2856  0.4962
 3238TIP3    H131205   5.685   3.486  15.462 -0.4706  0.0162  0.2851
 3238TIP3    H231206   5.686   3.335  15.467  0.3754 -0.0178 -0.4931
 3239TIP3   OH231207   4.462   1.831  11.730 -0.2901 -0.0246 -0.7658
 3239TIP3    H131208   4.523   1.784  11.786  0.0476  0.1243 -1.0078
 3239TIP3    H231209   4.494   1.921  11.729 -0.4557  0.0349 -0.9702
 3240TIP3   OH231210   5.668   6.500  12.331  0.3012 -0.6794 -0.0099
 3240TIP3    H131211   5.639   6.410  12.351  2.1810 -1.8046 -1.9344
 3240TIP3    H231212   5.755   6.506  12.370  0.8945 -0.3109 -1.3419
 3241TIP3   OH231213   6.540   0.082   4.030 -0.0187  1.1048 -0.0277
 3241TIP3    H131214   6.609   0.115   4.088 -0.8328  1.1724  0.9240
 3241TIP3    H231215   6.586   0.062   3.948  0.9431  2.1612  0.2243
 3242TIP3   OH231216   6.625   1.618  11.279 -0.0673 -0.3703 -0.4515
 3242TIP3    H131217   6.539   1.612  11.239  0.5435 -1.7179 -1.6362
 3242TIP3    H231218   6.683   1.647  11.209  0.6970 -0.9006 -0.0582
 3243TIP3   OH231219   1.335   1.652   2.031 -0.0633 -0.4262 -0.1196
 3243TIP3    H131220   1.353   1.745   2.020  0.3912 -0.5467 -0.4126
 3243TIP3    H231221   1.419   1.615   2.058 -0.1468 -0.8119 -0.3845
 3244TIP3   OH231222   5.161   5.570   6.090 -0.1663 -0.0175  0.1250
 3244TIP3    H131223   5.225   5.547   6.022  1.4454  1.5303  1.0312
 3244TIP3    H231224   5.116   5.488   6.108  1.9914 -1.3651 -0.1379
 3245TIP3   OH231225   3.257   4.668  16.341 -0.9104 -0.2366 -0.1270
 3245TIP3    H131226   3.325   4.604  16.317 -0.2487 -0.6246  2.4481
 3245TIP3    H231227   3.176   4.618  16.338 -0.9316 -0.1485 -1.8452
 3246TIP3   OH231228   3.654   5.333   2.463 -0.4491  0.7782  0.3572
 3246TIP3    H131229   3.664   5.241   2.485  1.6977  0.8688 -0.0045
 3246TIP3    H231230   3.623   5.374   2.544  0.7246  0.0509  1.2072
 3247TIP3   OH231231   0.180   2.550  17.038 -0.1636 -0.0325 -0.0992
 3247TIP3    H131232   0.104   2.601  17.009 -0.1459  0.7860  1.2182
 3247TIP3    H231233   0.142   2.472  17.078 -0.2791 -0.0006 -0.1456
 3248TIP3   OH231234   6.031   1.604  14.937  0.0979  0.7754  0.1091
 3248TIP3    H131235   6.080   1.586  15.018  3.1696  0.6282 -1.6159
 3248TIP3    H231236   5.990   1.521  14.914  1.6341 -0.0051  0.0556
 3249TIP3   OH231237   4.987   4.284   0.174  0.0857  0.3584  0.1176
 3249TIP3    H131238   4.922   4.342   0.133  1.5765  2.0318  0.0242
 3249TIP3    H231239   5.040   4.341   0.228  1.2846 -1.0331  0.4814
 3250TIP3   OH231240   6.130   3.521  16.807  0.0247 -0.2611  0.4941
 3250TIP3    H131241   6.034   3.520  16.805  0.0151 -0.6230  0.9417
 3250TIP3    H231242   6.152   3.514  16.900  0.4898 -2.2809  0.2856
 3251TIP3   OH231243   0.443   2.616  12.130 -0.4107  0.3474 -0.1241
 3251TIP3    H131244   0.528   2.661  12.136  0.5707 -1.4742  4.7313
 3251TIP3    H231245   0.465   2.529  12.098 -0.4635  0.0357  0.6601
 3252TIP3   OH231246   0.615   2.108  15.784 -0.0921 -0.8448  0.2406
 3252TIP3    H131247   0.592   2.037  15.725 -0.7204  0.0618 -0.6310
 3252TIP3    H231248   0.580   2.081  15.869 -0.9578 -1.2547 -0.2383
 3253TIP3   OH231249   0.659   1.698   5.994  0.6907  0.0465  0.1029
 3253TIP3    H131250   0.586   1.667   5.940  0.0512  0.4885  0.6949
 3253TIP3    H231251   0.716   1.621   6.004  2.2909  0.5604 -3.4316
 3254TIP3   OH231252   3.767   1.471  13.820 -0.0509 -0.4443  0.2671
 3254TIP3    H131253   3.693   1.528  13.843 -0.2934 -0.2972 -0.7986
 3254TIP3    H231254   3.756   1.456  13.726  1.5414 -0.0227 -0.0080
 3255TIP3   OH231255   6.551   3.508   3.165  0.2516 -0.1084 -0.4829
 3255TIP3    H131256   6.482   3.529   3.228 -0.0462  0.0625 -0.8615
 3255TIP3    H231257   6.504   3.491   3.083  0.6796  0.4000 -0.8453
 3256TIP3   OH231258   5.542   4.885  13.298  0.1696 -0.1898 -0.2851
 3256TIP3    H131259   5.458   4.838  13.302  1.1102 -1.9510  0.2517
 3256TIP3    H231260   5.523   4.964  13.248 -1.6231 -0.9537 -0.9239
 3257TIP3   OH231261   4.130   5.203  16.845 -0.0954  0.6274  0.6190
 3257TIP3    H131262   4.206   5.236  16.893 -0.4090  2.0371  0.2151
 3257TIP3    H231263   4.068   5.178  16.913  0.4267  0.2080  0.9465
 3258TIP3   OH231264   6.272   5.823  16.522 -0.0295 -0.3705 -0.0796
 3258TIP3    H131265   6.248   5.738  16.486 -0.6392 -0.1146 -0.2961
 3258TIP3    H231266   6.236   5.886  16.459  0.2317  0.0509  0.1875
 3259TIP3   OH231267   2.607   1.358  10.538 -0.6547 -0.0856  0.8105
 3259TIP3    H131268   2.611   1.356  10.442 -0.7440  0.0384  0.8050
 3259TIP3    H231269   2.697   1.379  10.565 -0.4812 -0.7368  0.7724
 3260TIP3   OH231270   6.701   3.946   5.258  0.3081 -0.4772  0.2501
 3260TIP3    H131271   6.625   4.005   5.257  0.5626 -0.1550 -0.2516
 3260TIP3    H231272   6.742   3.961   5.343  0.5438  0.2964  0.0083
 3261TIP3   OH231273   1.586   4.945  13.395  0.3045  0.6514  0.6528
 3261TIP3    H131274   1.616   4.894  13.320  0.6519  1.1635  0.4404
 3261TIP3    H231275   1.504   4.903  13.422  1.3200 -0.9334  1.4092
 3262TIP3   OH231276   4.432   2.185   4.465  0.1633 -0.3251  0.0820
 3262TIP3    H131277   4.522   2.155   4.456  0.5268  0.5949  0.5296
 3262TIP3    H231278   4.385   2.141   4.395  1.0575 -0.4297 -0.4695
 3263TIP3   OH231279   0.692   3.578  14.178 -0.2076 -0.1295 -0.1275
 3263TIP3    H131280   0.711   3.530  14.097 -0.0259 -0.0211 -0.1517
 3263TIP3    H231281   0.717   3.669  14.158  3.3736 -0.6696  1.1932
 3264TIP3   OH231282   0.835   0.052  10.909  0.8227 -0.1200  0.3594
 3264TIP3    H131283   0.781   0.012  10.840  1.1365 -2.1135  1.2050
 3264TIP3    H231284   0.816   0.146  10.902  0.4466 -0.2918 -2.0855
 3265TIP3   OH231285   2.532   3.932   4.293 -0.7102  0.0819 -0.2515
 3265TIP3    H131286   2.581   3.850   4.288  0.7108  0.7768  1.2720
 3265TIP3    H231287   2.445   3.911   4.257 -0.5189 -2.1790  0.4617
 3266TIP3   OH231288   1.167   2.101  16.968  0.4806 -0.0429 -0.7860
 3266TIP3    H131289   1.142   2.050  16.891  1.1878 -1.1008 -0.3340
 3266TIP3    H231290   1.163   2.040  17.041  0.0006  0.9030  0.0035
 3267TIP3   OH231291   0.594   6.553  17.080 -0.1431  0.0948  0.2968
 3267TIP3    H131292   0.523   6.515  17.133 -0.3129  1.1564  0.8610
 3267TIP3    H231293   0.550   6.618  17.025  0.4349  1.0476  0.9415
 3268TIP3   OH231294   2.345   0.842  11.821  0.6308  0.1072  0.5396
 3268TIP3    H131295   2.273   0.799  11.775  0.5568  0.5382  0.2426
 3268TIP3    H231296   2.423   0.792  11.796  0.1563 -1.9279  2.8481
 3269TIP3   OH231297   3.131   5.948  16.319  0.2997 -0.0345  0.2672
 3269TIP3    H131298   3.056   5.950  16.378 -1.9322 -3.7344 -2.0727
 3269TIP3    H231299   3.125   6.030  16.270 -2.6790 -0.4520 -0.2388
 3270TIP3   OH231300   6.297   6.583   1.791  0.2638 -0.1380 -0.1141
 3270TIP3    H131301   6.363   6.540   1.845 -1.5399 -1.4589  1.1987
 3270TIP3    H231302   6.240   6.627   1.854 -0.4354  0.4757 -1.1547
 3271TIP3   OH231303   3.724   6.033   6.633 -0.2249  0.2487 -0.0065
 3271TIP3    H131304   3.732   5.959   6.694  1.7360 -0.7084 -1.3466
 3271TIP3    H231305   3.646   6.012   6.581 -1.1855  0.4548  1.2809
 3272TIP3   OH231306   3.642   0.593   1.843 -0.3612  0.2374  0.0407
 3272TIP3    H131307   3.714   0.592   1.780 -0.2223 -1.5487  0.1710
 3272TIP3    H231308   3.564   0.577   1.790 -0.3119 -0.6870  0.2340
 3273TIP3   OH231309   3.569   1.277  15.347 -0.0528 -0.0719  0.6684
 3273TIP3    H131310   3.591   1.238  15.432  1.6795 -1.6253 -0.4203
 3273TIP3    H231311   3.592   1.210  15.283 -0.8125  1.2624 -1.0836
 3274TIP3   OH231312   0.170   6.603  12.204  0.0855  0.1821  0.4109
 3274TIP3    H131313   0.112   6.528  12.218 -0.0626  0.2173 -0.0050
 3274TIP3    H231314   0.150   6.632  12.115 -2.1163  2.6141  1.5611
 3275TIP3   OH231315   3.117   1.601  11.292 -0.4325 -0.0364 -0.6231
 3275TIP3    H131316   3.151   1.522  11.249 -0.9857 -0.1992 -0.7729
 3275TIP3    H231317   3.140   1.672  11.234 -2.4203 -0.4031 -1.9574
 3276TIP3   OH231318   1.266   1.124  14.074 -0.0981  0.5829 -0.4602
 3276TIP3    H131319   1.194   1.079  14.118  1.1179 -0.7228  0.2641
 3276TIP3    H231320   1.236   1.214  14.064 -2.2576 -0.1545 -1.1489
 3277TIP3   OH231321   4.749   5.413   0.938  0.0314 -0.1444  0.0642
 3277TIP3    H131322   4.826   5.461   0.970 -1.9165  1.8124  2.2568
 3277TIP3    H231323   4.735   5.345   1.003 -0.4179 -0.1049  0.0092
 3278TIP3   OH231324   5.947   1.141   5.078  0.2923 -0.2495 -0.2956
 3278TIP3    H131325   5.979   1.153   4.989  2.5042  0.1156  0.4633
 3278TIP3    H231326   5.882   1.210   5.090  0.2440 -0.0629 -1.5096
 3279TIP3   OH231327   6.591   6.129  15.211  0.3627 -0.4142  0.4152
 3279TIP3    H131328   6.503   6.133  15.173  0.1080  0.8162  1.0905
 3279TIP3    H231329   6.647   6.167  15.143 -0.1370  2.0944  1.2902
 3280TIP3   OH231330   2.839   1.646   5.281 -0.4598  0.1346 -0.1451
 3280TIP3    H131331   2.876   1.671   5.366  0.7623  1.0706 -0.9154
 3280TIP3    H231332   2.902   1.582   5.246 -0.8402 -0.0762 -0.4441
 3281TIP3   OH231333   4.605   1.067  16.247  0.4344 -0.5604 -0.2309
 3281TIP3    H131334   4.513   1.064  16.220  0.3246 -0.4789  0.1185
 3281TIP3    H231335   4.653   1.092  16.169  0.2354 -1.3006 -0.6002
 3282TIP3   OH231336   1.437   3.142  16.153  0.2002 -0.6060 -0.5157
 3282TIP3    H131337   1.401   3.054  16.146 -1.5801 -0.0892  1.3674
 3282TIP3    H231338   1.409   3.186  16.072 -1.3015 -0.9705 -0.2233
 3283TIP3   OH231339   0.964   2.992  13.925 -0.6644 -0.9846  0.5996
 3283TIP3    H131340   0.939   2.953  13.841  1.7472  0.1503 -0.7507
 3283TIP3    H231341   1.059   2.980  13.930 -0.1178  2.4497  1.2276
 3284TIP3   OH231342   0.923   6.503   5.737  0.7094 -0.5666 -0.3199
 3284TIP3    H131343   0.921   6.597   5.719 -0.9118 -0.6184 -0.5543
 3284TIP3    H231344   0.944   6.498   5.830 -2.8449  0.2878  0.7159
 3285TIP3   OH231345   4.313   0.119   1.100 -0.5914 -0.4823 -0.3354
 3285TIP3    H131346   4.349   0.059   1.165 -0.4130 -1.0723 -0.9580
 3285TIP3    H231347   4.307   0.203   1.145  0.2881 -0.6868  0.1945
 3286TIP3   OH231348   5.150   3.360  16.777 -0.2032  0.2093  0.0128
 3286TIP3    H131349   5.088   3.396  16.714 -1.3953  0.0086  1.0154
 3286TIP3    H231350   5.105   3.367  16.861 -0.4258 -3.2551  0.3451
 3287TIP3   OH231351   1.395   0.737  12.110  0.0720 -0.4131  0.7045
 3287TIP3    H131352   1.441   0.790  12.044  0.7005  0.8832  2.1416
 3287TIP3    H231353   1.390   0.650  12.070  0.6474  0.2706 -0.9556
 3288TIP3   OH231354   0.597   4.570  14.884 -0.7006 -0.3300 -0.2707
 3288TIP3    H131355   0.504   4.575  14.906 -0.5246  1.2688  0.2274
 3288TIP3    H231356   0.611   4.639  14.820  0.2017 -0.3995 -0.1641
 3289TIP3   OH231357   1.641   4.398   1.871 -0.4144 -0.6682  0.1965
 3289TIP3    H131358   1.661   4.392   1.964 -0.0998  0.9255  0.2617
 3289TIP3    H231359   1.575   4.467   1.865  0.9888  0.6610 -0.9102
 3290TIP3   OH231360   5.217   4.095   1.795  0.2216 -0.1947  0.1472
 3290TIP3    H131361   5.135   4.137   1.822  1.6742  1.0880  3.1048
 3290TIP3    H231362   5.204   4.002   1.815 -0.3684  0.0755  1.1213
 3291TIP3   OH231363   4.390   4.971   1.976 -0.4813 -0.3895  0.0394
 3291TIP3    H131364   4.387   5.003   2.066  0.7905  0.6179 -0.2430
 3291TIP3    H231365   4.471   4.919   1.972  1.1259  2.0138 -1.2311
 3292TIP3   OH231366   5.999   0.511  13.415 -0.2288  0.0685 -0.1950
 3292TIP3    H131367   6.024   0.550  13.499 -0.3683  2.1158 -1.0343
 3292TIP3    H231368   6.053   0.432  13.408  1.2947  0.9601  0.8945
 3293TIP3   OH231369   2.551   4.895  14.978 -0.0626 -0.4244 -0.1922
 3293TIP3    H131370   2.573   4.823  15.036  0.3131  0.8211  1.2914
 3293TIP3    H231371   2.555   4.858  14.890 -1.2122 -2.5287  0.5773
 3294TIP3   OH231372   0.997   6.032  10.849 -0.4686  0.5686 -0.3002
 3294TIP3    H131373   0.942   5.954  10.840  0.5796 -0.0769 -1.4696
 3294TIP3    H231374   0.958   6.080  10.922 -2.3961  0.0098 -0.8888
 3295TIP3   OH231375   5.366   5.648   6.244  0.3786 -0.2862 -0.1442
 3295TIP3    H131376   5.388   5.713   6.177  2.0881 -1.3660 -0.7126
 3295TIP3    H231377   5.282   5.612   6.216 -0.0081  0.8379 -0.4695
 3296TIP3   OH231378   1.764   2.057   4.366 -0.6355  0.0174 -0.0836
 3296TIP3    H131379   1.694   2.083   4.426 -0.6602  0.5207 -0.3297
 3296TIP3    H231380   1.762   2.122   4.297 -1.1587 -1.0357 -1.0943
 3297TIP3   OH231381   2.672   6.292  13.169  0.7754  0.2364  0.0611
 3297TIP3    H131382   2.676   6.197  13.153  1.3554  0.2704 -0.0107
 3297TIP3    H231383   2.590   6.304  13.218 -0.1913 -0.0777 -1.4098
 3298TIP3   OH231384   0.453   0.500  15.577 -0.3141  0.1312 -0.1255
 3298TIP3    H131385   0.400   0.520  15.499  0.7799  0.2756 -0.8639
 3298TIP3    H231386   0.462   0.405  15.576  0.5551  0.2113 -0.7750
 3299TIP3   OH231387   0.534   4.451   5.435  0.4283  0.5309  0.0876
 3299TIP3    H131388   0.517   4.444   5.341 -1.4223  0.7483  0.3705
 3299TIP3    H231389   0.510   4.541   5.457  0.5934  0.4034  0.8165
 3300TIP3   OH231390   4.749   0.370  15.233  0.0073 -0.0052  0.6063
 3300TIP3    H131391   4.728   0.302  15.169  1.4177  0.2919 -0.2267
 3300TIP3    H231392   4.800   0.324  15.301 -1.6170 -0.3506  1.6379
 3301TIP3   OH231393   2.934   3.846  14.281 -0.0375  0.7848  0.8974
 3301TIP3    H131394   2.971   3.763  14.310  1.3144  1.1383  0.2509
 3301TIP3    H231395   2.970   3.859  14.193 -1.0309  1.5731  0.5898
 3302TIP3   OH231396   6.785   6.346  17.175 -0.0041  0.3016  0.1842
 3302TIP3    H131397   6.840   6.424  17.172  1.0395 -0.4271 -0.0329
 3302TIP3    H231398   6.747   6.341  17.087 -1.6083  1.6125  0.7559
 3303TIP3   OH231399   6.340   0.430   6.724  0.7892  0.1811  0.4887
 3303TIP3    H131400   6.252   0.424   6.762  0.7945  3.0416  1.1917
 3303TIP3    H231401   6.333   0.389   6.638 -0.7021 -1.3528  1.2877
 3304TIP3   OH231402   0.355   0.682  12.000  0.4348 -0.4445  0.0652
 3304TIP3    H131403   0.364   0.730  11.917 -0.1320 -0.9719 -0.3128
 3304TIP3    H231404   0.349   0.590  11.973 -1.1790 -0.5221  0.5815
 3305TIP3   OH231405   5.604   4.298  12.839 -0.1330  0.7487  0.3240
 3305TIP3    H131406   5.689   4.324  12.874  0.3968 -0.0925 -0.3197
 3305TIP3    H231407   5.575   4.227  12.896  0.0841  0.3209 -0.0997
 3306TIP3   OH231408   3.627   1.654  12.073  0.0636 -0.6834 -0.3125
 3306TIP3    H131409   3.718   1.663  12.043  0.1885  0.1991  0.2860
 3306TIP3    H231410   3.630   1.679  12.165 -0.8680 -0.2095 -0.3998
 3307TIP3   OH231411   4.823   1.109  11.092 -0.4037 -0.0084 -0.1417
 3307TIP3    H131412   4.811   1.032  11.149  0.5171 -1.0933 -1.3468
 3307TIP3    H231413   4.838   1.072  11.005  0.2136  1.5472 -0.7303
 3308TIP3   OH231414   1.628   4.067   3.512  0.1877  0.0210 -0.3844
 3308TIP3    H131415   1.572   4.145   3.512  0.0906 -0.0494 -0.4513
 3308TIP3    H231416   1.712   4.099   3.545 -0.3308 -0.1960  1.2117
 3309TIP3   OH231417   4.229   0.059   2.064  0.3663  0.3052 -0.6594
 3309TIP3    H131418   4.249  -0.034   2.058 -0.6315  0.0668 -0.3938
 3309TIP3    H231419   4.226   0.078   2.158  0.7803  0.6644 -0.7111
 3310TIP3   OH231420   3.426   2.683   5.556 -0.2989 -0.1230 -0.2805
 3310TIP3    H131421   3.374   2.693   5.476  0.5363 -0.7981 -0.9291
 3310TIP3    H231422   3.374   2.626   5.613  0.6294 -2.6964 -1.8198
 3311TIP3   OH231423   3.385   1.801  16.232  0.0190 -0.0318  0.6354
 3311TIP3    H131424   3.376   1.764  16.145  0.5885  1.2513  0.0099
 3311TIP3    H231425   3.304   1.851  16.245  0.3061  0.4822  0.4797
 3312TIP3   OH231426   0.573   2.711  16.775 -0.0445  0.2025  0.7613
 3312TIP3    H131427   0.597   2.789  16.824  2.4325 -0.6015  0.9580
 3312TIP3    H231428   0.655   2.663  16.763 -1.2808 -1.8129 -0.3541
 3313TIP3   OH231429   3.190   0.619  15.908 -0.2304 -0.1247 -0.1380
 3313TIP3    H131430   3.180   0.533  15.948 -0.0583  0.1227  0.4364
 3313TIP3    H231431   3.265   0.658  15.952 -0.5397  0.4741 -0.1317
 3314TIP3   OH231432   5.392   6.510   0.503  0.3422 -0.6352  0.0326
 3314TIP3    H131433   5.476   6.551   0.522 -0.0894  0.5122 -0.3781
 3314TIP3    H231434   5.411   6.417   0.493  1.2450 -0.6697  1.7904
 3315TIP3   OH231435   6.063   3.447  11.372  0.5513 -0.2874 -0.0187
 3315TIP3    H131436   6.030   3.536  11.357 -0.3588  0.2532  3.9130
 3315TIP3    H231437   6.147   3.445  11.327  1.0346  2.9450  0.4868
 3316TIP3   OH231438   6.308   6.268  15.928  0.5352 -0.4657 -0.0748
 3316TIP3    H131439   6.321   6.178  15.957 -1.9790 -0.9143 -0.1434
 3316TIP3    H231440   6.295   6.317  16.010  2.1245 -0.0572 -0.0206
 3317TIP3   OH231441   5.567   6.343   5.064 -0.2377 -0.2726  0.1491
 3317TIP3    H131442   5.588   6.345   5.157 -2.1811 -0.2758  0.6363
 3317TIP3    H231443   5.490   6.287   5.059 -1.5237  1.5122 -1.1580
 3318TIP3   OH231444   4.200   3.836  16.043 -0.2169  0.1914 -0.0700
 3318TIP3    H131445   4.167   3.876  16.124  0.7822  0.6084  0.1404
 3318TIP3    H231446   4.129   3.846  15.980 -0.9902 -0.0987  0.7389
 3319TIP3   OH231447   4.207   3.187  11.907 -0.1369  0.0436 -0.3081
 3319TIP3    H131448   4.205   3.096  11.938 -0.7484  0.0263 -0.3840
 3319TIP3    H231449   4.213   3.179  11.812  1.2594  0.0951 -0.2449
 3320TIP3   OH231450   3.520   2.795  12.621  0.6890  0.4983  0.3827
 3320TIP3    H131451   3.483   2.785  12.533 -0.8426  1.9383  0.8212
 3320TIP3    H231452   3.506   2.887  12.642  2.0987  0.4419  1.6950
 3321TIP3   OH231453   0.180   6.799   3.048 -0.4892 -0.5021 -0.6811
 3321TIP3    H131454   0.085   6.792   3.057 -0.7659  1.2929 -1.8082
 3321TIP3    H231455   0.208   6.712   3.019 -1.4285 -1.7858  1.9690
 3322TIP3   OH231456   5.076   5.674   4.397 -0.4980  0.3598  0.1521
 3322TIP3    H131457   5.147   5.716   4.446 -0.3945  0.3663 -0.0014
 3322TIP3    H231458   5.090   5.702   4.306 -1.8111  1.9560  0.3848
 3323TIP3   OH231459   1.596   5.000  16.411 -0.2593 -0.5378  0.7681
 3323TIP3    H131460   1.520   4.987  16.468 -2.3102 -1.7661 -2.0302
 3323TIP3    H231461   1.659   4.933  16.440 -1.4498 -1.4646  1.2919
 3324TIP3   OH231462   3.067   2.509   5.485 -0.2858  0.0494 -0.4760
 3324TIP3    H131463   3.116   2.484   5.563 -2.0068 -0.6494  0.4308
 3324TIP3    H231464   3.116   2.470   5.413 -0.0852 -1.5384  0.4783
 3325TIP3   OH231465   3.610   2.367  15.663 -0.0819  0.5244 -0.2367
 3325TIP3    H131466   3.517   2.391  15.665  0.4219  2.7055  1.3606
 3325TIP3    H231467   3.641   2.396  15.577 -0.4736  1.7405  0.0033
 3326TIP3   OH231468   1.728   3.868  15.331  0.0644  0.4405  0.1817
 3326TIP3    H131469   1.676   3.922  15.271 -0.4125  1.1211  1.1758
 3326TIP3    H231470   1.786   3.931  15.374  1.6309 -0.2767 -0.7773
 3327TIP3   OH231471   3.431   2.833   3.260 -0.4241 -0.0064  0.1911
 3327TIP3    H131472   3.377   2.766   3.219 -0.7159  0.7311 -0.6662
 3327TIP3    H231473   3.500   2.852   3.196  0.0068  0.0911  0.6743
 3328TIP3   OH231474   3.310   1.662  14.091  0.4428 -0.0661  0.7659
 3328TIP3    H131475   3.285   1.748  14.127  1.5427  0.2497  0.7940
 3328TIP3    H231476   3.251   1.649  14.017 -0.7461  0.0269  1.6663
 3329TIP3   OH231477   4.207   1.188  15.322  0.4187 -0.0756  0.4812
 3329TIP3    H131478   4.247   1.102  15.304 -1.7060 -1.1376  0.5263
 3329TIP3    H231479   4.260   1.250  15.273  0.9112 -1.6617 -1.0894
 3330TIP3   OH231480   0.771   3.425   0.634  0.0797 -0.0741 -0.5112
 3330TIP3    H131481   0.682   3.401   0.661 -0.2822  1.2908 -0.4272
 3330TIP3    H231482   0.824   3.411   0.712 -0.5997  1.8717  0.3481
 3331TIP3   OH231483   1.856   5.990   3.170 -0.2350 -0.0699  0.0210
 3331TIP3    H131484   1.763   6.010   3.159  0.3164  1.6247 -2.5135
 3331TIP3    H231485   1.900   6.074   3.154  1.8820 -1.5666 -2.9071
 3332TIP3   OH231486   0.827   6.568  16.287 -0.6145  0.3771  0.3992
 3332TIP3    H131487   0.831   6.534  16.376  2.1070 -0.1128  0.1659
 3332TIP3    H231488   0.807   6.661  16.298  1.8165  0.8359  1.7611
 3333TIP3   OH231489   1.566   4.570   2.292  0.1356 -0.1501  0.8079
 3333TIP3    H131490   1.599   4.650   2.250 -0.6585 -1.0302 -1.7047
 3333TIP3    H231491   1.477   4.593   2.318  0.5629  0.3443  1.8703
 3334TIP3   OH231492   3.016   2.071  12.781  0.3829 -0.6401  0.2824
 3334TIP3    H131493   3.099   2.031  12.754 -0.7815 -2.0684 -1.4006
 3334TIP3    H231494   3.014   2.155  12.735  0.3514 -1.1697 -0.7191
 3335TIP3   OH231495   5.611   0.934  15.712  0.2701  0.1292  0.3425
 3335TIP3    H131496   5.551   0.862  15.696  0.9876 -0.3075 -0.4732
 3335TIP3    H231497   5.684   0.894  15.760  1.9525 -0.3402 -2.3894
 3336TIP3   OH231498   6.619   1.439   4.172  0.1912  0.3275  0.5177
 3336TIP3    H131499   6.524   1.452   4.171  0.1852  0.4524 -1.4574
 3336TIP3    H231500   6.654   1.524   4.197 -0.1969  0.8864 -0.7413
 3337TIP3   OH231501   5.942   6.478  10.990 -0.4380 -0.3039  0.0207
 3337TIP3    H131502   5.950   6.445  11.080 -0.9726 -1.5728 -0.3772
 3337TIP3    H231503   5.973   6.568  10.995  0.9015 -0.7963  1.1962
 3338TIP3   OH231504   1.484   1.929  12.086  0.1591  0.2517 -0.3969
 3338TIP3    H131505   1.411   1.875  12.056 -0.4558  0.7601  0.1658
 3338TIP3    H231506   1.522   1.964  12.005 -0.4567  0.2867 -0.6758
 3339TIP3   OH231507   5.414   6.193  14.203 -0.6993 -0.5319 -0.0515
 3339TIP3    H131508   5.336   6.159  14.159  0.9119 -2.4243 -1.6429
 3339TIP3    H231509   5.465   6.233  14.133 -0.2965  0.8789  1.0059
 3340TIP3   OH231510   2.873   3.746   0.001  0.2991 -0.2637 -0.1417
 3340TIP3    H131511   2.863   3.812   0.069  0.4359  0.8475 -1.1635
 3340TIP3    H231512   2.864   3.662   0.047 -0.4258  0.4632  1.0930
 3341TIP3   OH231513   3.753   3.091   1.572 -0.0421  0.0095 -0.7539
 3341TIP3    H131514   3.715   3.170   1.534 -0.8071  0.0689  0.0932
 3341TIP3    H231515   3.730   3.095   1.665 -0.1438 -1.2280 -0.6972
 3342TIP3   OH231516   4.588   2.059   5.435  0.2262 -0.3438 -0.0778
 3342TIP3    H131517   4.505   2.060   5.483  0.0756  0.6678 -0.3330
 3342TIP3    H231518   4.571   2.006   5.357 -0.2836  0.1298 -0.2924
 3343TIP3   OH231519   5.688   4.264   2.918 -0.3441 -0.1419  0.1155
 3343TIP3    H131520   5.613   4.211   2.945  0.4681 -1.5292 -0.2181
 3343TIP3    H231521   5.680   4.271   2.823  1.6490 -3.2572 -0.4571
 3344TIP3   OH231522   1.251   1.550   2.626  0.1593 -0.0974  0.0859
 3344TIP3    H131523   1.211   1.628   2.588  0.0069  0.2100  0.8540
 3344TIP3    H231524   1.294   1.507   2.552  1.6244  1.5456 -0.1008
 3345TIP3   OH231525   1.112   3.128  11.579  0.2339  0.4909 -0.1999
 3345TIP3    H131526   1.157   3.206  11.548  0.1949  0.7118  0.2989
 3345TIP3    H231527   1.132   3.124  11.673 -1.2791  0.9416  0.1697
 3346TIP3   OH231528   4.910   4.847   2.601  0.4251  0.0219  0.7352
 3346TIP3    H131529   4.943   4.930   2.637  1.1171 -0.2121  0.6675
 3346TIP3    H231530   4.840   4.821   2.660 -0.0144  0.8100  0.5846
 3347TIP3   OH231531   3.821   3.926   2.178 -0.3655  0.3013 -0.3307
 3347TIP3    H131532   3.885   3.958   2.114  0.9370  1.4425  1.4333
 3347TIP3    H231533   3.791   3.842   2.143  1.4703  0.1520 -1.6685
 3348TIP3   OH231534   1.057   1.835  11.208 -0.6763 -0.6883 -0.6711
 3348TIP3    H131535   1.065   1.759  11.266  0.2129  0.7573  1.2017
 3348TIP3    H231536   1.062   1.910  11.267 -1.8190  0.8424 -2.4373
 3349TIP3   OH231537   0.387   0.119  14.446  0.0140  0.1814  0.7204
 3349TIP3    H131538   0.382   0.204  14.402 -0.8940 -0.4855 -0.5583
 3349TIP3    H231539   0.426   0.137  14.531  2.2342  1.5130 -0.4942
 3350TIP3   OH231540   2.263   5.750  11.719  0.2689 -0.1641 -0.1942
 3350TIP3    H131541   2.298   5.762  11.807  0.3075  2.2155 -0.4708
 3350TIP3    H231542   2.169   5.768  11.728 -0.1476 -2.0542 -0.2924
 3351TIP3   OH231543   2.839   5.319  16.227 -0.4468  0.0446  0.3362
 3351TIP3    H131544   2.894   5.396  16.212  2.4838 -1.6757  1.5387
 3351TIP3    H231545   2.755   5.355  16.257 -0.3662  2.8253 -2.2554
 3352TIP3   OH231546   5.167   1.081  16.482 -0.6053 -0.2119 -0.0324
 3352TIP3    H131547   5.114   1.138  16.537 -0.6488 -0.6764  0.4135
 3352TIP3    H231548   5.223   1.141  16.432 -0.3092  0.1991  0.7847
 3353TIP3   OH231549   5.492   2.381   1.403 -0.4386  0.1366 -0.1144
 3353TIP3    H131550   5.461   2.407   1.490 -2.8337  0.8449 -1.1048
 3353TIP3    H231551   5.424   2.321   1.371 -2.3322  3.5692 -3.3478
 3354TIP3   OH231552   4.476   3.024  13.765 -0.0400  0.6552 -0.5125
 3354TIP3    H131553   4.417   3.058  13.833  0.8288  0.5392  0.3174
 3354TIP3    H231554   4.446   2.934  13.751  0.0715  0.5183  0.0752
 3355TIP3   OH231555   6.535   0.196   5.995  0.4103 -0.2642 -0.6128
 3355TIP3    H131556   6.518   0.120   6.051  0.6564 -0.0052 -0.1721
 3355TIP3    H231557   6.510   0.169   5.907 -1.4479 -0.1783 -0.1436
 3356TIP3   OH231558   6.267   0.876  16.870 -0.0283 -0.2359  0.8631
 3356TIP3    H131559   6.236   0.923  16.947 -0.7196  1.3905 -0.3470
 3356TIP3    H231560   6.231   0.924  16.796 -1.1130 -2.9227 -0.4898
 3357TIP3   OH231561   4.681   4.486  16.942  0.4255 -0.0898 -0.1226
 3357TIP3    H131562   4.765   4.510  16.903  0.2158 -0.3795 -0.7653
 3357TIP3    H231563   4.630   4.450  16.869 -1.0859  2.1472 -0.2543
 3358TIP3   OH231564   2.437   1.355  13.487 -0.4184  0.0277  0.0842
 3358TIP3    H131565   2.385   1.316  13.417 -1.8532  0.0099  1.1259
 3358TIP3    H231566   2.493   1.418  13.442  1.1970 -2.3322 -1.5246
 3359TIP3   OH231567   4.048   3.031  15.076  0.2473 -0.3367  0.0649
 3359TIP3    H131568   4.032   3.105  15.134 -1.1159  0.5696 -1.3920
 3359TIP3    H231569   3.995   2.960  15.113 -0.2415  0.0883  0.1922
 3360TIP3   OH231570   0.399   0.895   2.541 -0.1644 -0.1807 -0.4373
 3360TIP3    H131571   0.491   0.921   2.551  0.0460 -0.8596 -0.5470
 3360TIP3    H231572   0.363   0.901   2.629  0.1664 -0.5667 -0.2714
 3361TIP3   OH231573   5.764   0.184   2.492  0.2222  0.1511 -0.0606
 3361TIP3    H131574   5.685   0.216   2.535  0.3378  1.7117 -0.9528
 3361TIP3    H231575   5.832   0.248   2.513  1.7873 -2.0259  2.1213
 3362TIP3   OH231576   2.618   5.389   3.094  0.3972 -0.5384  0.1357
 3362TIP3    H131577   2.702   5.434   3.084  1.2564 -1.9450  0.7104
 3362TIP3    H231578   2.595   5.401   3.186  0.6632 -1.2910  0.3083
 3363TIP3   OH231579   4.226   4.938  17.157 -0.1889  0.2166  0.5342
 3363TIP3    H131580   4.241   4.971  17.245  1.2487 -0.2700  0.4979
 3363TIP3    H231581   4.298   4.974  17.105  0.4892 -1.5727  0.1474
 3364TIP3   OH231582   2.121   0.134  10.792  0.1271  0.1733  0.3686
 3364TIP3    H131583   2.156   0.105  10.709  0.1808  1.1342  0.0370
 3364TIP3    H231584   2.180   0.204  10.820 -2.4436  3.2271 -1.1561
 3365TIP3   OH231585   1.272   0.447   3.898 -0.2662  0.5392 -0.2175
 3365TIP3    H131586   1.250   0.541   3.897 -0.4131  0.5051 -0.0995
 3365TIP3    H231587   1.249   0.417   3.985 -2.1221 -0.0546 -0.8621
 3366TIP3   OH231588   0.056   3.831   4.144  0.4521 -0.4797  0.2420
 3366TIP3    H131589  -0.033   3.796   4.137 -0.4481  1.9340 -2.6744
 3366TIP3    H231590   0.101   3.799   4.065  1.0020  1.1563 -0.1504
 3367TIP3   OH231591   1.541   6.333   3.628 -0.8269  0.1958  0.6072
 3367TIP3    H131592   1.509   6.421   3.644 -0.7025  0.0231  1.9508
 3367TIP3    H231593   1.633   6.345   3.604 -1.2252  0.5234 -0.8031
 3368TIP3   OH231594   4.776   6.509   2.050 -0.0506  0.5345 -0.0445
 3368TIP3    H131595   4.836   6.473   2.115  0.8564  1.2444 -0.4627
 3368TIP3    H231596   4.827   6.578   2.007 -0.4561 -0.2783 -1.8799
 3369TIP3   OH231597   5.501   5.167  13.547 -0.1678 -0.2002 -0.1650
 3369TIP3    H131598   5.475   5.182  13.456  1.0434 -1.3052 -0.7236
 3369TIP3    H231599   5.419   5.148  13.592 -0.9344  1.4491 -0.7667
 3370TIP3   OH231600   2.226   2.719   4.304  0.1503  0.4400 -0.7869
 3370TIP3    H131601   2.208   2.813   4.314  1.5286  0.7054 -0.5803
 3370TIP3    H231602   2.257   2.710   4.214  0.9727  0.3660 -0.5060
 3371TIP3   OH231603   1.210   1.871   1.556  0.0527  0.5787  0.3116
 3371TIP3    H131604   1.273   1.871   1.484 -0.3452  1.0319 -0.0460
 3371TIP3    H231605   1.126   1.891   1.514 -0.2898  0.2063  0.8113
 3372TIP3   OH231606   4.596   0.848   0.816 -0.0353 -0.2437  0.4113
 3372TIP3    H131607   4.563   0.759   0.814  0.3192 -0.3712  0.2922
 3372TIP3    H231608   4.582   0.881   0.727 -0.5776 -0.0285  0.5708
 3373TIP3   OH231609   3.416   2.882   5.899 -0.2675  0.1074  0.1289
 3373TIP3    H131610   3.392   2.954   5.957 -0.8295 -0.4843  0.6390
 3373TIP3    H231611   3.374   2.805   5.937  2.4057 -0.9994  1.0856
 3374TIP3   OH231612   3.413   0.794  12.447 -0.2705  0.5937  0.2785
 3374TIP3    H131613   3.359   0.872  12.459  0.1238  0.6073  2.5950
 3374TIP3    H231614   3.445   0.775  12.535  0.7273 -1.4108 -0.4715
 3375TIP3   OH231615   6.285   0.042   3.578 -0.6769  0.4728 -0.0949
 3375TIP3    H131616   6.223   0.088   3.521 -2.1923 -0.3289  0.8601
 3375TIP3    H231617   6.331   0.112   3.624  0.7746  1.1630 -2.3992
 3376TIP3   OH231618   4.649   4.913  10.931 -0.3081 -0.2030 -0.4677
 3376TIP3    H131619   4.684   4.836  10.887 -0.6789 -0.1845 -0.7967
 3376TIP3    H231620   4.676   4.986  10.877 -1.3597 -0.2338 -1.0567
 3377TIP3   OH231621   2.022   4.079   3.478  0.4074 -0.1974 -0.2910
 3377TIP3    H131622   2.022   4.040   3.565  1.6081  0.6403  0.1174
 3377TIP3    H231623   2.065   4.015   3.422 -0.8650 -0.9770 -0.4054
 3378TIP3   OH231624   4.493   1.226  11.479 -0.1317  0.1118 -0.2033
 3378TIP3    H131625   4.450   1.186  11.555  1.9573 -1.3939  0.2762
 3378TIP3    H231626   4.480   1.162  11.408  2.0500 -0.8891  0.2104
 3379TIP3   OH231627   4.311   3.470  14.514 -0.4781  0.1676  0.1508
 3379TIP3    H131628   4.259   3.455  14.593 -1.9436 -0.9229 -0.9658
 3379TIP3    H231629   4.308   3.565  14.502 -0.9647  0.2617  0.9208
 3380TIP3   OH231630   3.696   1.677  12.333  0.3997  0.2937  0.2108
 3380TIP3    H131631   3.761   1.623  12.377 -1.5662 -1.2002  1.4823
 3380TIP3    H231632   3.715   1.766  12.362  1.1954 -0.2538  1.4501
 3381TIP3   OH231633   2.600   3.757  11.047 -0.1748 -0.5279 -0.2244
 3381TIP3    H131634   2.530   3.703  11.011  0.1903  0.6135 -2.8663
 3381TIP3    H231635   2.680   3.707  11.031 -0.1055 -0.4705 -0.0604
 3382TIP3   OH231636   4.457   2.507   2.788  0.7638 -0.2008  0.2337
 3382TIP3    H131637   4.373   2.460   2.786  0.2764  0.5471  1.6305
 3382TIP3    H231638   4.521   2.440   2.810  0.5096 -0.7233 -0.5482
 3383TIP3   OH231639   5.000   1.954  13.791 -0.2956  0.3308  0.0136
 3383TIP3    H131640   4.984   1.974  13.699 -0.0978  1.2631  0.1717
 3383TIP3    H231641   4.914   1.960  13.832 -0.4187 -0.3045 -0.1466
 3384TIP3   OH231642   0.773   0.282  13.868  0.3161 -0.0666  0.3332
 3384TIP3    H131643   0.825   0.210  13.833  0.0002 -0.6346  0.9983
 3384TIP3    H231644   0.766   0.344  13.796  1.1913 -0.3722 -0.0282
 3385TIP3   OH231645   1.212   4.600  12.758  0.1641  0.3498  0.4877
 3385TIP3    H131646   1.264   4.595  12.678  2.4621  2.4930  1.7322
 3385TIP3    H231647   1.124   4.623  12.728  0.6331 -0.2648 -1.4795
 3386TIP3   OH231648   6.771   2.023  12.022 -0.3365 -0.1706  0.2756
 3386TIP3    H131649   6.835   2.082  12.062  0.0689  1.3296 -2.3776
 3386TIP3    H231650   6.822   1.950  11.988 -0.1613  0.3694 -0.6622
 3387TIP3   OH231651   6.559   5.677  15.815 -0.4233 -0.2835  0.5330
 3387TIP3    H131652   6.549   5.767  15.848 -1.2123 -1.3087  3.3891
 3387TIP3    H231653   6.470   5.647  15.800 -0.2638 -1.0560  1.0685
 3388TIP3   OH231654   6.062   1.443  13.614  0.7464 -0.2751  0.2146
 3388TIP3    H131655   6.032   1.459  13.525  1.7331 -3.5863 -0.8506
 3388TIP3    H231656   5.990   1.474  13.669 -0.0574  1.4942 -1.7053
 3389TIP3   OH231657   6.520   5.300   0.501  0.2022  0.2073 -0.0627
 3389TIP3    H131658   6.470   5.373   0.536  0.8098  0.6883 -0.1665
 3389TIP3    H231659   6.463   5.224   0.511 -0.2889  0.6300  0.3995
 3390TIP3   OH231660   3.740   4.117   0.118 -0.6196 -0.4517 -0.2948
 3390TIP3    H131661   3.783   4.202   0.126  0.2712 -0.9570  0.4798
 3390TIP3    H231662   3.730   4.086   0.208  0.0683 -1.6389 -0.6027
 3391TIP3   OH231663   5.386   2.508  11.516  0.8874 -0.0213  0.1647
 3391TIP3    H131664   5.465   2.495  11.463  2.0436  2.5289  1.0610
 3391TIP3    H231665   5.416   2.499  11.606 -0.7091 -2.7047  0.5195
 3392TIP3   OH231666   1.844   0.937  16.170  0.2678  0.3943  0.4757
 3392TIP3    H131667   1.768   0.881  16.157 -1.3142  2.6210 -0.4455
 3392TIP3    H231668   1.914   0.894  16.120 -1.2181 -0.1253 -1.2671
 3393TIP3   OH231669   0.320   3.536   1.562 -0.8510  0.5919 -0.2837
 3393TIP3    H131670   0.313   3.540   1.467 -0.4592  2.1806 -0.2668
 3393TIP3    H231671   0.411   3.509   1.578 -0.5887  1.4170 -0.3591
 3394TIP3   OH231672   4.366   5.106  11.659 -0.2684  0.2812  0.1928
 3394TIP3    H131673   4.427   5.146  11.722  0.2839 -1.0324  0.5319
 3394TIP3    H231674   4.314   5.046  11.712 -1.1903  0.6477 -0.2764
 3395TIP3   OH231675   1.168   1.959  16.741 -0.0258  0.2791 -0.4068
 3395TIP3    H131676   1.260   1.934  16.733 -0.3046 -1.0046  0.1160
 3395TIP3    H231677   1.152   2.014  16.665  0.3978 -2.0109 -2.2728
 3396TIP3   OH231678   4.873   2.497   4.673 -0.3206 -0.0797 -0.6886
 3396TIP3    H131679   4.783   2.511   4.702 -0.4715  0.1183 -1.2348
 3396TIP3    H231680   4.910   2.585   4.667 -0.3799 -0.0976 -1.3601
 3397TIP3   OH231681   3.972   5.812   3.527 -0.1031  0.2812  0.0883
 3397TIP3    H131682   3.970   5.903   3.499  1.7443  0.4906  0.4924
 3397TIP3    H231683   4.008   5.814   3.615  0.8782 -0.8829 -0.2413
 3398TIP3   OH231684   2.265   1.185  11.367  0.1019  0.0025 -0.2242
 3398TIP3    H131685   2.331   1.239  11.322 -0.2120  0.9003  0.3809
 3398TIP3    H231686   2.213   1.247  11.418 -0.6356 -0.8084  0.0366
 3399TIP3   OH231687   5.367   0.229  14.136 -0.0714  0.4800  0.2695
 3399TIP3    H131688   5.271   0.231  14.130 -0.0343 -0.9188 -3.6571
 3399TIP3    H231689   5.393   0.321  14.128 -1.1321  0.6490 -2.3698
 3400TIP3   OH231690   4.184   0.907  11.566  0.2004  0.7477 -0.3309
 3400TIP3    H131691   4.123   0.843  11.603 -0.6935  1.5534 -0.3548
 3400TIP3    H231692   4.202   0.875  11.478  1.0084 -0.2925  0.1932
 3401TIP3   OH231693   3.660   2.412   6.310  0.1331  0.5337  0.0390
 3401TIP3    H131694   3.592   2.461   6.263  0.9244  0.6932 -0.9800
 3401TIP3    H231695   3.678   2.465   6.388 -1.5020  0.0499  0.7852
 3402TIP3   OH231696   0.948   6.335  14.230 -0.8973 -0.7704 -0.4775
 3402TIP3    H131697   1.040   6.351  14.251 -1.6225  1.4427  1.3568
 3402TIP3    H231698   0.911   6.300  14.311 -2.2073  0.9167 -0.3142
 3403TIP3   OH231699   6.573   3.675  12.484 -0.0425  0.0462  0.0822
 3403TIP3    H131700   6.553   3.586  12.456 -2.0032  0.9469 -1.6581
 3403TIP3    H231701   6.531   3.684  12.570  0.9871 -0.9412  0.7253
 3404TIP3   OH231702   2.606   1.849   1.526 -0.0803 -0.2608  0.0583
 3404TIP3    H131703   2.662   1.848   1.604  2.1794  0.9249 -1.4468
 3404TIP3    H231704   2.630   1.770   1.477 -0.6629 -0.4097  0.0042
 3405TIP3   OH231705   5.175   5.102   0.704 -0.1474  0.6194  0.0346
 3405TIP3    H131706   5.153   5.178   0.759 -0.5668  2.5828 -2.5989
 3405TIP3    H231707   5.269   5.091   0.714  0.5577  3.5937 -1.7234
 3406TIP3   OH231708   0.935   2.349   5.927 -0.1195  0.3505  0.2426
 3406TIP3    H131709   0.915   2.426   5.874 -0.1943 -1.2135 -2.1814
 3406TIP3    H231710   0.850   2.317   5.956 -0.2148  0.2974 -0.0930
 3407TIP3   OH231711   0.948   0.483   5.083  0.2408  0.5480 -0.5470
 3407TIP3    H131712   0.860   0.505   5.052  0.8925  1.8467 -1.5651
 3407TIP3    H231713   0.980   0.418   5.020 -0.4357 -0.9178  0.5616
 3408TIP3   OH231714   1.008   6.428   3.165 -0.5727 -0.0367 -0.0283
 3408TIP3    H131715   1.070   6.501   3.174 -0.5185 -0.0437 -0.3233
 3408TIP3    H231716   0.929   6.458   3.211 -0.1356 -0.2860  0.8957
 3409TIP3   OH231717   4.597   1.582  16.745  0.2305  0.2377  0.1936
 3409TIP3    H131718   4.652   1.606  16.670 -1.6954  0.3793 -1.2460
 3409TIP3    H231719   4.532   1.521  16.710  0.9449 -1.9654  2.3760
 3410TIP3   OH231720   2.403   2.599   4.530 -0.1941  0.6679  0.1008
 3410TIP3    H131721   2.446   2.549   4.461 -1.4490  0.6304 -0.6957
 3410TIP3    H231722   2.314   2.612   4.498 -0.8444  0.5722  1.7548
 3411TIP3   OH231723   2.961   0.837  17.162  1.0154 -0.8189  0.4524
 3411TIP3    H131724   2.934   0.853  17.072  0.3882  0.6506  0.8728
 3411TIP3    H231725   2.887   0.791  17.202  0.1096  0.9802  0.9304
 3412TIP3   OH231726   0.641   4.894  16.960  0.0917  0.4670 -0.4460
 3412TIP3    H131727   0.623   4.987  16.976  0.4332  0.5369 -0.4754
 3412TIP3    H231728   0.646   4.855  17.047 -0.5699  0.3766 -0.4439
 3413TIP3   OH231729   4.201   0.110   3.363  0.0147 -0.0427  0.5066
 3413TIP3    H131730   4.238   0.047   3.301 -1.0752 -0.4376  0.2281
 3413TIP3    H231731   4.265   0.181   3.366  1.0429 -0.9294  0.4551
 3414TIP3   OH231732   0.699   0.307  15.805  0.3065  0.6223 -0.3539
 3414TIP3    H131733   0.722   0.396  15.833 -0.7138  0.1975  2.1489
 3414TIP3    H231734   0.782   0.268  15.777  0.7278  2.3962 -1.7499
 3415TIP3   OH231735   5.357   4.899  17.190  0.2931  0.8080  0.3691
 3415TIP3    H131736   5.376   4.912  17.097 -0.4566 -1.7566 -0.2108
 3415TIP3    H231737   5.413   4.826  17.217  1.2684  2.1511  2.2716
 3416TIP3   OH231738   0.359   6.631  11.501  0.5260 -0.0221 -0.6036
 3416TIP3    H131739   0.298   6.692  11.459 -0.0986 -0.1989  0.0245
 3416TIP3    H231740   0.445   6.671  11.489  0.0617  1.4178  0.4875
 3417TIP3   OH231741   2.056   1.673  12.565  0.3528  0.0161 -0.6469
 3417TIP3    H131742   2.108   1.750  12.541 -1.2120  1.6840  0.9729
 3417TIP3    H231743   2.111   1.625  12.626 -0.0895  2.0807  1.5353
 3418TIP3   OH231744   5.682   2.233  11.029 -0.4422  0.4741 -0.3938
 3418TIP3    H131745   5.661   2.140  11.025 -2.1993  0.8748 -1.1384
 3418TIP3    H231746   5.777   2.237  11.013 -0.2153 -1.2078  0.3319
 3419TIP3   OH231747   4.942   0.960   6.268 -0.0488 -0.1941  0.0311
 3419TIP3    H131748   4.890   0.887   6.236 -0.9919  0.7419 -0.6276
 3419TIP3    H231749   4.902   0.984   6.351 -0.7893  0.5994 -0.5301
 3420TIP3   OH231750   4.369   0.912  14.354 -0.0787 -0.2749  0.1305
 3420TIP3    H131751   4.309   0.959  14.297  0.9813  0.6662 -0.2313
 3420TIP3    H231752   4.331   0.824  14.360 -2.0633  0.5544  0.7720
 3421TIP3   OH231753   0.265   0.259   0.142  0.1151 -0.1484  0.0614
 3421TIP3    H131754   0.321   0.251   0.065 -0.0818 -0.7668 -0.0186
 3421TIP3    H231755   0.185   0.301   0.110 -0.5382 -1.6623 -0.3685
 3422TIP3   OH231756   1.970   3.084   1.784  0.2486 -0.3250  0.2564
 3422TIP3    H131757   1.889   3.106   1.829 -0.1940 -1.8527  0.2740
 3422TIP3    H231758   1.995   3.164   1.737 -0.6688  0.4869  1.1312
 3423TIP3   OH231759   2.536   3.301  14.956  0.4123 -0.2636  0.2583
 3423TIP3    H131760   2.619   3.260  14.928  1.7793 -0.0908  3.5539
 3423TIP3    H231761   2.472   3.229  14.952  1.3997 -1.1834  0.3611
 3424TIP3   OH231762   2.127   3.416   0.752  0.4677  0.0139  0.2436
 3424TIP3    H131763   2.175   3.335   0.734  0.2791 -0.4712  1.7768
 3424TIP3    H231764   2.190   3.485   0.736  1.3452 -0.5639  1.0677
 3425TIP3   OH231765   0.960   6.514  15.705  0.5311  0.3291  0.9433
 3425TIP3    H131766   1.003   6.455  15.642  1.4405  0.5716  1.3099
 3425TIP3    H231767   0.882   6.466  15.733 -0.1363  0.3919 -0.6645
 3426TIP3   OH231768   6.458   6.617  14.845 -0.8325 -0.1110 -0.2997
 3426TIP3    H131769   6.370   6.612  14.882  0.0256 -1.9155  1.7241
 3426TIP3    H231770   6.447   6.587  14.755 -2.1969 -0.9770  0.1179
 3427TIP3   OH231771   5.685   6.110   2.441  0.4142 -0.0651 -0.0231
 3427TIP3    H131772   5.748   6.102   2.512  0.0096 -3.2233  0.1119
 3427TIP3    H231773   5.708   6.192   2.397  1.8056  1.0561  2.6227
 3428TIP3   OH231774   1.818   6.447  11.088 -0.2758 -0.4793 -0.2874
 3428TIP3    H131775   1.736   6.488  11.061  0.0485  0.0312 -0.5271
 3428TIP3    H231776   1.792   6.363  11.126 -0.8362 -0.7462 -1.2297
 3429TIP3   OH231777   2.453   3.408  12.694  0.1440 -0.0432  0.3271
 3429TIP3    H131778   2.390   3.405  12.621  0.0559  0.0576  0.3981
 3429TIP3    H231779   2.538   3.411  12.652  0.1416 -0.9910  0.2307
 3430TIP3   OH231780   4.511   3.100   6.990 -0.0595 -0.4770 -0.3933
 3430TIP3    H131781   4.550   3.183   6.965 -0.6826 -0.1253 -0.2132
 3430TIP3    H231782   4.582   3.051   7.031  0.4565 -0.2669 -1.0300
 3431TIP3   OH231783   6.597   4.558   2.635 -0.1151 -0.2027 -0.1123
 3431TIP3    H131784   6.618   4.623   2.702 -0.5933 -0.5062  0.3350
 3431TIP3    H231785   6.560   4.609   2.563 -1.4753 -0.0769  0.6568
 3432TIP3   OH231786   1.045   3.893   3.281  0.4826  0.2394  0.1487
 3432TIP3    H131787   0.992   3.815   3.299 -0.3533  0.7330 -0.1944
 3432TIP3    H231788   1.085   3.914   3.366  0.7882 -0.6080  0.2270
 3433TIP3   OH231789   2.090   0.408   3.444  0.0130 -0.3848  0.0752
 3433TIP3    H131790   2.135   0.372   3.520 -0.6145 -1.2374  0.0538
 3433TIP3    H231791   2.132   0.493   3.429  1.4047 -1.0220  0.2336
 3434TIP3   OH231792   3.070   4.078  11.504 -0.0246 -0.0477  0.2025
 3434TIP3    H131793   3.116   4.132  11.567  1.7669 -1.0685 -0.1566
 3434TIP3    H231794   3.068   4.130  11.424  1.5412 -0.3882 -0.0946
 3435TIP3   OH231795   2.456   1.233  16.598 -0.6978  0.0962  1.0022
 3435TIP3    H131796   2.471   1.303  16.534 -0.7142 -0.5231  0.3109
 3435TIP3    H231797   2.363   1.213  16.590 -0.0643 -2.4923 -1.4608
 3436TIP3   OH231798   2.190   4.365   2.013  0.0291 -0.1914 -0.2017
 3436TIP3    H131799   2.163   4.431   2.078  0.4659 -1.0212  0.8401
 3436TIP3    H231800   2.133   4.290   2.030  0.3465 -0.5242 -0.5971
 3437TIP3   OH231801   2.519   3.904  14.874 -0.5950 -0.5568 -0.9961
 3437TIP3    H131802   2.602   3.952  14.869 -0.4471 -0.6800  0.0488
 3437TIP3    H231803   2.537   3.832  14.935 -1.2574 -1.0233 -1.3423
 3438TIP3   OH231804   5.891   0.567   1.445  0.5465 -0.2907 -0.2963
 3438TIP3    H131805   5.942   0.486   1.450 -0.3447 -0.8423  0.2620
 3438TIP3    H231806   5.861   0.583   1.534  0.7979  0.7249 -0.3797
 3439TIP3   OH231807   1.774   6.795   4.840  0.2210  0.2991  0.2109
 3439TIP3    H131808   1.741   6.818   4.753  0.3803  0.8015  0.2805
 3439TIP3    H231809   1.778   6.878   4.886  2.0107  0.3198  0.0680
 3440TIP3   OH231810   0.245   1.791   4.344  0.0882  0.2712 -0.3674
 3440TIP3    H131811   0.233   1.713   4.289 -2.3059  0.8473 -0.7944
 3440TIP3    H231812   0.239   1.864   4.282 -0.3270  0.8635  0.3616
 3441TIP3   OH231813   6.350   2.515  13.303  0.2222  0.9946  0.6926
 3441TIP3    H131814   6.342   2.471  13.388  1.8909 -0.7148  0.0423
 3441TIP3    H231815   6.423   2.576  13.315  1.3515 -0.2145  0.1490
 3442TIP3   OH231816   0.890   6.763  14.563  0.7555  0.0877  0.3978
 3442TIP3    H131817   0.862   6.796  14.649  1.9962  1.4452  0.3266
 3442TIP3    H231818   0.984   6.752  14.571  0.8834  0.1912 -0.7906
 3443TIP3   OH231819   1.604   4.897   6.500 -0.0179  0.3180  0.0127
 3443TIP3    H131820   1.559   4.965   6.550  1.6953  1.9251 -0.4937
 3443TIP3    H231821   1.634   4.835   6.565 -1.0791  0.3414  0.5549
 3444TIP3   OH231822   0.419   3.252   5.016  0.1928 -0.4939  0.4639
 3444TIP3    H131823   0.443   3.162   5.039  0.7120 -0.0786  1.6198
 3444TIP3    H231824   0.337   3.268   5.063  0.5714 -0.0770  0.9972
 3445TIP3   OH231825   4.826   2.756  12.871 -0.8316 -0.7724  0.0318
 3445TIP3    H131826   4.899   2.798  12.826 -0.3814  1.1013  2.2988
 3445TIP3    H231827   4.792   2.693  12.808  2.0572 -0.9800 -1.4873
 3446TIP3   OH231828   0.790   0.021  12.868 -0.1925 -0.2305 -0.1420
 3446TIP3    H131829   0.807   0.070  12.788  2.3852  0.4408  0.7364
 3446TIP3    H231830   0.767  -0.067  12.838 -1.0201  0.4588 -1.6356
 3447TIP3   OH231831   0.880   0.148   0.983  0.4551 -0.3365 -0.0078
 3447TIP3    H131832   0.876   0.211   1.055 -2.8210  0.2518 -0.5683
 3447TIP3    H231833   0.966   0.163   0.944  1.5537  0.6528  2.5567
 3448TIP3   OH231834   4.915   5.178   4.289 -0.0742 -0.1396 -0.1045
 3448TIP3    H131835   4.844   5.155   4.350 -0.2676  1.6991  0.4395
 3448TIP3    H231836   4.876   5.243   4.231  0.3103 -1.3831 -1.8151
 3449TIP3   OH231837   1.353   5.484  16.369 -0.0899 -0.0057  0.0009
 3449TIP3    H131838   1.392   5.486  16.456 -1.1888  0.3149  0.5028
 3449TIP3    H231839   1.273   5.434  16.379  0.1736 -0.6628 -1.0142
 3450TIP3   OH231840   2.447   5.851   1.235 -0.0168 -0.1139  0.0328
 3450TIP3    H131841   2.404   5.774   1.271  2.9749 -1.3107  1.3062
 3450TIP3    H231842   2.471   5.825   1.146  1.7251 -1.0645  0.7292
 3451TIP3   OH231843   4.639   4.582  14.904 -0.0789  0.2026 -0.5305
 3451TIP3    H131844   4.724   4.574  14.861  0.2215  1.9638 -0.3270
 3451TIP3    H231845   4.611   4.491  14.918  1.3223 -0.4083 -1.4431
 3452TIP3   OH231846   0.737   1.813   2.903  0.0264 -0.4955 -0.0914
 3452TIP3    H131847   0.713   1.902   2.931 -0.2851 -1.2706  2.3454
 3452TIP3    H231848   0.728   1.815   2.807 -1.2503  1.7221 -0.0078
 3453TIP3   OH231849   3.866   3.094   5.364  0.4682 -0.3678 -0.3283
 3453TIP3    H131850   3.911   3.094   5.279 -0.8970 -0.0769 -1.0753
 3453TIP3    H231851   3.831   3.005   5.373  1.9173 -0.8757  0.6806
 3454TIP3   OH231852   5.419   6.593  16.118  0.5212 -0.4256  0.4787
 3454TIP3    H131853   5.369   6.534  16.063  1.7651  1.1290 -2.5284
 3454TIP3    H231854   5.412   6.556  16.206 -0.3333 -3.8955 -0.9166
 3455TIP3   OH231855   0.472   3.893   3.798 -0.4914  0.3083 -0.1660
 3455TIP3    H131856   0.514   3.808   3.785 -0.0300  0.7004 -1.3449
 3455TIP3    H231857   0.516   3.952   3.737  0.0197  1.6971  1.4489
 3456TIP3   OH231858   4.698   1.930   2.265 -0.5998  0.0607  0.2095
 3456TIP3    H131859   4.732   1.907   2.178 -1.9534 -1.6891  0.0890
 3456TIP3    H231860   4.756   2.000   2.295  1.3094 -0.8278 -1.1516
 3457TIP3   OH231861   6.716   6.072   4.904  0.0691  0.2472 -0.2575
 3457TIP3    H131862   6.657   6.033   4.839 -0.5864  0.6001  0.1105
 3457TIP3    H231863   6.800   6.080   4.859 -0.5237  1.0502 -1.2717
 3458TIP3   OH231864   2.504   4.767   4.916 -0.2400  0.8659 -0.1633
 3458TIP3    H131865   2.557   4.829   4.965  0.1474 -0.7007  1.4756
 3458TIP3    H231866   2.480   4.814   4.836  1.7347  2.3844  0.0775
 3459TIP3   OH231867   2.004   6.530  10.919 -0.2432 -0.3354  0.0493
 3459TIP3    H131868   2.083   6.576  10.945 -0.4037 -0.2965  0.4666
 3459TIP3    H231869   1.956   6.516  11.000 -0.1336 -1.3492 -0.0484
 3460TIP3   OH231870   4.688   3.989   6.582  0.0080 -0.6810  0.1163
 3460TIP3    H131871   4.597   4.008   6.559  0.4533  0.7997 -0.5618
 3460TIP3    H231872   4.692   3.894   6.588 -1.5595 -0.7715  0.0486
 3461TIP3   OH231873   2.036   4.598   2.546  0.6709 -0.1392 -0.2495
 3461TIP3    H131874   1.959   4.566   2.592  0.4236 -1.5199 -1.5226
 3461TIP3    H231875   2.106   4.594   2.610  0.1737 -1.2177  0.2643
 3462TIP3   OH231876   3.960   4.242   4.955 -0.1700 -0.0202 -0.0431
 3462TIP3    H131877   3.968   4.211   5.045 -0.5578  1.3590  0.4947
 3462TIP3    H231878   3.891   4.188   4.917  0.9700 -1.5736  0.0298
 3463TIP3   OH231879   0.106   6.802  16.419 -0.0759  0.2614  0.0327
 3463TIP3    H131880   0.180   6.768  16.470 -1.0398 -1.6799  0.2206
 3463TIP3    H231881   0.112   6.757  16.335  0.4324  2.0709 -0.9625
 3464TIP3   OH231882   4.691   0.134  16.645 -0.0277  0.6380  0.4257
 3464TIP3    H131883   4.756   0.171  16.586 -0.9011 -0.1360 -1.0832
 3464TIP3    H231884   4.664   0.052  16.603 -0.6208  0.0048  1.9517
 3465TIP3   OH231885   2.821   2.973  12.911  0.4477  0.0749 -0.4244
 3465TIP3    H131886   2.773   3.025  12.847 -1.7831 -1.0764  0.2484
 3465TIP3    H231887   2.817   2.883  12.878  1.7298 -0.1393 -0.0705
 3466TIP3   OH231888   5.444   4.268  13.322  0.1217 -0.5643  0.1809
 3466TIP3    H131889   5.410   4.303  13.240 -1.3255  1.7125  1.6641
 3466TIP3    H231890   5.534   4.242  13.300  0.3488  1.4892 -1.7459
 3467TIP3   OH231891   5.147   6.550  16.493  0.1225  0.3750  0.2910
 3467TIP3    H131892   5.058   6.530  16.522  0.3795 -0.1842  0.7111
 3467TIP3    H231893   5.203   6.517  16.563  0.7150 -0.2849 -0.4734
 3468TIP3   OH231894   0.714   6.244   6.350  0.0343 -0.1781 -0.5442
 3468TIP3    H131895   0.691   6.203   6.434  1.9405  0.0397  0.1452
 3468TIP3    H231896   0.647   6.213   6.289 -2.2473  0.7378  1.3185
 3469TIP3   OH231897   2.323   2.149   0.379 -0.7386  0.2714  0.5211
 3469TIP3    H131898   2.253   2.130   0.317  0.4638  0.7314 -1.0616
 3469TIP3    H231899   2.388   2.197   0.327  0.8385 -0.3285  1.8666
 3470TIP3   OH231900   3.964   1.589   5.847 -0.0877  0.3234 -0.2890
 3470TIP3    H131901   3.954   1.495   5.832  1.1704  0.2542 -0.7828
 3470TIP3    H231902   3.924   1.605   5.932  1.2830 -0.9796  0.6339
 3471TIP3   OH231903   3.914   4.468   3.463 -0.1212 -0.0662 -0.2378
 3471TIP3    H131904   3.845   4.531   3.444  1.3362  1.0375 -2.1846
 3471TIP3    H231905   3.989   4.499   3.413  1.9669 -0.9583  2.1432
 3472TIP3   OH231906   1.930   5.387  17.010 -0.0214  0.2186  0.2258
 3472TIP3    H131907   1.853   5.336  16.986 -0.3943  1.0367 -0.3657
 3472TIP3    H231908   1.991   5.322  17.045 -1.6780 -0.2134  2.5625
 3473TIP3   OH231909   2.988   0.767  15.489 -0.5259  0.2159 -0.1457
 3473TIP3    H131910   2.958   0.844  15.538  0.2582  0.6538 -0.3435
 3473TIP3    H231911   3.067   0.738  15.535 -0.8672 -0.5362 -0.0181
 3474TIP3   OH231912   2.594   0.452  14.456  0.0395  0.6524  0.4774
 3474TIP3    H131913   2.579   0.380  14.396 -2.2530 -0.1736  1.9098
 3474TIP3    H231914   2.543   0.525  14.419  0.6895  0.9394  0.1226
 3475TIP3   OH231915   4.484   2.069   5.747 -0.0484  0.5817  0.1033
 3475TIP3    H131916   4.543   2.142   5.763  0.0917  0.3832  0.4952
 3475TIP3    H231917   4.401   2.110   5.722  0.6273  0.8618 -1.9016
 3476TIP3   OH231918   5.203   0.688  12.665  0.3179  0.0971 -0.1017
 3476TIP3    H131919   5.227   0.629  12.594 -0.7217 -0.4763  0.0169
 3476TIP3    H231920   5.229   0.641  12.744  2.0594  0.9957 -0.0774
 3477TIP3   OH231921   0.446   2.745  14.357 -0.0248 -0.5938 -0.0759
 3477TIP3    H131922   0.448   2.839  14.374  0.7844 -0.3487 -1.3956
 3477TIP3    H231923   0.490   2.735  14.272 -1.6105 -1.9776 -0.7854
 3478TIP3   OH231924   5.195   3.772  16.226  0.0343  0.4666 -0.2381
 3478TIP3    H131925   5.279   3.800  16.189  0.8639 -1.3247  0.1715
 3478TIP3    H231926   5.130   3.828  16.184  1.2501  0.5982 -2.0507
 3479TIP3   OH231927   1.891   4.730   5.047  0.4926 -0.2559  0.3891
 3479TIP3    H131928   1.852   4.715   4.961 -1.1210 -1.2171  1.2209
 3479TIP3    H231929   1.969   4.782   5.030  0.9078 -1.4650 -1.7605
 3480TIP3   OH231930   6.675   5.937   0.739  0.3430  0.2227 -0.4251
 3480TIP3    H131931   6.623   5.874   0.787  0.7738  0.9099  0.9990
 3480TIP3    H231932   6.745   5.885   0.698 -0.2038 -0.4055 -0.5746
 3481TIP3   OH231933   2.836   3.426   0.644 -0.5358  0.8565 -0.5736
 3481TIP3    H131934   2.859   3.507   0.689 -3.4207  0.8902  1.1037
 3481TIP3    H231935   2.886   3.358   0.689 -1.8132  1.1630  1.4622
 3482TIP3   OH231936   4.507   6.761  10.990 -0.1547  0.6453 -0.0329
 3482TIP3    H131937   4.536   6.828  11.052 -1.6002 -0.2465  1.7166
 3482TIP3    H231938   4.476   6.689  11.045  0.3272 -1.0285 -1.8416
 3483TIP3   OH231939   0.405   0.093  12.172 -0.2646 -0.0171  0.0992
 3483TIP3    H131940   0.350   0.050  12.237 -0.5236 -1.0462 -0.7795
 3483TIP3    H231941   0.348   0.109  12.097  0.6998 -1.5677 -1.0269
 3484TIP3   OH231942   1.492   0.715   5.029 -0.1025  0.3183  1.0525
 3484TIP3    H131943   1.538   0.753   5.104  0.7974 -1.6757  1.5678
 3484TIP3    H231944   1.410   0.764   5.024  0.3550  1.3035  2.5776
 3485TIP3   OH231945   5.319   3.964  16.782 -0.3752 -0.0854 -0.2180
 3485TIP3    H131946   5.252   4.030  16.760 -0.4283 -0.0679 -0.0026
 3485TIP3    H231947   5.269   3.885  16.802 -0.4571  0.4195  1.8005
 3486TIP3   OH231948   6.278   1.268  15.048  0.1394 -0.1046 -0.2540
 3486TIP3    H131949   6.280   1.255  14.953 -0.3286 -0.1062 -0.2694
 3486TIP3    H231950   6.207   1.211  15.078  2.3437 -2.5908  0.5204
 3487TIP3   OH231951   3.062   3.677  12.746  0.1458 -0.4071 -0.3219
 3487TIP3    H131952   3.035   3.633  12.665 -0.0249 -0.1434 -0.4074
 3487TIP3    H231953   3.157   3.681  12.740  0.0322  2.2945 -1.9481
 3488TIP3   OH231954   6.273   3.509   3.815  0.0029 -0.3302  0.3728
 3488TIP3    H131955   6.305   3.427   3.853  2.3761 -0.3411 -1.4056
 3488TIP3    H231956   6.255   3.565   3.890  3.0682 -0.8126  1.6184
 3489TIP3   OH231957   1.244   3.833   2.072  0.1275  0.2085  0.2668
 3489TIP3    H131958   1.339   3.844   2.073  0.2843  0.0954 -2.8260
 3489TIP3    H231959   1.212   3.896   2.137  2.2868 -0.0362  1.6747
 3490TIP3   OH231960   6.527   1.723  12.261  0.0767 -0.1131  0.0684
 3490TIP3    H131961   6.607   1.680  12.291  1.2720  0.6182 -1.8876
 3490TIP3    H231962   6.500   1.777  12.335  1.1255 -0.7232  0.9348
 3491TIP3   OH231963   0.483   2.151   1.961  0.1167 -0.5934  0.6402
 3491TIP3    H131964   0.474   2.245   1.946 -1.5715 -0.8152  0.0215
 3491TIP3    H231965   0.455   2.138   2.052 -1.2161 -0.6689  0.2367
 3492TIP3   OH231966   4.056   1.136  12.650 -0.5694 -0.1666 -0.1534
 3492TIP3    H131967   4.000   1.197  12.699 -0.0889 -0.3151  0.5940
 3492TIP3    H231968   4.014   1.129  12.564 -0.0378  2.1159 -0.6802
 3493TIP3   OH231969   0.020   5.411  12.831 -0.3594 -0.2228 -0.1381
 3493TIP3    H131970   0.112   5.387  12.820 -0.7045 -1.4764 -0.5431
 3493TIP3    H231971   0.019   5.467  12.908  0.6970 -0.5552  0.1398
 3494TIP3   OH231972   2.314   5.099  16.430 -0.3879  0.6975 -0.0249
 3494TIP3    H131973   2.406   5.127  16.438 -0.2968  0.8114 -1.2847
 3494TIP3    H231974   2.315   5.007  16.455  0.0856  0.6782 -0.1007
 3495TIP3   OH231975   5.561   3.282  16.341 -0.1357  0.0258  0.0239
 3495TIP3    H131976   5.516   3.202  16.367 -1.1100  0.0012 -1.6242
 3495TIP3    H231977   5.654   3.258  16.340 -0.0504 -0.1242  2.7592
 3496TIP3   OH231978   1.053   5.344   5.471 -0.3428  0.3168 -0.3027
 3496TIP3    H131979   1.041   5.329   5.378 -2.4797 -0.9473  0.1012
 3496TIP3    H231980   1.004   5.423   5.490 -1.4257 -0.4020  0.0066
 3497TIP3   OH231981   6.045   2.455   0.937 -0.0442  0.5624 -0.6891
 3497TIP3    H131982   6.120   2.470   0.880  0.7786 -0.8486 -0.0333
 3497TIP3    H231983   6.056   2.366   0.969 -0.8349  1.0721  1.1491
 3498TIP3   OH231984   6.641   4.701  14.138 -0.3428 -0.3266 -0.7709
 3498TIP3    H131985   6.672   4.790  14.156  1.0762 -0.4419 -2.3840
 3498TIP3    H231986   6.716   4.658  14.097 -1.4295 -1.8684 -1.2187
 3499TIP3   OH231987   3.442   3.247   4.716  0.5978 -0.0135  0.2571
 3499TIP3    H131988   3.504   3.261   4.788  2.6189  2.3525 -1.7492
 3499TIP3    H231989   3.474   3.169   4.671  0.7697 -0.1045  0.5331
 3500TIP3   OH231990   5.952   4.880  14.037  1.0641  0.1322  0.6176
 3500TIP3    H131991   5.952   4.835  13.952 -2.2849  0.5335  0.2627
 3500TIP3    H231992   5.942   4.973  14.014 -0.0408  0.2303  1.4154
 3501TIP3   OH231993   0.135   2.451   1.983 -0.4099  0.1959  0.2895
 3501TIP3    H131994   0.155   2.538   1.947 -0.7171  0.0571 -0.2250
 3501TIP3    H231995   0.214   2.425   2.029  0.4125 -0.1088 -1.2400
 3502TIP3   OH231996   5.771   2.751  14.454  0.0625 -0.8661 -0.2569
 3502TIP3    H131997   5.733   2.839  14.456 -0.2256 -0.9785 -0.7374
 3502TIP3    H231998   5.745   2.713  14.538 -0.2267 -0.6641 -0.2534
 3503TIP3   OH231999   2.686   6.270  16.849  0.4283  0.7494  0.0692
 3503TIP3    H132000   2.595   6.279  16.875  0.8559  1.5774  1.4195
 3503TIP3    H232001   2.734   6.267  16.932  1.5974 -0.1584 -0.5997
 3504TIP3   OH232002   5.691   2.998  14.372 -0.1650  0.0347 -0.0038
 3504TIP3    H132003   5.600   3.006  14.344 -0.3059 -0.7859  0.2077
 3504TIP3    H232004   5.707   3.077  14.424  0.3580  2.0658 -2.9675
 3505TIP3   OH232005   4.438   5.133  12.722 -0.0380  0.1964 -0.3651
 3505TIP3    H132006   4.470   5.174  12.641  1.0705  2.0439  0.9297
 3505TIP3    H232007   4.492   5.055  12.731  0.4929  0.4801 -0.9466
 3506TIP3   OH232008   2.739   5.003  11.267 -0.0665  0.4828  0.0028
 3506TIP3    H132009   2.686   4.953  11.329  0.0961  2.0525  1.4988
 3506TIP3    H232010   2.803   5.048  11.323 -0.4306  2.5997 -1.2221
 3507TIP3   OH232011   3.875   0.314  13.503 -0.4491 -0.3897  0.2385
 3507TIP3    H132012   3.921   0.334  13.584  1.1160  2.9210 -1.3041
 3507TIP3    H232013   3.788   0.354  13.514 -0.1820  0.1974  0.2327
 3508TIP3   OH232014   4.597   4.784   2.006 -0.1923  0.3275  0.0389
 3508TIP3    H132015   4.601   4.689   2.017 -0.1817  0.3372  0.1210
 3508TIP3    H232016   4.641   4.801   1.923  0.0512  0.2862  0.1610
 3509TIP3   OH232017   1.336   4.226  14.682 -0.5270 -0.3574 -0.5444
 3509TIP3    H132018   1.328   4.130  14.683 -0.2618 -0.3778  0.2057
 3509TIP3    H232019   1.266   4.256  14.739  1.0987 -0.2670  1.5448
 3510TIP3   OH232020   6.310   6.541   0.541  0.2174 -0.2263  0.0604
 3510TIP3    H132021   6.366   6.467   0.520  0.0918 -0.1444 -0.5873
 3510TIP3    H232022   6.369   6.616   0.546  0.1231 -0.0655 -1.0419
 3511TIP3   OH232023   0.819   5.615   0.667  0.5419 -0.3423 -0.3537
 3511TIP3    H132024   0.754   5.635   0.599 -0.2022 -0.7269  0.2382
 3511TIP3    H232025   0.790   5.664   0.743  1.7998  0.6969 -0.5041
 3512TIP3   OH232026   1.020   0.599   6.134  0.9774 -0.4442  0.4941
 3512TIP3    H132027   0.956   0.655   6.178  2.3038  0.2590  1.5676
 3512TIP3    H232028   0.978   0.578   6.050 -0.3540  0.5848  0.8538
 3513TIP3   OH232029   0.664   6.081  17.001  1.0804  0.3615  0.0507
 3513TIP3    H132030   0.702   6.039  17.078 -1.9690 -0.3048  1.3094
 3513TIP3    H232031   0.661   6.012  16.935  1.6342  0.3151  0.0684
 3514TIP3   OH232032   2.335   4.263  15.468  0.3473 -0.6267 -0.0026
 3514TIP3    H132033   2.366   4.334  15.411 -1.4721  0.0684 -0.1756
 3514TIP3    H232034   2.274   4.214  15.414  1.2903 -2.1274  0.2503
 3515TIP3   OH232035   6.555   3.836  13.790  0.2371  0.3538  0.1184
 3515TIP3    H132036   6.493   3.893  13.745  0.2210  0.2465  0.0022
 3515TIP3    H232037   6.540   3.749  13.751 -1.0923 -0.1490  1.6298
 3516TIP3   OH232038   4.093   1.910   3.922 -0.1196  0.2636  0.4330
 3516TIP3    H132039   4.056   1.951   3.843  1.1437  0.0437 -0.3061
 3516TIP3    H232040   4.025   1.849   3.951 -0.9769  1.0095  0.0554
 3517TIP3   OH232041   0.117   1.148  16.366  0.1239  0.0691  0.2650
 3517TIP3    H132042   0.092   1.212  16.433  0.5644  1.9149 -1.2375
 3517TIP3    H232043   0.035   1.105  16.342 -0.6902  1.8977 -0.4482
 3518TIP3   OH232044   4.381   4.300   0.694 -0.2248  0.2282  0.3425
 3518TIP3    H132045   4.420   4.267   0.613  1.4495 -0.2966  1.3207
 3518TIP3    H232046   4.303   4.347   0.665 -1.3670 -2.4419 -1.3327
 3519TIP3   OH232047   2.738   0.690  14.540 -0.2227  0.0302 -0.7826
 3519TIP3    H132048   2.786   0.737  14.609 -1.0474 -0.7034  0.3305
 3519TIP3    H232049   2.754   0.598  14.559 -0.2000 -0.1830 -1.7861
 3520TIP3   OH232050   5.282   5.589   3.502  0.0088  0.0592 -0.7773
 3520TIP3    H132051   5.345   5.597   3.573 -0.8271  1.1550 -0.1183
 3520TIP3    H232052   5.282   5.496   3.480  0.5445 -0.2417  0.4205
 3521TIP3   OH232053   3.646   5.396   3.776 -0.3500  0.1541  0.3514
 3521TIP3    H132054   3.682   5.319   3.820 -1.7058 -0.7583 -0.0564
 3521TIP3    H232055   3.719   5.432   3.725  0.3808 -0.6851  0.7924
 3522TIP3   OH232056   5.615   3.611  10.911  0.1624 -0.2945  0.3768
 3522TIP3    H132057   5.578   3.683  10.860 -0.0434 -1.7738 -1.7008
 3522TIP3    H232058   5.547   3.590  10.975 -0.4767  0.2533 -0.1007
 3523TIP3   OH232059   1.670   4.330  14.263  0.1220 -0.2123  0.0715
 3523TIP3    H132060   1.651   4.238  14.250  0.9785 -0.3331 -0.3982
 3523TIP3    H232061   1.642   4.373  14.182  0.7415 -0.2307 -0.1629
 3524TIP3   OH232062   3.953   4.841   2.921  0.3646 -0.4793  0.0026
 3524TIP3    H132063   3.860   4.866   2.922  0.4997  0.0467  0.2013
 3524TIP3    H232064   3.974   4.828   3.014  1.1011  1.8650  0.2480
 3525TIP3   OH232065   0.631   5.237  11.175 -0.0773  0.0143 -0.2281
 3525TIP3    H132066   0.636   5.307  11.110  0.2400  0.7274  0.5496
 3525TIP3    H232067   0.627   5.156  11.123 -1.0591  0.6238 -1.1532
 3526TIP3   OH232068   3.155   5.245   4.837 -0.1785 -0.3880  0.2582
 3526TIP3    H132069   3.210   5.166   4.839 -0.9095 -0.9171 -0.4624
 3526TIP3    H232070   3.087   5.228   4.903 -1.0770 -0.9138 -0.7830
 3527TIP3   OH232071   5.268   5.294  13.387 -0.1603  0.0225  0.0252
 3527TIP3    H132072   5.297   5.257  13.303  0.5381 -0.0944  0.3030
 3527TIP3    H232073   5.187   5.340  13.367 -1.4629 -2.2142 -0.2339
 3528TIP3   OH232074   6.113   2.786   1.214 -0.1504  0.0254 -0.0650
 3528TIP3    H132075   6.044   2.815   1.154  0.5198 -0.1060 -0.9292
 3528TIP3    H232076   6.079   2.704   1.251 -1.5275  1.2236  1.4733
 3529TIP3   OH232077   4.001   6.638  11.655  0.4737 -0.1646 -0.6559
 3529TIP3    H132078   3.927   6.589  11.689  0.8453  0.0427  0.5154
 3529TIP3    H232079   4.026   6.697  11.726  0.5065  1.2046 -1.7482
 3530TIP3   OH232080   3.712   2.156  13.093 -0.2112 -0.4592  0.2436
 3530TIP3    H132081   3.804   2.132  13.081  0.2377  0.6681  1.1829
 3530TIP3    H232082   3.699   2.229  13.033 -0.3004 -0.1891  0.5921
 3531TIP3   OH232083   0.402   1.427   5.654 -0.2232  0.4906 -0.4302
 3531TIP3    H132084   0.478   1.472   5.619  0.8262 -1.0171 -0.1590
 3531TIP3    H232085   0.380   1.361   5.588  1.8922 -2.5138  1.5897
 3532TIP3   OH232086   0.195   2.340  15.689  0.1881 -0.6776 -0.1650
 3532TIP3    H132087   0.152   2.416  15.728 -0.3635 -0.0914 -1.8146
 3532TIP3    H232088   0.270   2.376  15.642  0.6105 -1.3134  0.0023
 3533TIP3   OH232089   6.153   3.200   6.158 -0.1311  0.2103  0.2663
 3533TIP3    H132090   6.237   3.240   6.137  0.6654 -0.0226  2.7304
 3533TIP3    H232091   6.131   3.233   6.245 -3.0394  0.9030 -0.6312
 3534TIP3   OH232092   2.268   5.909  13.953 -0.1855  0.6305 -0.3094
 3534TIP3    H132093   2.281   5.819  13.923 -1.1227  0.5594 -0.5284
 3534TIP3    H232094   2.314   5.914  14.037 -1.1319 -0.3977  0.2926
 3535TIP3   OH232095   1.969   5.845   4.839 -0.7827  0.0557  0.4910
 3535TIP3    H132096   2.040   5.785   4.861 -0.2597  0.3595 -0.3211
 3535TIP3    H232097   1.893   5.790   4.826 -0.0995 -0.5579 -1.1770
 3536TIP3   OH232098   1.188   5.253  11.437  0.2019 -0.3302 -0.4612
 3536TIP3    H132099   1.176   5.170  11.393  2.9675 -0.3120 -1.4396
 3536TIP3    H232100   1.263   5.239  11.495 -1.6885  0.4054  2.4383
 3537TIP3   OH232101   4.860   1.187   3.500  0.0696 -0.2951 -0.3975
 3537TIP3    H132102   4.779   1.239   3.495 -1.6190 -2.8149 -1.1482
 3537TIP3    H232103   4.923   1.236   3.447 -1.3194  1.1393 -0.8000
 3538TIP3   OH232104   2.298   6.811  15.050 -0.1082 -0.4901 -0.1997
 3538TIP3    H132105   2.256   6.868  15.114 -0.2673  0.3831 -1.0605
 3538TIP3    H232106   2.344   6.871  14.992  1.5629 -1.3719  0.1602
 3539TIP3   OH232107   2.255   0.004   1.239  0.2973 -0.5009 -0.2031
 3539TIP3    H132108   2.231  -0.071   1.184 -1.0230  0.0390 -0.4060
 3539TIP3    H232109   2.247  -0.029   1.328  2.3575 -1.3538 -0.2937
 3540TIP3   OH232110   1.190   5.841  16.211  0.0349  1.0216 -0.6660
 3540TIP3    H132111   1.237   5.861  16.130 -0.3470  0.0380 -1.1436
 3540TIP3    H232112   1.105   5.808  16.182 -0.6391  1.9461  0.1759
 3541TIP3   OH232113   1.752   5.107  15.770  0.3684  0.0903 -0.1771
 3541TIP3    H132114   1.785   5.018  15.762 -0.5968 -0.3579  0.6436
 3541TIP3    H232115   1.783   5.137  15.856 -0.5780 -0.0138  0.2116
 3542TIP3   OH232116   0.064   0.230   2.230  0.1960 -0.0592  0.6259
 3542TIP3    H132117   0.156   0.239   2.204  0.4737 -1.5793  0.9675
 3542TIP3    H232118   0.056   0.283   2.309  0.7543  0.2030  0.5104
 3543TIP3   OH232119   2.777   1.987  10.633  0.7193 -0.5126 -0.4284
 3543TIP3    H132120   2.777   1.938  10.715 -0.9113  1.7310  1.0005
 3543TIP3    H232121   2.695   1.963  10.590 -0.6113  1.5568  0.7708
 3544TIP3   OH232122   3.422   6.455   6.509  0.2065 -0.1217  0.7446
 3544TIP3    H132123   3.387   6.439   6.422 -2.1102  1.3448  1.3101
 3544TIP3    H232124   3.409   6.372   6.556 -0.1005 -0.4005  0.1745
 3545TIP3   OH232125   3.865   1.780  12.041  0.6485 -0.1394 -0.8271
 3545TIP3    H132126   3.915   1.717  12.092 -0.4651 -0.1411  0.3171
 3545TIP3    H232127   3.886   1.865  12.080 -1.0081 -0.2434  0.3797
 3546TIP3   OH232128   4.621   1.379  16.443 -0.0953 -1.1029 -0.6157
 3546TIP3    H132129   4.670   1.374  16.361  2.0839  0.6714  0.4972
 3546TIP3    H232130   4.531   1.400  16.416  0.5850 -0.5214 -2.5639
 3547TIP3   OH232131   2.208   1.980   1.424  0.1373 -0.0305 -0.6187
 3547TIP3    H132132   2.236   2.064   1.460 -1.2414 -0.4352  1.5274
 3547TIP3    H232133   2.177   1.930   1.499  1.7953 -2.8662 -1.6710
 3548TIP3   OH232134   6.219   3.025   2.825 -0.3072 -0.4209 -0.6155
 3548TIP3    H132135   6.211   3.014   2.919  2.0745  0.0596 -0.2834
 3548TIP3    H232136   6.252   3.114   2.813 -0.5298 -0.4877 -1.8990
 3549TIP3   OH232137   4.210   4.257  16.434  0.6405  0.5050 -0.5977
 3549TIP3    H132138   4.209   4.227  16.525  1.7824  0.8708 -0.4548
 3549TIP3    H232139   4.197   4.351  16.440  0.8771  0.5500 -0.8069
 3550TIP3   OH232140   3.890   4.297   3.987  0.4163 -0.4040 -0.1409
 3550TIP3    H132141   3.837   4.235   4.037 -0.8522 -0.2165 -1.1802
 3550TIP3    H232142   3.928   4.356   4.052  0.3285 -1.2962  0.7255
 3551TIP3   OH232143   2.193   5.222  14.755  0.1095  0.6535 -0.1110
 3551TIP3    H132144   2.161   5.133  14.770  1.8258  0.0561  0.2213
 3551TIP3    H232145   2.169   5.270  14.835 -0.6700  0.4628 -0.2197
 3552TIP3   OH232146   5.804   5.283  11.189  0.4310 -0.1989 -0.2925
 3552TIP3    H132147   5.756   5.242  11.117 -1.6721 -0.3134  1.0894
 3552TIP3    H232148   5.846   5.359  11.150  0.7475 -1.1910 -1.9813
 3553TIP3   OH232149   4.780   4.093   1.087  0.1228 -0.4900  0.0338
 3553TIP3    H132150   4.772   4.095   0.991 -0.2329  1.2066  0.0585
 3553TIP3    H232151   4.692   4.073   1.118 -0.1880  0.7032  0.0003
 3554TIP3   OH232152   3.520   1.112   0.533 -0.1390 -0.2316  0.4232
 3554TIP3    H132153   3.601   1.110   0.481  1.0255  1.7632  2.0042
 3554TIP3    H232154   3.547   1.082   0.620 -1.5919 -1.4747  0.4845
 3555TIP3   OH232155   4.417   3.052   2.022  0.3493  0.2072 -0.6474
 3555TIP3    H132156   4.381   3.040   2.110  0.9579  0.8382 -0.3028
 3555TIP3    H232157   4.341   3.071   1.968  0.1265  1.4331  0.0529
 3556TIP3   OH232158   5.676   4.513  13.139 -0.2581  0.0246 -0.0737
 3556TIP3    H132159   5.726   4.515  13.057 -0.4233 -1.2403 -0.2296
 3556TIP3    H232160   5.728   4.566  13.199  0.6092 -0.1932 -0.5997
 3557TIP3   OH232161   1.148   3.849   0.337 -0.3078 -0.2661 -0.9213
 3557TIP3    H132162   1.113   3.875   0.251  1.4308 -1.2921 -2.0141
 3557TIP3    H232163   1.236   3.887   0.339 -0.4619  0.0666  0.6004
 3558TIP3   OH232164   0.869   6.681   5.467 -0.0630  0.5230 -0.7194
 3558TIP3    H132165   0.870   6.728   5.550  0.3143 -2.9292  1.4179
 3558TIP3    H232166   0.959   6.653   5.454 -0.9059 -3.4386  0.6590
 3559TIP3   OH232167   0.772   3.063   3.754 -0.2828 -0.2864  0.7748
 3559TIP3    H132168   0.815   2.991   3.709 -0.1194  0.0365  0.4013
 3559TIP3    H232169   0.843   3.111   3.797 -0.3238 -0.0484  0.5839
 3560TIP3   OH232170   2.231   0.114  10.528 -0.1103 -0.2255 -0.0609
 3560TIP3    H132171   2.207   0.168  10.452 -0.4975  1.5950  1.2854
 3560TIP3    H232172   2.321   0.142  10.549  0.2363 -1.1909 -0.2164
 3561TIP3   OH232173   2.445   3.528   1.573 -0.1731  0.0812 -0.4743
 3561TIP3    H132174   2.383   3.456   1.586 -0.5853  0.7241  1.3889
 3561TIP3    H232175   2.443   3.545   1.479 -3.0727  0.2955 -0.4490
 3562TIP3   OH232176   0.226   1.931   0.818  0.2229  0.7406  0.1427
 3562TIP3    H132177   0.284   1.863   0.784  1.5609  1.9142 -0.0382
 3562TIP3    H232178   0.216   1.908   0.911  1.8311  1.0417  0.4279
 3563TIP3   OH232179   3.821   4.029   4.126  0.4388 -0.3663 -0.4183
 3563TIP3    H132180   3.836   4.077   4.208 -1.3229 -1.3867  0.5558
 3563TIP3    H232181   3.859   3.943   4.141  1.2690 -0.1504 -1.1926
 3564TIP3   OH232182   1.721   2.598   3.007  0.7556 -0.7134 -0.3875
 3564TIP3    H132183   1.719   2.519   2.954  0.7932 -0.9249 -0.0730
 3564TIP3    H232184   1.665   2.660   2.959  0.3975 -1.0622 -0.4269
 3565TIP3   OH232185   3.552   1.721  17.194  0.4162  0.5965  0.0711
 3565TIP3    H132186   3.622   1.693  17.135 -0.8394  1.1873 -1.8064
 3565TIP3    H232187   3.548   1.816  17.183 -0.6811  0.5678  0.1103
 3566TIP3   OH232188   5.100   6.296  13.289  1.3878 -0.7600 -0.0887
 3566TIP3    H132189   5.194   6.298  13.272  1.2629 -0.0218 -0.7452
 3566TIP3    H232190   5.060   6.312  13.203  0.6921  1.8297  0.6433
 3567TIP3   OH232191   0.039   3.924  13.723 -0.1808  0.0288  0.1854
 3567TIP3    H132192  -0.039   3.981  13.722 -0.5502 -0.4293 -1.7640
 3567TIP3    H232193   0.112   3.984  13.710 -0.4811  0.1821 -0.8726
 3568TIP3   OH232194   2.808   3.278  12.285  0.2817 -0.2724 -0.2220
 3568TIP3    H132195   2.830   3.185  12.275  0.7937 -0.6477  3.1333
 3568TIP3    H232196   2.893   3.321  12.298 -0.1300  0.0115  1.9057
 3569TIP3   OH232197   4.913   1.547   4.494 -0.2170 -0.4252  0.4189
 3569TIP3    H132198   4.955   1.477   4.444 -2.3157 -0.4019 -1.5695
 3569TIP3    H232199   4.890   1.506   4.577  0.6581 -1.3963  0.2030
 3570TIP3   OH232200   4.370   3.288  12.634  0.1574  0.2384  0.8436
 3570TIP3    H132201   4.414   3.225  12.578 -0.8914 -0.5969  0.9350
 3570TIP3    H232202   4.406   3.273  12.721  1.0860  0.8863  0.5899
 3571TIP3   OH232203   3.900   5.802  15.471 -0.3179  0.1790 -0.7102
 3571TIP3    H132204   3.829   5.749  15.508  0.9744 -2.3448 -1.6110
 3571TIP3    H232205   3.973   5.789  15.532  0.8525 -1.4138 -2.3582
 3572TIP3   OH232206   5.155   4.625  12.332 -0.2591  0.2295 -0.1832
 3572TIP3    H132207   5.179   4.541  12.372  1.7613  1.0669  0.5246
 3572TIP3    H232208   5.118   4.675  12.405  0.0872  0.5156 -0.2020
 3573TIP3   OH232209   3.234   3.611   2.716  0.1508  0.0324 -0.5114
 3573TIP3    H132210   3.175   3.580   2.647 -0.9229 -0.5659  0.6307
 3573TIP3    H232211   3.259   3.532   2.763  2.2550  0.2175 -1.2131
 3574TIP3   OH232212   3.218   4.732   0.859  0.1757 -0.0529 -0.1373
 3574TIP3    H132213   3.271   4.797   0.906 -1.5924  1.2037  0.2037
 3574TIP3    H232214   3.255   4.732   0.770  0.4681  1.1498 -0.0438
 3575TIP3   OH232215   2.746   2.807   3.371  0.3800 -0.1738  0.2634
 3575TIP3    H132216   2.822   2.764   3.412  1.5494  0.3071 -1.2962
 3575TIP3    H232217   2.783   2.882   3.325 -0.7691 -0.8049 -1.8458
 3576TIP3   OH232218   1.079   0.051  16.601 -0.1247  0.2202  0.0350
 3576TIP3    H132219   1.125  -0.030  16.581  0.3407  0.5815 -0.4070
 3576TIP3    H232220   1.004   0.024  16.654  0.7187 -0.3602  0.9628
 3577TIP3   OH232221   4.081   1.389  15.010 -0.2528  0.1525  0.1187
 3577TIP3    H132222   4.011   1.327  14.989 -1.9702  1.8153  0.7493
 3577TIP3    H232223   4.066   1.463  14.950 -0.2419  1.3655  1.5673
 3578TIP3   OH232224   2.510   2.328  13.465 -0.0042  0.6927 -0.3257
 3578TIP3    H132225   2.499   2.392  13.536 -1.1938 -0.6985  0.8268
 3578TIP3    H232226   2.428   2.335  13.415 -0.7074 -0.7370  0.5565
 3579TIP3   OH232227   0.070   1.580  15.572  0.8316  0.0746 -0.0915
 3579TIP3    H132228  -0.009   1.536  15.602  1.3344 -1.2584 -0.6577
 3579TIP3    H232229   0.080   1.655  15.631 -0.0122 -0.6030  0.9426
 3580TIP3   OH232230   4.629   3.651   4.396 -0.0966 -0.4426 -0.1296
 3580TIP3    H132231   4.551   3.611   4.357 -0.1730  0.1794 -0.6264
 3580TIP3    H232232   4.609   3.653   4.490 -1.9651  2.2802 -0.4489
 3581TIP3   OH232233   5.641   4.138   0.934 -0.6381 -0.0757 -0.4517
 3581TIP3    H132234   5.601   4.133   0.847  0.2743  0.9801 -0.9591
 3581TIP3    H232235   5.658   4.047   0.958  0.0292 -0.3493 -1.8333
 3582TIP3   OH232236   0.739   3.795  15.582  0.3165 -1.2889  0.1335
 3582TIP3    H132237   0.801   3.779  15.654 -0.6024  0.4750  1.3936
 3582TIP3    H232238   0.654   3.771  15.618 -0.7692  3.1699  1.2298
 3583TIP3   OH232239   2.960   2.090  12.396  0.6775 -0.0696  0.5420
 3583TIP3    H132240   3.047   2.097  12.357  1.0212  1.0306  1.4581
 3583TIP3    H232241   2.908   2.156  12.350  0.3326 -0.6611  0.0609
 3584TIP3   OH232242   4.371   5.856  15.451 -0.3765 -0.3398  0.0949
 3584TIP3    H132243   4.298   5.902  15.410  1.6296  1.5821 -1.6505
 3584TIP3    H232244   4.413   5.923  15.506 -0.4055 -1.6512  1.7799
 3585TIP3   OH232245   5.910   0.771   2.748  0.7269  0.2496  0.5786
 3585TIP3    H132246   5.832   0.772   2.803  1.2689  0.1487  1.3730
 3585TIP3    H232247   5.974   0.720   2.798  0.4762 -2.0330 -1.2258
 3586TIP3   OH232248   0.723   0.864   0.671  0.7717  0.4272 -0.1705
 3586TIP3    H132249   0.755   0.933   0.729  0.7868  1.9801 -1.9470
 3586TIP3    H232250   0.801   0.812   0.651  1.4610  1.8487 -1.3466
 3587TIP3   OH232251   4.269   5.826   3.363  0.6376 -0.0714 -0.1710
 3587TIP3    H132252   4.227   5.751   3.406 -0.2612  0.3506 -0.2877
 3587TIP3    H232253   4.200   5.864   3.308  0.8976  1.1954  0.3455
 3588TIP3   OH232254   5.267   4.866   3.848  0.1202 -0.4285  0.2759
 3588TIP3    H132255   5.226   4.936   3.900 -1.0228 -1.4592  0.8123
 3588TIP3    H232256   5.352   4.902   3.824 -0.1747  0.9087  1.0687
 3589TIP3   OH232257   3.244   1.299  14.366 -0.2234  0.0259  0.2040
 3589TIP3    H132258   3.199   1.217  14.345 -0.0453  0.2018 -0.9192
 3589TIP3    H232259   3.331   1.289  14.327  0.3622  0.1210  1.4345
 3590TIP3   OH232260   0.288   6.689  11.768  0.2275  0.5645 -0.2063
 3590TIP3    H132261   0.277   6.640  11.686 -1.6714  0.3237  0.1403
 3590TIP3    H232262   0.381   6.708  11.772  0.2071  1.8691 -3.1739
 3591TIP3   OH232263   1.252   4.280  10.693 -0.1366  0.2693 -0.5716
 3591TIP3    H132264   1.287   4.271  10.782 -1.4325  0.6835 -0.0008
 3591TIP3    H232265   1.308   4.346  10.653  0.8659 -0.3766 -0.2960
 3592TIP3   OH232266   4.416   2.051   2.650  0.3577 -0.0896  0.6416
 3592TIP3    H132267   4.508   2.022   2.655  0.4803 -0.2576 -1.3676
 3592TIP3    H232268   4.372   1.980   2.602 -1.4597 -1.2417  3.7597
 3593TIP3   OH232269   4.259   2.071  15.725 -0.0398  0.3042 -0.3808
 3593TIP3    H132270   4.263   1.997  15.664  0.4109 -0.7515  0.8820
 3593TIP3    H232271   4.182   2.121  15.697 -0.2512 -0.5386 -1.3621
 3594TIP3   OH232272   2.130   1.506   4.730  0.3165  0.1322 -0.5221
 3594TIP3    H132273   2.063   1.571   4.752 -0.1644 -0.3052 -0.6629
 3594TIP3    H232274   2.097   1.464   4.650  0.7914 -0.0493 -0.6258
 3595TIP3   OH232275   5.735   6.337  11.555  0.6426 -0.0762 -0.3984
 3595TIP3    H132276   5.648   6.311  11.523  0.4081  0.9783 -0.6469
 3595TIP3    H232277   5.724   6.428  11.582  1.9453  0.4121 -1.4527
 3596TIP3   OH232278   2.711   6.393   3.807 -0.2298  0.3295  0.4755
 3596TIP3    H132279   2.709   6.354   3.719 -1.0064 -1.2623  1.1569
 3596TIP3    H232280   2.802   6.421   3.819  0.1503 -0.4722 -0.4055
 3597TIP3   OH232281   5.463   0.826   1.582 -0.1595 -0.1744  0.4327
 3597TIP3    H132282   5.417   0.909   1.565  0.3294 -0.0315 -0.2453
 3597TIP3    H232283   5.547   0.853   1.620  0.4102 -0.3005 -0.7053
 3598TIP3   OH232284   2.622   0.156   2.727 -0.1625 -0.3312  0.8239
 3598TIP3    H132285   2.636   0.169   2.821  3.7679 -0.6176  0.4569
 3598TIP3    H232286   2.661   0.233   2.686  0.1064 -1.1710 -0.5899
 3599TIP3   OH232287   3.346   3.213   3.397  0.3595  0.0042  0.1688
 3599TIP3    H132288   3.378   3.130   3.431 -0.0327 -0.3984 -0.4262
 3599TIP3    H232289   3.393   3.225   3.314 -0.4298 -0.1974 -0.3183
 3600TIP3   OH232290   5.317   4.757  16.691 -0.5326 -0.2981  0.1467
 3600TIP3    H132291   5.376   4.685  16.669  0.1138 -0.4188  2.0939
 3600TIP3    H232292   5.237   4.738  16.642  0.3054 -1.2511 -0.9210
 3601TIP3   OH232293   4.330   4.955   2.984  0.0839  0.0637  1.2106
 3601TIP3    H132294   4.422   4.957   3.012 -0.6249 -0.0889  3.8240
 3601TIP3    H232295   4.321   5.031   2.926  1.9780 -0.3070  0.3615
 3602TIP3   OH232296   4.248   2.199   5.752  0.0879 -0.0491 -0.5446
 3602TIP3    H132297   4.286   2.286   5.739 -0.4709  0.4988  1.1837
 3602TIP3    H232298   4.157   2.216   5.774 -0.1231 -1.1047 -0.5779
 3603TIP3   OH232299   4.731   5.767  15.548 -0.0942  0.0706 -0.1140
 3603TIP3    H132300   4.800   5.742  15.610 -1.0589 -0.3778  0.8147
 3603TIP3    H232301   4.690   5.844  15.588  1.3579  1.8166 -1.8234
 3604TIP3   OH232302   4.423   4.353  12.623 -0.0602  0.4198  0.3922
 3604TIP3    H132303   4.516   4.353  12.601 -0.2624 -1.2112 -0.6419
 3604TIP3    H232304   4.412   4.428  12.681  1.9469  0.4972  0.7436
 3605TIP3   OH232305   4.288   5.299   5.534 -0.4781 -0.1746  0.3809
 3605TIP3    H132306   4.320   5.210   5.548 -1.8638 -0.8057 -0.1618
 3605TIP3    H232307   4.365   5.355   5.543  0.9810 -1.6587 -1.7788
 3606TIP3   OH232308   1.133   5.624   1.250 -0.0489  0.4997  0.3420
 3606TIP3    H132309   1.040   5.645   1.252 -0.8101 -2.0410 -1.5725
 3606TIP3    H232310   1.166   5.671   1.174 -1.1158 -2.4782 -2.2201
 3607TIP3   OH232311   2.252   1.266   1.060 -0.3427 -0.1864  0.4291
 3607TIP3    H132312   2.210   1.343   1.098  0.8797 -0.2226  1.9481
 3607TIP3    H232313   2.339   1.297   1.032 -0.2254 -0.7907  0.1041
 3608TIP3   OH232314   2.913   1.124  12.057  0.5002  0.0424 -0.1832
 3608TIP3    H132315   2.995   1.142  12.012 -0.1520  2.7955 -0.4182
 3608TIP3    H232316   2.851   1.105  11.987  0.5130 -0.3029 -0.1058
 3609TIP3   OH232317   1.417   2.586  12.955  0.3785 -0.3631 -0.2537
 3609TIP3    H132318   1.511   2.580  12.973  0.3333 -0.1680  0.0580
 3609TIP3    H232319   1.409   2.563  12.862  0.6866 -0.7929 -0.1781
 3610TIP3   OH232320   2.206   2.028  14.033  0.1065 -0.3186  0.4853
 3610TIP3    H132321   2.254   2.110  14.020  1.2224 -1.0802 -0.4419
 3610TIP3    H232322   2.114   2.051  14.016  0.1437  1.1067  2.0238
 3611TIP3   OH232323   6.336   6.329  12.375  0.3008 -0.3078  0.3165
 3611TIP3    H132324   6.264   6.308  12.435  0.1502  1.6970  0.9342
 3611TIP3    H232325   6.402   6.262  12.393 -0.6583 -1.0783  1.1058
 3612TIP3   OH232326   6.446   4.142  15.167 -0.2977 -0.2516 -0.1227
 3612TIP3    H132327   6.370   4.088  15.188 -1.5257  0.4586 -2.4441
 3612TIP3    H232328   6.424   4.229  15.200  0.1112 -0.3326  0.3833
 3613TIP3   OH232329   1.374   6.142  12.918  0.1781 -0.0513 -0.2720
 3613TIP3    H132330   1.371   6.162  12.825  2.6581  1.9249 -0.0069
 3613TIP3    H232331   1.403   6.223  12.960  2.1699 -1.7231  1.8656
 3614TIP3   OH232332   1.246   5.936  11.179  0.6389 -0.1592 -0.0232
 3614TIP3    H132333   1.230   5.925  11.085  1.1892  0.1304 -0.1551
 3614TIP3    H232334   1.308   6.009  11.184  0.2450  0.1408  0.5913
 3615TIP3   OH232335   4.438   6.500  12.776 -0.0247 -0.0165 -0.2369
 3615TIP3    H132336   4.346   6.477  12.789  0.4349 -0.8830  1.9829
 3615TIP3    H232337   4.453   6.575  12.834  0.9193 -0.6287  0.3463
 3616TIP3   OH232338   2.824   1.276   2.501 -0.2508  0.5225 -0.3371
 3616TIP3    H132339   2.865   1.347   2.451  0.9831 -1.1293 -1.8056
 3616TIP3    H232340   2.891   1.247   2.562  0.2145 -1.0189 -1.5162
 3617TIP3   OH232341   5.658   5.261   4.195 -0.4953  0.2758 -0.3763
 3617TIP3    H132342   5.694   5.245   4.108  0.4641  1.1463 -0.1715
 3617TIP3    H232343   5.565   5.280   4.180 -0.3907  0.1932 -1.1792
 3618TIP3   OH232344   3.486   4.502   1.534 -0.7090  0.5395 -0.0587
 3618TIP3    H132345   3.450   4.588   1.513 -1.0698  0.4191  0.0414
 3618TIP3    H232346   3.580   4.516   1.544 -0.5612  0.6581 -1.4072
 3619TIP3   OH232347   0.825   0.834   4.156  0.2832 -0.1982  0.0773
 3619TIP3    H132348   0.746   0.830   4.210  0.3369 -1.8493  0.0809
 3619TIP3    H232349   0.869   0.751   4.171  1.3993  0.1838 -0.8826
 3620TIP3   OH232350   0.642   2.989  14.873 -0.3816 -0.0878 -0.0183
 3620TIP3    H132351   0.601   3.072  14.852 -0.8366 -0.1516  0.5715
 3620TIP3    H232352   0.656   2.993  14.968  0.4880 -0.2878 -0.1301
 3621TIP3   OH232353   2.032   3.853  17.106  0.1036 -0.0738  0.2692
 3621TIP3    H132354   2.024   3.898  17.190  1.6571 -1.0247  0.9823
 3621TIP3    H232355   2.006   3.763  17.125 -0.9717  0.0324 -0.6412
 3622TIP3   OH232356   2.120   2.380   0.952 -0.5382  0.2023  0.2479
 3622TIP3    H132357   2.078   2.385   1.038  1.4460  1.2812  1.2330
 3622TIP3    H232358   2.184   2.309   0.960 -1.0439 -0.3903 -0.7154
 3623TIP3   OH232359   0.245   2.012   4.171 -0.0380 -0.9219  0.0198
 3623TIP3    H132360   0.339   2.017   4.151 -0.3034 -0.1090 -1.1298
 3623TIP3    H232361   0.227   2.091   4.221 -0.9766  1.6444 -3.8920
 3624TIP3   OH232362   4.805   1.806   1.129 -0.2296 -0.1574  0.4266
 3624TIP3    H132363   4.870   1.751   1.085 -0.7644 -0.8868  0.5176
 3624TIP3    H232364   4.849   1.838   1.207 -0.1710 -1.1816  0.8313
 3625TIP3   OH232365   4.845   5.686   3.101 -0.1786 -0.4164 -0.1449
 3625TIP3    H132366   4.847   5.747   3.174 -1.8049 -1.3641  0.7726
 3625TIP3    H232367   4.754   5.657   3.097  0.1541 -1.3853 -1.7227
 3626TIP3   OH232368   6.079   5.450   0.871 -0.4324  0.2347 -0.0796
 3626TIP3    H132369   6.082   5.390   0.796  0.3603  1.6423 -1.2331
 3626TIP3    H232370   6.089   5.393   0.947 -0.4802 -1.1785 -1.0761
 3627TIP3   OH232371   0.232   5.377  16.849 -0.0335  0.2079  0.3997
 3627TIP3    H132372   0.252   5.431  16.926  1.7125  1.0902 -0.6247
 3627TIP3    H232373   0.140   5.353  16.861 -0.2078  1.4794  2.0632
 3628TIP3   OH232374   1.241   3.707   1.267 -0.3845 -0.2467  0.0117
 3628TIP3    H132375   1.193   3.711   1.350 -0.9104  1.2255 -0.3291
 3628TIP3    H232376   1.175   3.729   1.201  0.4870  0.6653 -0.5780
 3629TIP3   OH232377   1.707   4.155   1.475  0.2317 -0.3533  0.0967
 3629TIP3    H132378   1.730   4.091   1.406  1.4402 -0.2976  0.4358
 3629TIP3    H232379   1.688   4.236   1.427  2.6655  0.1502 -0.1193
 3630TIP3   OH232380   6.159   6.813  16.667  0.7732  0.2397  0.2645
 3630TIP3    H132381   6.229   6.865  16.706 -0.6847  2.0016  0.6633
 3630TIP3    H232382   6.186   6.802  16.575  1.5565  0.9043  0.3992
 3631TIP3   OH232383   3.725   2.836  13.450 -0.0630 -0.2970 -0.4132
 3631TIP3    H132384   3.658   2.774  13.479 -0.7599  0.6012 -0.0715
 3631TIP3    H232385   3.686   2.881  13.375 -0.0085  0.5247  0.0448
 3632TIP3   OH232386   4.026   0.327   0.129  0.2332 -0.2226 -0.6243
 3632TIP3    H132387   4.046   0.275   0.207  0.7560 -0.4711 -0.9174
 3632TIP3    H232388   3.933   0.348   0.137  0.6016  1.0267  0.8295
 3633TIP3   OH232389   6.245   0.360  12.590 -0.1014  0.0350  0.5498
 3633TIP3    H132390   6.280   0.336  12.676 -1.0811  0.0206  0.9662
 3633TIP3    H232391   6.276   0.290  12.532 -0.1494 -0.4383  1.0747
 3634TIP3   OH232392   0.332   5.978   1.312  0.3533  0.1030  0.2147
 3634TIP3    H132393   0.362   5.895   1.349 -0.8467  0.1220  1.3172
 3634TIP3    H232394   0.382   5.988   1.231  1.2389 -1.1989  0.5705
 3635TIP3   OH232395   6.726   5.710   4.042 -0.4212 -0.1210 -0.0811
 3635TIP3    H132396   6.673   5.633   4.024  1.8942 -1.4273 -1.9263
 3635TIP3    H232397   6.745   5.747   3.955  1.8278  0.1089  0.4412
 3636TIP3   OH232398   0.533   5.078   2.388 -0.1860 -0.2989  0.3072
 3636TIP3    H132399   0.448   5.073   2.344 -0.9400  1.3477  1.4978
 3636TIP3    H232400   0.551   4.988   2.414 -1.8228 -0.6067  0.4922
 3637TIP3   OH232401   4.130   0.584   0.471  0.2424 -0.2237  0.9621
 3637TIP3    H132402   4.225   0.592   0.476  0.2965  0.0350 -0.2369
 3637TIP3    H232403   4.106   0.532   0.548  1.2099  0.7954  1.9772
 3638TIP3   OH232404   2.911   0.614  11.501 -0.3778  0.2057  0.0429
 3638TIP3    H132405   2.895   0.596  11.408  0.0638  0.4319 -0.0783
 3638TIP3    H232406   2.848   0.683  11.523  0.1444  0.8148 -0.3308
 3639TIP3   OH232407   5.704   1.888  14.348  0.0464 -1.0394  0.0118
 3639TIP3    H132408   5.630   1.862  14.403  1.7618 -2.0427  1.9944
 3639TIP3    H232409   5.704   1.983  14.351 -1.3998 -1.0089 -0.3813
 3640TIP3   OH232410   3.342   6.166   5.466 -0.0652 -0.1479 -0.6742
 3640TIP3    H132411   3.343   6.144   5.373 -2.0849 -0.3427 -0.6964
 3640TIP3    H232412   3.262   6.218   5.478 -0.2697 -0.7904  1.0788
 3641TIP3   OH232413   0.730   0.505  15.099 -0.5117  0.2320  0.4695
 3641TIP3    H132414   0.700   0.594  15.082  0.4957  0.3681 -0.7069
 3641TIP3    H232415   0.818   0.501  15.062 -0.3002 -1.0884  1.0210
 3642TIP3   OH232416   2.568   1.892   2.540  0.0022  0.3201  0.4989
 3642TIP3    H132417   2.661   1.916   2.534 -0.4204  2.3935  1.4948
 3642TIP3    H232418   2.554   1.876   2.634 -0.5552 -0.4778  0.2900
 3643TIP3   OH232419   0.517   2.935   6.289 -0.2119 -0.5608 -0.0099
 3643TIP3    H132420   0.422   2.935   6.287 -0.2414  0.7331  0.8265
 3643TIP3    H232421   0.540   2.959   6.379  0.8902  0.6895 -0.5900
 3644TIP3   OH232422   1.229   0.719  17.195 -0.0541  0.3276 -0.5873
 3644TIP3    H132423   1.298   0.717  17.128 -0.0263  5.9657 -1.2428
 3644TIP3    H232424   1.148   0.700  17.148  0.2266  2.0407 -1.8529
 3645TIP3   OH232425   0.759   1.329  14.408 -0.0502 -0.1494  0.4739
 3645TIP3    H132426   0.735   1.338  14.315 -0.3446 -0.1944  0.5456
 3645TIP3    H232427   0.833   1.269  14.408 -0.7251 -0.9884  0.3611
 3646TIP3   OH232428   2.519   0.730   3.607 -0.4122  0.7270 -0.3284
 3646TIP3    H132429   2.612   0.730   3.630 -0.1523 -0.3843 -1.2748
 3646TIP3    H232430   2.474   0.756   3.687  0.6646  0.3934  0.4010
 3647TIP3   OH232431   5.542   4.198   4.671  0.1205 -0.6793  0.2927
 3647TIP3    H132432   5.572   4.272   4.724 -0.5967 -0.3321  0.2369
 3647TIP3    H232433   5.543   4.232   4.581  0.2260 -0.8897  0.2132
 3648TIP3   OH232434   1.223   6.368   1.499 -0.2170 -0.1499 -0.0692
 3648TIP3    H132435   1.245   6.313   1.573  0.1121  0.4287  0.2718
 3648TIP3    H232436   1.246   6.457   1.527  0.6312 -0.0100 -1.1261
 3649TIP3   OH232437   0.804   6.619  12.447  0.0110  0.4822 -0.9113
 3649TIP3    H132438   0.875   6.555  12.444 -0.8546 -0.4687 -1.6231
 3649TIP3    H232439   0.823   6.671  12.525  0.6743 -0.7115 -0.2471
 3650TIP3   OH232440   2.505   0.055   1.166  0.0536 -0.1201  0.2777
 3650TIP3    H132441   2.412   0.034   1.174 -0.1765 -0.4147 -2.3790
 3650TIP3    H232442   2.543   0.030   1.250 -2.4098  0.9957  1.8233
 3651TIP3   OH232443   4.011   4.431   1.845 -0.0124 -0.4900  0.3281
 3651TIP3    H132444   4.057   4.366   1.898 -0.3740  0.0086  1.2727
 3651TIP3    H232445   3.975   4.493   1.908  0.4924  0.7608 -0.5668
 3652TIP3   OH232446   3.948   5.197   4.913 -0.3177 -0.0008  0.0859
 3652TIP3    H132447   4.026   5.244   4.942 -0.2344 -1.8995  3.4230
 3652TIP3    H232448   3.875   5.253   4.940 -0.1593  0.2603 -0.0237
 3653TIP3   OH232449   5.078   0.484   4.934 -0.2328  0.9161  0.6405
 3653TIP3    H132450   5.135   0.553   4.900 -0.9128  0.0265 -2.6766
 3653TIP3    H232451   5.017   0.466   4.862 -2.8546 -0.2022  2.9594
 3654TIP3   OH232452   6.601   0.071  16.014  0.8284 -0.0216 -0.1492
 3654TIP3    H132453   6.625   0.124  16.090  0.0365 -1.6158  1.2871
 3654TIP3    H232454   6.511   0.096  15.995  0.0753 -1.5534  1.2217
 3655TIP3   OH232455   3.730   5.719   4.900 -0.1910 -0.1300 -0.4472
 3655TIP3    H132456   3.750   5.775   4.975 -0.6211  0.4966 -0.7848
 3655TIP3    H232457   3.698   5.638   4.938 -0.0686  0.0556  0.0525
 3656TIP3   OH232458   5.717   4.654   0.725 -0.2692  0.1217  0.1377
 3656TIP3    H132459   5.716   4.609   0.641  1.6378  0.4468 -0.1031
 3656TIP3    H232460   5.732   4.746   0.703 -1.2326  0.4551  0.7806
 3657TIP3   OH232461   4.646   0.614   1.846 -0.2169 -0.4251 -0.5116
 3657TIP3    H132462   4.612   0.525   1.846 -1.8126  0.1578  0.0095
 3657TIP3    H232463   4.614   0.653   1.927  2.1293  0.0379  0.2694
 3658TIP3   OH232464   6.082   2.458   3.207 -0.7547  0.2907 -0.1383
 3658TIP3    H132465   6.023   2.437   3.135  0.2450 -0.1262 -0.8559
 3658TIP3    H232466   6.158   2.499   3.166  0.2077 -0.7158  0.5568
 3659TIP3   OH232467   0.900   0.172  15.645 -0.0079 -0.2128 -0.2175
 3659TIP3    H132468   0.991   0.145  15.651  0.7700  2.3123  0.6465
 3659TIP3    H232469   0.902   0.251  15.590 -2.1280 -1.8016 -2.7889
 3660TIP3   OH232470   3.715   3.275  12.359 -0.2010  0.1149  0.2301
 3660TIP3    H132471   3.624   3.303  12.370 -0.4950 -0.4596 -0.6480
 3660TIP3    H232472   3.765   3.357  12.362 -0.6711  0.3788  1.3416
 3661TIP3   OH232473   1.595   4.716   3.013 -0.3228  0.3831 -0.1698
 3661TIP3    H132474   1.586   4.749   3.103  1.3578  1.2570 -0.2862
 3661TIP3    H232475   1.664   4.651   3.018 -0.6437 -0.0014 -0.7295
 3662TIP3   OH232476   1.859   2.520  15.042  0.3446  0.2987  0.0070
 3662TIP3    H132477   1.870   2.583  15.113  1.0035  0.4821 -0.2532
 3662TIP3    H232478   1.938   2.466  15.044 -0.0779 -0.3331  0.0357
 3663TIP3   OH232479   4.464   1.890  14.051 -0.6412  0.0133  0.5550
 3663TIP3    H132480   4.440   1.927  14.136  1.2768  0.3379  1.0011
 3663TIP3    H232481   4.414   1.809  14.045 -1.5620  0.4817  1.5317
 3664TIP3   OH232482   0.741   5.768   5.309 -0.3122  0.2777 -0.1979
 3664TIP3    H132483   0.650   5.743   5.325 -0.2839  0.8041  0.8329
 3664TIP3    H232484   0.756   5.844   5.364  0.5624  0.6191 -0.8761
 3665TIP3   OH232485   6.286   3.546   4.817 -0.7095 -0.4814  0.3109
 3665TIP3    H132486   6.267   3.553   4.723 -0.5043 -2.1785  0.1036
 3665TIP3    H232487   6.228   3.609   4.859 -1.8569 -0.7365 -0.8478
 3666TIP3   OH232488   3.133   1.015  14.911  0.1667  0.3677  0.1948
 3666TIP3    H132489   3.051   1.016  14.961  0.2180  2.0706  0.2792
 3666TIP3    H232490   3.105   1.022  14.820  0.1517 -1.0827  0.0659
 3667TIP3   OH232491   4.185   0.827  13.214  0.1778  0.0121 -0.3289
 3667TIP3    H132492   4.259   0.782  13.256  0.1205  0.8111  0.6768
 3667TIP3    H232493   4.108   0.796  13.260  0.0338  0.3008 -0.3706
 3668TIP3   OH232494   0.704   2.744  12.069 -0.2411  0.5198  0.2605
 3668TIP3    H132495   0.772   2.678  12.081 -1.1968 -0.3122  1.3004
 3668TIP3    H232496   0.666   2.724  11.984  0.3049  0.5341  0.0046
 3669TIP3   OH232497   5.784   6.794   4.476  0.3546  0.3551 -0.4025
 3669TIP3    H132498   5.858   6.783   4.416  1.4463  1.6363  0.6709
 3669TIP3    H232499   5.782   6.887   4.495  0.1133 -0.0228  1.6310
 3670TIP3   OH232500   2.519   0.685   3.311  0.3203  0.8486  0.1766
 3670TIP3    H132501   2.577   0.750   3.349  0.6918  0.3610  0.4606
 3670TIP3    H232502   2.507   0.620   3.380 -0.1143  0.6581 -0.0715
 3671TIP3   OH232503   2.173   2.465  12.246  0.4665  0.2929  0.3232
 3671TIP3    H132504   2.223   2.391  12.211  0.2617 -0.2168  1.0793
 3671TIP3    H232505   2.088   2.458  12.203 -0.7901 -1.9966  2.7964
 3672TIP3   OH232506   2.028   0.798   4.641 -0.4279  0.1094  0.1710
 3672TIP3    H132507   1.957   0.861   4.633  0.3496  0.9070 -0.6348
 3672TIP3    H232508   2.102   0.839   4.597  0.3347 -1.0146  0.3582
 3673TIP3   OH232509   4.991   3.273   3.393  0.2178 -0.2112 -0.4018
 3673TIP3    H132510   4.958   3.233   3.313  1.0084 -1.9671  0.1137
 3673TIP3    H232511   5.086   3.278   3.380  0.1340  1.9399 -0.6117
 3674TIP3   OH232512   2.770   1.372   0.423  0.7016  0.2808  0.0746
 3674TIP3    H132513   2.681   1.384   0.390  0.8588  0.8697 -0.1504
 3674TIP3    H232514   2.759   1.358   0.517  0.3730  0.4724  0.0662
 3675TIP3   OH232515   6.425   0.259   5.417 -0.4080  0.0299 -0.0881
 3675TIP3    H132516   6.434   0.353   5.401 -1.1285  0.0029 -0.7295
 3675TIP3    H232517   6.335   0.239   5.392 -0.2145 -0.8617 -0.1087
 3676TIP3   OH232518   1.254   5.134   5.446  0.1367  0.2266  0.4067
 3676TIP3    H132519   1.174   5.178   5.472 -0.1796 -0.9108  1.4841
 3676TIP3    H232520   1.312   5.204   5.416 -0.8990  1.1686  0.5611
 3677TIP3   OH232521   1.220   1.057   2.973 -0.1549 -0.1478  0.2651
 3677TIP3    H132522   1.271   1.118   2.919 -0.4345  0.2794  0.4826
 3677TIP3    H232523   1.248   1.076   3.063 -0.9586  0.3347  0.4169
 3678TIP3   OH232524   3.925   3.916   6.222 -0.3457  0.3560 -0.1755
 3678TIP3    H132525   3.836   3.907   6.189 -0.5845  2.9995 -0.5111
 3678TIP3    H232526   3.915   3.924   6.317 -0.2430 -1.2497 -0.0082
 3679TIP3   OH232527   6.698   1.378   3.914 -0.4011 -0.8389 -0.6390
 3679TIP3    H132528   6.619   1.401   3.866 -0.2769  0.2433 -0.3541
 3679TIP3    H232529   6.670   1.379   4.006 -0.1529 -0.8630 -0.5640
 3680TIP3   OH232530   0.950   1.401   4.379 -0.5067  0.1161  0.2825
 3680TIP3    H132531   0.889   1.437   4.443  0.2849  0.2310  0.9853
 3680TIP3    H232532   0.923   1.310   4.369  0.3655 -0.3804  2.0510
 3681TIP3   OH232533   4.663   1.867  13.656  0.0958  0.4577  0.1039
 3681TIP3    H132534   4.582   1.817  13.666  0.7028 -0.6348 -0.2928
 3681TIP3    H232535   4.686   1.893  13.746 -0.4645  0.4149  0.2644
 3682TIP3   OH232536   6.657   0.185  14.314 -0.3959  0.4328  0.1784
 3682TIP3    H132537   6.746   0.149  14.307  0.0766  1.5297  0.3041
 3682TIP3    H232538   6.600   0.108  14.309  0.5451 -0.2724 -0.1482
 3683TIP3   OH232539   2.084   4.042  14.561  0.1469 -0.3098  0.5610
 3683TIP3    H132540   2.060   3.953  14.535 -0.5845  0.1280 -0.2863
 3683TIP3    H232541   2.082   4.040  14.657 -1.6862 -0.7328  0.5466
 3684TIP3   OH232542   4.229   3.568   5.505 -0.0362  0.0968 -0.2045
 3684TIP3    H132543   4.244   3.663   5.499 -0.4559  0.4329  2.7488
 3684TIP3    H232544   4.140   3.557   5.472  0.3008  0.5819 -1.3372
 3685TIP3   OH232545   0.836   1.901  13.440 -0.4753 -0.5956 -0.8261
 3685TIP3    H132546   0.857   1.911  13.533  0.1130 -1.3926 -0.8681
 3685TIP3    H232547   0.907   1.848  13.404 -1.6555 -1.9322 -1.3141
 3686TIP3   OH232548   2.505   6.014  16.528 -0.1921 -0.2102  0.2343
 3686TIP3    H132549   2.484   6.013  16.621  1.2266 -0.3100  0.5686
 3686TIP3    H232550   2.560   6.091  16.516  0.8654 -1.0157 -0.2206
 3687TIP3   OH232551   3.223   6.502  10.754  0.4931 -0.4270 -0.0708
 3687TIP3    H132552   3.313   6.472  10.769  0.6316  0.7567  1.7153
 3687TIP3    H232553   3.172   6.458  10.822 -0.0692 -0.1437 -0.3061
 3688TIP3   OH232554   3.274   6.028  15.991 -0.2092 -0.5778 -0.5063
 3688TIP3    H132555   3.276   5.934  16.011 -0.4515 -0.5835 -0.4978
 3688TIP3    H232556   3.183   6.054  16.009  0.0187 -0.2059  0.1067
 3689TIP3   OH232557   5.152   5.122  16.469  0.3939  0.5831 -0.0461
 3689TIP3    H132558   5.196   5.164  16.395  0.4263 -2.5625 -2.0247
 3689TIP3    H232559   5.059   5.140  16.455  0.4252  0.2512 -0.6958
 3690TIP3   OH232560   1.545   5.636   3.976 -0.1205 -0.3954 -0.1552
 3690TIP3    H132561   1.582   5.679   3.899  0.5834 -0.2440  0.2597
 3690TIP3    H232562   1.487   5.702   4.014  0.6242  0.0515  0.2374
 3691TIP3   OH232563   2.888   6.347  10.769 -0.0594  0.5034 -0.0114
 3691TIP3    H132564   2.946   6.380  10.700  0.9192  1.2430  1.1295
 3691TIP3    H232565   2.855   6.264  10.736  1.2557  0.3205 -0.9033
 3692TIP3   OH232566   0.407   6.279  16.499 -0.0919  0.7793  0.5228
 3692TIP3    H132567   0.367   6.192  16.492 -0.1506  0.9315 -1.5086
 3692TIP3    H232568   0.485   6.265  16.552  0.6701 -0.8254 -0.9080
 3693TIP3   OH232569   1.270   5.719   0.584  0.5208  0.1017  0.0650
 3693TIP3    H132570   1.263   5.632   0.545  0.1175 -0.1266  0.6349
 3693TIP3    H232571   1.195   5.725   0.643  1.7204 -0.0061  1.6734
 3694TIP3   OH232572   6.104   4.470  13.083  0.1222  0.9534 -0.0587
 3694TIP3    H132573   6.199   4.482  13.080  0.4745 -0.0675  3.2754
 3694TIP3    H232574   6.073   4.537  13.144 -0.9842 -0.1914  0.6719
 3695TIP3   OH232575   0.748   0.510  12.422  0.0290 -0.1407  0.3747
 3695TIP3    H132576   0.774   0.495  12.331  0.8367 -1.0522  0.7471
 3695TIP3    H232577   0.700   0.593  12.419  0.6856  0.2249 -0.7581
 3696TIP3   OH232578   4.557   1.367   4.971  0.1017  0.0837 -0.2181
 3696TIP3    H132579   4.545   1.273   4.985 -1.0328  0.3506  0.7321
 3696TIP3    H232580   4.569   1.375   4.876 -1.7246 -0.8416 -0.5736
 3697TIP3   OH232581   5.643   3.318   4.382 -0.0008 -0.0056  0.4853
 3697TIP3    H132582   5.694   3.281   4.454  1.8969  1.0755 -0.2485
 3697TIP3    H232583   5.630   3.410   4.406  0.3281  0.2719 -0.3747
 3698TIP3   OH232584   2.767   3.791   2.861 -0.3488 -0.2029 -0.0058
 3698TIP3    H132585   2.741   3.710   2.904 -1.8414  0.2829  0.0952
 3698TIP3    H232586   2.860   3.782   2.845 -0.4937 -1.9423 -0.0121
 3699TIP3   OH232587   6.473   0.603  16.280  0.4172 -0.5776 -0.2678
 3699TIP3    H132588   6.542   0.561  16.228 -0.7898 -1.5868 -1.1004
 3699TIP3    H232589   6.427   0.531  16.322 -0.1036  0.0882  0.3239
 3700TIP3   OH232590   5.202   4.341   2.267 -0.3422 -0.4862  0.3258
 3700TIP3    H132591   5.297   4.334   2.271 -0.3209 -0.8799 -0.6508
 3700TIP3    H232592   5.171   4.251   2.251 -0.8655 -0.3382  0.4694
 3701TIP3   OH232593   0.059   0.486  12.189 -0.3179  0.0329 -0.3369
 3701TIP3    H132594   0.151   0.465  12.205 -0.9921 -0.6856  3.3996
 3701TIP3    H232595   0.059   0.528  12.102  3.2405 -1.4018 -1.2093
 3702TIP3   OH232596   5.380   2.539  15.641  0.1403  0.1114 -0.3292
 3702TIP3    H132597   5.463   2.580  15.616  0.2881  0.6504  0.9642
 3702TIP3    H232598   5.405   2.466  15.697 -0.2587  0.4807  0.3411
 3703TIP3   OH232599   5.511   2.644  13.864 -0.4677  0.1180 -0.0472
 3703TIP3    H132600   5.606   2.646  13.872 -0.5240  1.3786  0.5880
 3703TIP3    H232601   5.493   2.670  13.774 -0.1783 -1.6534 -0.6354
 3704TIP3   OH232602   5.393   6.726  15.359 -0.3581 -0.1150  0.2868
 3704TIP3    H132603   5.433   6.640  15.371 -1.3304 -0.7947 -1.1197
 3704TIP3    H232604   5.462   6.778  15.318 -0.0783 -0.5032  0.2527
 3705TIP3   OH232605   1.894   3.646  16.013 -0.2978  0.1819 -0.3403
 3705TIP3    H132606   1.979   3.620  15.977 -0.6305  0.5398 -1.4490
 3705TIP3    H232607   1.871   3.576  16.074  0.9300  0.2428  0.2192
 3706TIP3   OH232608   0.636   3.555  16.576  0.5959 -0.0564  0.1298
 3706TIP3    H132609   0.618   3.620  16.643 -0.8601 -0.2046 -0.0698
 3706TIP3    H232610   0.637   3.604  16.494 -0.1238 -0.2074  0.0199
 3707TIP3   OH232611   5.446   3.136   2.390 -0.3469  0.2492 -0.0945
 3707TIP3    H132612   5.411   3.225   2.391 -1.0521 -0.0277  0.2416
 3707TIP3    H232613   5.484   3.126   2.303  1.3098  1.4680  0.4326
 3708TIP3   OH232614   0.886   5.774   4.478  0.2042  0.2721 -0.3976
 3708TIP3    H132615   0.858   5.792   4.568 -0.0382  0.7391 -0.5639
 3708TIP3    H232616   0.805   5.767   4.428  0.3692  1.7064 -0.8956
 3709TIP3   OH232617   0.132   0.756  16.114  0.2042 -0.3484  0.2736
 3709TIP3    H132618   0.169   0.843  16.099  1.1971 -0.9605 -1.1220
 3709TIP3    H232619   0.205   0.696  16.099 -0.8918 -1.5148 -0.6542
 3710TIP3   OH232620   0.257   3.256   1.583 -0.0262 -0.0488  0.1124
 3710TIP3    H132621   0.328   3.224   1.638 -0.4763 -0.2896  0.5509
 3710TIP3    H232622   0.233   3.340   1.622 -1.2367 -0.8256  1.0896
 3711TIP3   OH232623   2.244   4.638   3.768 -0.1650  0.1661  0.8714
 3711TIP3    H132624   2.200   4.576   3.825  0.8272  0.0647  1.5505
 3711TIP3    H232625   2.287   4.585   3.702 -0.8721  0.2522  0.3344
 3712TIP3   OH232626   2.909   4.982  16.863 -0.3986 -0.1752  1.0613
 3712TIP3    H132627   2.835   5.040  16.882 -1.0251 -1.4974  2.9659
 3712TIP3    H232628   2.894   4.953  16.773 -0.4807  1.9300  0.3283
 3713TIP3   OH232629   4.874   6.539   2.887  0.0020  0.1973 -0.2078
 3713TIP3    H132630   4.927   6.509   2.813  0.2767  1.5480 -0.5811
 3713TIP3    H232631   4.920   6.617   2.919 -1.7414  1.4173 -0.5452
 3714TIP3   OH232632   0.614   5.401  14.285  0.4968  0.1542 -0.2887
 3714TIP3    H132633   0.695   5.383  14.239 -0.2734 -2.0858 -0.9091
 3714TIP3    H232634   0.636   5.388  14.378  0.8709 -0.3397 -0.4435
 3715TIP3   OH232635   4.951   1.154   3.112  0.2760 -0.5924  0.3796
 3715TIP3    H132636   4.856   1.158   3.101  0.3821 -0.7135 -0.6404
 3715TIP3    H232637   4.982   1.101   3.039  1.1530 -0.4041  0.6000
 3716TIP3   OH232638   1.411   3.691  14.735 -0.3384  0.1581 -0.0681
 3716TIP3    H132639   1.453   3.696  14.649  0.1865  1.3972  0.2371
 3716TIP3    H232640   1.413   3.599  14.758  2.4286  0.1698  0.0147
 3717TIP3   OH232641   3.164   5.948   3.533 -0.3395  0.3364  0.2073
 3717TIP3    H132642   3.137   5.899   3.611 -1.0738  1.9386  1.0111
 3717TIP3    H232643   3.182   6.036   3.565  0.9154  0.6354 -1.1960
 3718TIP3   OH232644   4.915   4.877  14.822  0.0139 -0.1076 -0.5738
 3718TIP3    H132645   4.964   4.915  14.749 -0.1210  1.1357 -0.0438
 3718TIP3    H232646   4.963   4.904  14.900 -2.1837  2.3886  0.0723
 3719TIP3   OH232647   5.453   3.754  14.136  0.1390 -0.2395 -0.9320
 3719TIP3    H132648   5.368   3.716  14.115  0.2706 -0.4236 -1.1415
 3719TIP3    H232649   5.439   3.848  14.131  0.2393 -0.2675 -2.1941
 3720TIP3   OH232650   1.216   6.709   5.716 -0.0518  0.3949 -0.5493
 3720TIP3    H132651   1.248   6.621   5.692  0.0660  0.1817  0.3403
 3720TIP3    H232652   1.240   6.718   5.808 -0.1995  1.3105 -0.5946
 3721TIP3   OH232653   1.386   4.908   0.812  0.7543  0.0601 -0.4032
 3721TIP3    H132654   1.348   4.995   0.826 -2.7711 -0.8532 -3.1417
 3721TIP3    H232655   1.361   4.859   0.890 -2.4443 -0.0026 -1.3538
 3722TIP3   OH232656   3.267   2.019  10.596  0.3128  0.4485 -0.1413
 3722TIP3    H132657   3.202   2.079  10.559  0.5179  0.3154 -0.7315
 3722TIP3    H232658   3.347   2.071  10.599 -0.1634  1.1463  2.1186
 3723TIP3   OH232659   2.058   3.648  14.277  1.0027  0.4664  0.6367
 3723TIP3    H132660   2.102   3.659  14.193 -0.5584  0.4689 -0.2255
 3723TIP3    H232661   2.046   3.553  14.286  0.7455  0.4959  0.6233
 3724TIP3   OH232662   2.393   6.588   2.567 -0.3138 -0.2520 -0.2116
 3724TIP3    H132663   2.400   6.683   2.558 -0.1669 -0.2885 -0.4947
 3724TIP3    H232664   2.477   6.561   2.605 -0.6437 -0.1846  0.5808
 3725TIP3   OH232665   5.347   3.808   4.690  0.2252  0.1321  0.1362
 3725TIP3    H132666   5.286   3.748   4.648  0.8057  0.4403 -1.2120
 3725TIP3    H232667   5.373   3.868   4.620  0.6213  1.1672  1.1494
 3726TIP3   OH232668   5.411   5.888  16.021  0.0973  0.2677  0.4503
 3726TIP3    H132669   5.358   5.889  16.101 -0.2780 -0.5595  0.2161
 3726TIP3    H232670   5.494   5.849  16.048  0.5867  1.4829  0.7961
 3727TIP3   OH232671   4.950   0.356  12.504  0.3451  0.2912  0.3381
 3727TIP3    H132672   4.962   0.449  12.522 -1.4614  0.4405  0.9371
 3727TIP3    H232673   4.885   0.327  12.568 -1.0914 -0.7802 -1.5138
 3728TIP3   OH232674   1.343   6.152  11.626  0.5435  0.2203 -0.4138
 3728TIP3    H132675   1.400   6.204  11.569 -0.4398  3.2115  1.0907
 3728TIP3    H232676   1.255   6.185  11.608 -0.2051 -1.2875  0.3203
 3729TIP3   OH232677   2.560   5.006  13.968  1.3433 -0.2115  0.4381
 3729TIP3    H132678   2.612   4.926  13.964  2.6597  0.6550 -1.1345
 3729TIP3    H232679   2.507   4.997  14.047  2.1484 -2.2000  0.7940
 3730TIP3   OH232680   3.637   2.342  15.966  0.1381 -0.0286 -0.5263
 3730TIP3    H132681   3.606   2.259  16.002 -2.1834 -0.1202 -2.4578
 3730TIP3    H232682   3.626   2.333  15.872  2.8043  1.3946 -1.0833
 3731TIP3   OH232683   2.474   1.539   5.613 -0.4301  0.1737 -0.2877
 3731TIP3    H132684   2.470   1.620   5.560  1.6394  1.2266  1.0302
 3731TIP3    H232685   2.567   1.523   5.624 -0.7884 -0.6468  2.0713
 3732TIP3   OH232686   2.579   4.266  12.887  0.0348  0.3223 -0.1954
 3732TIP3    H132687   2.529   4.187  12.906  1.4018 -0.2342  1.2745
 3732TIP3    H232688   2.516   4.325  12.845 -1.0940 -1.3973 -1.0011
 3733TIP3   OH232689   6.561   5.332   6.572  0.2774 -0.0214  0.1515
 3733TIP3    H132690   6.643   5.285   6.590  0.3396 -0.6279 -1.5070
 3733TIP3    H232691   6.537   5.371   6.656  1.3266 -1.3095  1.1097
 3734TIP3   OH232692   5.738   2.614  14.773 -0.4273 -0.2493 -0.1396
 3734TIP3    H132693   5.756   2.589  14.864 -0.5428  1.6463  0.4474
 3734TIP3    H232694   5.707   2.704  14.779  1.7007  0.7115 -2.2616
 3735TIP3   OH232695   5.141   1.994  11.719 -0.1944  0.3860 -0.6677
 3735TIP3    H132696   5.177   1.907  11.701  0.3872  0.6773 -0.9618
 3735TIP3    H232697   5.174   2.048  11.647 -0.1195  0.9672 -0.1989
 3736TIP3   OH232698   2.743   3.378   1.786  0.2909  0.4152 -0.0994
 3736TIP3    H132699   2.766   3.376   1.693 -1.0455 -1.8867 -0.4386
 3736TIP3    H232700   2.765   3.291   1.819  2.2196  1.6599  2.1861
 3737TIP3   OH232701   1.170   4.713  16.043  0.5197 -0.1190 -0.2562
 3737TIP3    H132702   1.126   4.773  15.983 -2.0014  0.3828  1.9112
 3737TIP3    H232703   1.116   4.633  16.041 -0.7210  0.5086  2.4554
 3738TIP3   OH232704   1.071   2.130  13.824  0.7531 -0.5263  0.1548
 3738TIP3    H132705   1.064   2.035  13.828  1.1865 -0.5396  0.8785
 3738TIP3    H232706   0.981   2.161  13.830  0.4343 -0.9171 -1.9189
 3739TIP3   OH232707   0.641   0.231  10.802 -0.3887 -0.1097 -0.4539
 3739TIP3    H132708   0.598   0.145  10.798 -0.1422 -0.2967  0.7672
 3739TIP3    H232709   0.574   0.292  10.770 -0.7931 -0.6702 -0.6927
 3740TIP3   OH232710   1.138   5.826   3.959  0.1553  0.6306 -0.0940
 3740TIP3    H132711   1.146   5.882   3.882 -2.4552  0.2145 -0.7702
 3740TIP3    H232712   1.153   5.737   3.927  0.3963  0.5760  0.1643
 3741TIP3   OH232713   6.738   0.491  17.134 -0.3159 -0.2312  0.2565
 3741TIP3    H132714   6.727   0.541  17.215 -0.3377  0.2608 -0.0499
 3741TIP3    H232715   6.649   0.471  17.106 -0.2983 -1.2888  0.8923
 3742TIP3   OH232716   4.858   1.230   5.583  0.1657 -0.1283 -0.0243
 3742TIP3    H132717   4.842   1.197   5.671 -0.0257 -0.3292 -0.1321
 3742TIP3    H232718   4.773   1.220   5.538 -0.2388  1.6113  0.2888
 3743TIP3   OH232719   0.469   6.397  13.268  0.3230  0.4248  0.7585
 3743TIP3    H132720   0.442   6.360  13.352  0.5775 -0.4036  0.4906
 3743TIP3    H232721   0.563   6.380  13.264  0.5716  1.6524  0.8832
 3744TIP3   OH232722   5.627   4.701   3.915 -0.2722  0.7570  0.7076
 3744TIP3    H132723   5.569   4.626   3.902 -1.1512  1.4290  0.6372
 3744TIP3    H232724   5.586   4.772   3.865  1.1848  0.9831 -0.2082
 3745TIP3   OH232725   4.186   0.969   5.210 -0.5496  0.0036 -0.0476
 3745TIP3    H132726   4.134   0.956   5.289 -1.9615 -0.7971 -1.0603
 3745TIP3    H232727   4.135   1.029   5.157  0.6083  0.8958 -0.1836
 3746TIP3   OH232728   1.257   2.109  11.287  0.5956 -0.5441  0.8545
 3746TIP3    H132729   1.286   2.021  11.310  1.4563 -0.4077  0.3448
 3746TIP3    H232730   1.269   2.114  11.192  1.0597  0.2917  0.9419
 3747TIP3   OH232731   6.320   4.908  11.260  0.3036 -0.2494  0.4375
 3747TIP3    H132732   6.387   4.962  11.217  3.4549 -2.8373  1.6312
 3747TIP3    H232733   6.312   4.832  11.203  0.0198 -0.9507  1.4011
 3748TIP3   OH232734   5.707   0.088   5.070 -0.7086  0.2893 -0.0035
 3748TIP3    H132735   5.698   0.068   4.977  0.9785 -0.4292 -0.0350
 3748TIP3    H232736   5.671   0.012   5.115  0.4363 -0.3280 -0.0994
 3749TIP3   OH232737   0.091   4.219  11.555  0.1967 -0.2311  0.2592
 3749TIP3    H132738   0.078   4.250  11.644  0.1954  3.4968 -0.8783
 3749TIP3    H232739   0.007   4.181  11.530 -0.2801  0.0655  1.3540
 3750TIP3   OH232740   4.690   4.747  10.588  0.5761  0.3820  0.4454
 3750TIP3    H132741   4.641   4.822  10.554  1.6303  1.0024  0.2525
 3750TIP3    H232742   4.650   4.729  10.673 -1.8349 -0.9488 -0.8797
 3751TIP3   OH232743   4.243   4.209  11.321 -0.2242  0.0347 -0.4544
 3751TIP3    H132744   4.208   4.273  11.383  2.5930  0.7281  0.6057
 3751TIP3    H232745   4.204   4.234  11.237  0.0451  2.6263  0.0848
 3752TIP3   OH232746   2.868   0.543  11.217 -0.3184 -0.5258 -0.6799
 3752TIP3    H132747   2.925   0.467  11.220 -1.9285 -1.7582 -0.2944
 3752TIP3    H232748   2.782   0.508  11.197 -1.1733  1.1605 -0.1567
 3753TIP3   OH232749   4.146   0.119  11.329 -0.0176  0.3633 -0.2316
 3753TIP3    H132750   4.132   0.187  11.263  0.6069  1.2856  0.5472
 3753TIP3    H232751   4.202   0.161  11.395 -2.4019  0.2560  2.0365
 3754TIP3   OH232752   6.527   4.666   3.685 -0.4818  0.3768 -0.3550
 3754TIP3    H132753   6.536   4.737   3.622  4.6159 -0.2487 -0.7250
 3754TIP3    H232754   6.530   4.586   3.633  1.8618 -0.1075  0.3980
 3755TIP3   OH232755   5.439   5.300  14.331 -0.4220 -0.1307 -0.8539
 3755TIP3    H132756   5.358   5.285  14.282 -0.9488 -0.2857  0.0328
 3755TIP3    H232757   5.496   5.346  14.270 -1.8250  1.5946 -0.9418
 3756TIP3   OH232758   5.720   0.499   2.678 -0.3208  0.0766 -0.2410
 3756TIP3    H132759   5.687   0.534   2.595 -0.3631 -1.8485 -1.0906
 3756TIP3    H232760   5.641   0.475   2.727 -0.3051 -2.0315 -1.1525
 3757TIP3   OH232761   6.130   1.251  13.928  0.1080 -0.1176  0.0390
 3757TIP3    H132762   6.064   1.310  13.891  0.5598  0.8464  0.7476
 3757TIP3    H232763   6.207   1.263  13.873  0.2783  0.1340  0.3318
 3758TIP3   OH232764   3.712   1.247  12.465  0.0383 -0.0350 -0.0450
 3758TIP3    H132765   3.682   1.268  12.377 -2.6427  1.8392  1.1882
 3758TIP3    H232766   3.660   1.170  12.490  0.4294 -0.2524  0.1087
 3759TIP3   OH232767   5.521   3.288  15.726 -0.0329 -0.2098 -0.2499
 3759TIP3    H132768   5.430   3.283  15.755  0.3484 -3.4767  0.7537
 3759TIP3    H232769   5.515   3.313  15.634 -1.9448 -0.2977 -0.2009
 3760TIP3   OH232770   3.250   2.392   0.369  0.2298  0.5121  0.2753
 3760TIP3    H132771   3.338   2.405   0.334 -0.1375  0.9207 -0.5202
 3760TIP3    H232772   3.197   2.460   0.328 -0.1905  1.1431  1.7989
 3761TIP3   OH232773   3.817   5.283  13.371 -0.5900 -0.6007  0.0615
 3761TIP3    H132774   3.754   5.305  13.302 -1.8798 -0.4860  1.2350
 3761TIP3    H232775   3.897   5.328  13.345 -0.8714 -1.0271 -1.6486
 3762TIP3   OH232776   5.002   4.877   3.302  0.0950  0.0096 -0.1203
 3762TIP3    H132777   5.034   4.890   3.391  2.5441  0.8136 -1.0061
 3762TIP3    H232778   5.044   4.795   3.274  1.0401  0.7973 -1.1412
 3763TIP3   OH232779   3.021   0.334   6.481 -0.0784  0.2326 -1.0744
 3763TIP3    H132780   2.990   0.309   6.394 -2.9640  1.8396 -0.6686
 3763TIP3    H232781   2.950   0.308   6.540  0.5774  1.5746  0.3986
 3764TIP3   OH232782   4.515   5.704  12.439 -0.3282 -0.6573  0.2203
 3764TIP3    H132783   4.513   5.799  12.450 -0.5487 -0.7173  0.6990
 3764TIP3    H232784   4.582   5.674  12.500  2.4836 -0.4748 -2.5155
 3765TIP3   OH232785   4.426   6.427   0.752  0.4148  0.0604 -0.2967
 3765TIP3    H132786   4.336   6.436   0.784  0.6971  1.1334  0.2408
 3765TIP3    H232787   4.425   6.347   0.700 -1.2032  0.7914 -1.4977
 3766TIP3   OH232788   2.181   5.889   4.630 -0.4726  0.8252  0.1197
 3766TIP3    H132789   2.109   5.925   4.682 -0.2863  0.7635  0.4244
 3766TIP3    H232790   2.140   5.859   4.549 -0.8003  0.7383  0.3170
 3767TIP3   OH232791   0.593   2.414  12.875  0.0861 -0.4513 -0.5832
 3767TIP3    H132792   0.596   2.509  12.882 -0.5342 -0.5421  1.1654
 3767TIP3    H232793   0.670   2.384  12.923 -0.6534 -0.8750  0.3710
 3768TIP3   OH232794   4.293   1.225   3.882 -0.0475 -0.0774 -0.3245
 3768TIP3    H132795   4.212   1.173   3.876  0.7083 -1.5188  1.2388
 3768TIP3    H232796   4.350   1.187   3.815  0.1089 -0.5374  0.0649
 3769TIP3   OH232797   4.432   2.747   3.694 -0.1499  0.0355  0.1327
 3769TIP3    H132798   4.506   2.753   3.755 -0.7692  0.0260  0.8974
 3769TIP3    H232799   4.357   2.776   3.745 -0.7398 -0.3049 -0.5311
 3770TIP3   OH232800   6.132   3.794  12.241 -0.0134 -0.0967  0.3908
 3770TIP3    H132801   6.054   3.774  12.189  0.5281  0.2615 -0.5732
 3770TIP3    H232802   6.149   3.714  12.291  1.0918 -1.4867 -2.0727
 3771TIP3   OH232803   1.808   3.444   5.821 -0.2009  1.0368 -0.3560
 3771TIP3    H132804   1.792   3.404   5.907  0.4525 -0.0013 -0.6960
 3771TIP3    H232805   1.890   3.492   5.832 -0.1999  1.0349 -0.3560
 3772TIP3   OH232806   4.850   3.754  15.664  0.1458  0.0488  0.5913
 3772TIP3    H132807   4.885   3.789  15.582  1.3674  3.1370  2.2490
 3772TIP3    H232808   4.771   3.807  15.680 -2.2276 -2.9519 -0.2240
 3773TIP3   OH232809   2.074   3.322  14.801 -0.1826  0.6909 -0.1131
 3773TIP3    H132810   2.139   3.261  14.835 -0.0402  1.7847  1.7108
 3773TIP3    H232811   2.087   3.321  14.706 -0.9088 -2.8760 -0.3070
 3774TIP3   OH232812   4.982   2.230  14.029  0.6508 -0.3505 -0.2147
 3774TIP3    H132813   5.060   2.192  13.987  1.4805  0.2568  0.7277
 3774TIP3    H232814   4.947   2.290  13.963  1.4279 -0.0721 -0.3967
 3775TIP3   OH232815   0.391   0.881   3.262  0.0250  0.7171 -0.1542
 3775TIP3    H132816   0.310   0.916   3.225 -1.0073  0.4663  1.7178
 3775TIP3    H232817   0.406   0.934   3.341  0.3254 -0.8042  0.8567
 3776TIP3   OH232818   5.676   0.458  11.841  0.2476 -0.1663  0.0345
 3776TIP3    H132819   5.596   0.407  11.836  0.7929 -1.2174  1.2426
 3776TIP3    H232820   5.652   0.545  11.810 -1.4645 -0.3374  0.7745
 3777TIP3   OH232821   6.068   3.090   2.198  0.7433  0.7556 -0.1789
 3777TIP3    H132822   5.982   3.128   2.211  0.4948 -0.0179  0.5118
 3777TIP3    H232823   6.108   3.144   2.130 -1.6177 -0.9712 -3.1931
 3778TIP3   OH232824   6.511   2.046   4.522 -0.0260 -0.2218 -0.3148
 3778TIP3    H132825   6.449   2.056   4.450 -0.1148 -0.4602 -0.2735
 3778TIP3    H232826   6.456   2.040   4.600  0.0327 -0.7242 -0.3074
 3779TIP3   OH232827   0.721   1.161  12.977 -0.4334  0.0622  0.1155
 3779TIP3    H132828   0.802   1.145  12.929 -1.5962 -1.0731 -1.5631
 3779TIP3    H232829   0.741   1.137  13.067  0.3943 -2.7330 -0.7331
 3780TIP3   OH232830   5.922   3.604  13.512 -0.2008  0.1569 -0.5301
 3780TIP3    H132831   5.897   3.533  13.452 -0.5854 -0.1787  0.0161
 3780TIP3    H232832   5.870   3.588  13.590  0.4955  0.4378 -0.0011
 3781TIP3   OH232833   6.592   4.878   3.352  0.3812 -0.0136  0.3229
 3781TIP3    H132834   6.670   4.862   3.299  0.9629 -0.4366  1.2709
 3781TIP3    H232835   6.532   4.808   3.327 -0.1905  0.9868 -1.2652
 3782TIP3   OH232836   1.703   5.799   5.195 -1.4194 -0.4558  0.6281
 3782TIP3    H132837   1.693   5.752   5.113 -0.2754  0.9392 -0.3784
 3782TIP3    H232838   1.620   5.788   5.240 -1.3809 -2.9333  0.2349
 3783TIP3   OH232839   3.391   3.393   4.087  0.0979 -0.3979 -0.3015
 3783TIP3    H132840   3.412   3.415   3.996 -1.6782  2.6753 -0.1073
 3783TIP3    H232841   3.472   3.410   4.135  0.4621  0.0689 -1.0498
 3784TIP3   OH232842   1.372   6.132   2.310  0.1663  0.3336  1.0119
 3784TIP3    H132843   1.378   6.214   2.360 -0.1026  0.3376  1.0407
 3784TIP3    H232844   1.284   6.134   2.273 -0.1634 -0.3699  1.7479
 3785TIP3   OH232845   5.043   3.560   4.105 -0.2472 -0.0058  0.6950
 3785TIP3    H132846   5.047   3.468   4.082 -1.3149  0.2522 -0.7289
 3785TIP3    H232847   4.955   3.572   4.141  0.3565  0.2179  2.1735
 3786TIP3   OH232848   6.420   4.225  12.884  0.1358  0.2811  0.1591
 3786TIP3    H132849   6.347   4.267  12.839 -0.5552  0.9253  1.8063
 3786TIP3    H232850   6.384   4.141  12.913  0.3072  0.2436  0.2620
 3787TIP3   OH232851   1.536   0.472   2.508 -0.1986  0.2933 -0.1668
 3787TIP3    H132852   1.460   0.502   2.558 -0.7733 -0.9401 -0.2687
 3787TIP3    H232853   1.505   0.395   2.460  1.2066 -0.4689  0.0789
 3788TIP3   OH232854   3.209   1.657   0.550  0.5722 -0.7763 -0.0749
 3788TIP3    H132855   3.258   1.669   0.469  0.1034  2.4530  0.0080
 3788TIP3    H232856   3.119   1.644   0.521  0.8968 -3.5063 -0.1093
 3789TIP3   OH232857   2.852   4.254  13.558 -0.3914 -0.2692 -0.0030
 3789TIP3    H132858   2.941   4.257  13.593 -0.2063 -0.9129 -0.3956
 3789TIP3    H232859   2.856   4.301  13.475 -0.7334  0.8777  0.6083
 3790TIP3   OH232860   4.257   3.886   3.647 -0.3381  0.7104  0.3849
 3790TIP3    H132861   4.223   3.837   3.572 -0.0743 -1.0672  1.3508
 3790TIP3    H232862   4.218   3.841   3.723  2.0814  0.2446  1.4263
 3791TIP3   OH232863   0.613   3.408   1.649  0.3969  0.3390 -0.1508
 3791TIP3    H132864   0.678   3.341   1.628 -0.6801 -0.7023 -0.3105
 3791TIP3    H232865   0.606   3.462   1.571 -2.4714 -2.5697 -2.1611
 3792TIP3   OH232866   6.285   2.934  14.490 -0.1158  0.4100 -0.0068
 3792TIP3    H132867   6.286   2.905  14.581  1.9833  0.7411  0.1172
 3792TIP3    H232868   6.199   2.906  14.457  0.4863 -3.0496  0.9870
 3793TIP3   OH232869   1.327   1.897   4.181  0.2543  0.2969 -0.4735
 3793TIP3    H132870   1.328   1.881   4.087 -0.8470 -2.8857 -0.0674
 3793TIP3    H232871   1.398   1.843   4.215 -2.1649 -2.3413  0.8298
 3794TIP3   OH232872   2.383   3.094   6.517 -0.2749  0.0194  0.7449
 3794TIP3    H132873   2.312   3.135   6.567  0.1006 -1.5204  2.6462
 3794TIP3    H232874   2.339   3.031   6.460 -0.5264  0.0458  0.9085
 3795TIP3   OH232875   3.304   1.756  11.962  0.4918 -0.1827  0.3031
 3795TIP3    H132876   3.220   1.714  11.981 -1.3858  4.0902  3.0765
 3795TIP3    H232877   3.290   1.802  11.879  0.9877 -1.2759 -0.4131
 3796TIP3   OH232878   2.054   5.281  16.294  0.2064  0.0308  0.4385
 3796TIP3    H132879   2.037   5.203  16.346 -1.1904  0.5217  0.7602
 3796TIP3    H232880   2.050   5.250  16.203  1.4202 -0.5885  0.5770
 3797TIP3   OH232881   3.714   1.733  14.986 -0.2388  0.0464 -0.6105
 3797TIP3    H132882   3.723   1.817  15.030 -0.2821 -0.6270  0.7093
 3797TIP3    H232883   3.621   1.728  14.963  0.1524  1.3413 -2.7783
 3798TIP3   OH232884   3.788   2.868  11.609  0.5042  0.4478 -0.3496
 3798TIP3    H132885   3.742   2.950  11.592 -0.5536  0.0190  0.3020
 3798TIP3    H232886   3.736   2.826  11.677 -0.6748 -2.1206 -2.6699
 3799TIP3   OH232887   4.139   0.490  13.931 -0.0994  0.4987 -0.2625
 3799TIP3    H132888   4.159   0.550  13.859 -0.5872  0.7163 -0.2173
 3799TIP3    H232889   4.161   0.403  13.896 -0.7440  0.5588 -0.8275
 3800TIP3   OH232890   0.577   0.003   1.244  0.1900  0.1377  0.3975
 3800TIP3    H132891   0.525  -0.071   1.276 -1.4781  1.5890  1.1959
 3800TIP3    H232892   0.513   0.067   1.216  1.6160  0.7078 -1.7669
 3801TIP3   OH232893   3.017   1.977  11.663  0.1461 -0.2018 -0.4251
 3801TIP3    H132894   2.998   2.013  11.750  0.3267  1.0215 -0.8760
 3801TIP3    H232895   2.953   2.018  11.605  0.9169  0.0882 -1.1000
 3802TIP3   OH232896   1.767   6.225  14.430 -0.4832  0.1789 -0.2026
 3802TIP3    H132897   1.736   6.261  14.347  0.9834  2.7626  0.2449
 3802TIP3    H232898   1.862   6.218  14.420 -0.4922 -1.5403  0.5553
 3803TIP3   OH232899   0.877   0.845   5.914 -0.2349  0.2723  0.2637
 3803TIP3    H132900   0.933   0.916   5.945 -0.7771  0.8283  0.0048
 3803TIP3    H232901   0.794   0.858   5.960 -0.3625 -0.1557  0.1652
 3804TIP3   OH232902   2.532   4.741   5.393  0.1786 -0.4248 -0.0048
 3804TIP3    H132903   2.617   4.713   5.428  0.2015 -0.0674  0.2334
 3804TIP3    H232904   2.551   4.822   5.346  0.3518 -1.4719 -1.8488
 3805TIP3   OH232905   3.316   1.361   5.297  0.3009 -0.0111  0.3632
 3805TIP3    H132906   3.406   1.390   5.313  0.9357 -1.2291 -0.8559
 3805TIP3    H232907   3.324   1.267   5.279 -1.3760 -0.4113  1.4973
 3806TIP3   OH232908   0.759   4.693   0.369 -0.6717 -0.2739 -0.1660
 3806TIP3    H132909   0.727   4.638   0.298 -0.5517 -0.8967  0.2550
 3806TIP3    H232910   0.716   4.659   0.447 -2.2040  1.5439 -0.1578
 3807TIP3   OH232911   6.093   3.237   0.193  0.4469 -0.1741  0.3034
 3807TIP3    H132912   5.998   3.245   0.188  0.5479  0.4824 -1.1825
 3807TIP3    H232913   6.112   3.151   0.157  0.4548  0.0497 -0.2440
 3808TIP3   OH232914   3.406   1.000  14.998  0.2514  0.1807  0.3404
 3808TIP3    H132915   3.425   0.954  15.080 -0.1912  0.2599  0.4884
 3808TIP3    H232916   3.315   0.980  14.979  0.5798 -0.5216 -0.5830
 3809TIP3   OH232917   1.546   3.018  16.786 -0.7682  0.6493  0.4392
 3809TIP3    H132918   1.552   3.063  16.702  1.3088  1.7380  1.0852
 3809TIP3    H232919   1.538   3.088  16.850  1.1699  0.0735  1.3828
 3810TIP3   OH232920   5.836   1.139  15.345 -0.5976 -0.2041 -0.0201
 3810TIP3    H132921   5.822   1.191  15.423  0.2222  1.9277 -1.2026
 3810TIP3    H232922   5.929   1.116  15.347 -0.6932 -0.6115 -0.0951
 3811TIP3   OH232923   3.400   3.530   1.593  0.2408  0.1364  0.3818
 3811TIP3    H132924   3.369   3.442   1.574  0.0548  0.0345  1.1293
 3811TIP3    H232925   3.333   3.567   1.651  0.3546  0.7393  0.1419
 3812TIP3   OH232926   3.197   2.993  16.935 -0.2128 -0.1667  0.6241
 3812TIP3    H132927   3.274   3.049  16.931  1.4769 -2.4123 -2.3105
 3812TIP3    H232928   3.150   3.022  17.013  1.9678  3.3409  0.8307
 3813TIP3   OH232929   4.360   6.684   1.954  0.1276 -0.7936  0.2957
 3813TIP3    H132930   4.323   6.733   1.880 -1.7473 -1.7008  0.5641
 3813TIP3    H232931   4.452   6.712   1.958  0.3018 -0.6902 -2.3655
 3814TIP3   OH232932   4.675   4.119   4.935 -0.2952  0.0358  0.5752
 3814TIP3    H132933   4.671   4.047   4.999 -2.8593  1.5716  2.3463
 3814TIP3    H232934   4.707   4.194   4.985 -0.4416  0.8133 -0.4568
 3815TIP3   OH232935   4.132   1.315   1.540 -0.1941  0.0614 -0.3373
 3815TIP3    H132936   4.077   1.320   1.462  1.0060  0.6566 -1.1794
 3815TIP3    H232937   4.077   1.271   1.605 -1.0984 -0.7863 -1.6208
 3816TIP3   OH232938   2.796   4.704  12.516  0.2010 -0.4766  1.0606
 3816TIP3    H132939   2.716   4.738  12.556  0.5277  1.3552  0.2714
 3816TIP3    H232940   2.860   4.775  12.526  0.8940 -0.7864 -0.7697
 3817TIP3   OH232941   4.940   6.081   2.416 -0.6420 -0.2167  0.1156
 3817TIP3    H132942   5.006   6.019   2.384 -0.7133 -0.7629  0.9971
 3817TIP3    H232943   4.872   6.080   2.349  0.4931  0.8012 -1.1120
 3818TIP3   OH232944   6.476   0.733   4.301  0.3593  0.2380  0.0860
 3818TIP3    H132945   6.503   0.824   4.292 -1.4605  0.7632 -0.4421
 3818TIP3    H232946   6.457   0.704   4.212  0.9829 -0.6902  0.2402
 3819TIP3   OH232947   0.930   0.704   1.822 -0.0169 -0.0525 -0.0053
 3819TIP3    H132948   0.863   0.654   1.869  0.4726 -0.8696 -0.1642
 3819TIP3    H232949   0.894   0.793   1.817 -0.5436 -0.1938  0.9875
 3820TIP3   OH232950   3.941   4.093  14.077  0.2920 -0.2426 -0.3318
 3820TIP3    H132951   3.939   3.999  14.063  0.6862 -0.4813  1.0915
 3820TIP3    H232952   3.857   4.114  14.118  1.1049 -0.3796  1.5112
 3821TIP3   OH232953   1.268   5.517  16.081  0.5771 -0.4038 -0.2327
 3821TIP3    H132954   1.273   5.507  16.176  0.4466  4.1044  0.4736
 3821TIP3    H232955   1.353   5.488  16.049  1.0520 -0.9133  1.4142
 3822TIP3   OH232956   3.381   0.772   4.012 -0.0390 -1.0588 -0.0834
 3822TIP3    H132957   3.439   0.755   4.086 -1.6817 -0.5170  1.3986
 3822TIP3    H232958   3.419   0.848   3.969  1.5332 -2.0172 -0.4849
 3823TIP3   OH232959   4.027   1.345  14.612  0.6067  0.2442  0.1268
 3823TIP3    H132960   4.047   1.263  14.567 -1.9139 -0.5350  0.3143
 3823TIP3    H232961   3.961   1.322  14.677  1.2661  2.0900  1.5368
 3824TIP3   OH232962   5.586   6.369   2.241 -0.0585  0.3860  0.4493
 3824TIP3    H132963   5.597   6.310   2.166 -0.9324 -0.1171  0.7129
 3824TIP3    H232964   5.659   6.431   2.232  0.8723 -0.7095  0.1631
 3825TIP3   OH232965   0.181   0.348  14.212  0.2897 -0.2407 -0.4170
 3825TIP3    H132966   0.093   0.384  14.206  0.7907  0.8743 -1.4567
 3825TIP3    H232967   0.181   0.273  14.154  0.0992 -0.0652 -0.6431
 3826TIP3   OH232968   3.906   3.396  13.875 -0.0871  0.4828  0.3948
 3826TIP3    H132969   3.934   3.413  13.785 -1.6776 -0.2157 -0.2654
 3826TIP3    H232970   3.855   3.314  13.870 -0.8036  0.8032  1.7973
 3827TIP3   OH232971   1.207   0.200  10.801  0.0362  0.5316 -0.1009
 3827TIP3    H132972   1.265   0.276  10.808 -2.0086  2.2022 -0.2004
 3827TIP3    H232973   1.204   0.164  10.889  1.2693  0.3387 -0.1142
 3828TIP3   OH232974   6.353   4.913  15.615  0.0678 -0.2898  0.1787
 3828TIP3    H132975   6.416   4.983  15.601  1.5171 -1.4909  0.4289
 3828TIP3    H232976   6.354   4.899  15.710 -1.5593  0.5208  0.3518
 3829TIP3   OH232977   0.289   6.082   3.716  0.2880 -0.4444  0.3084
 3829TIP3    H132978   0.364   6.138   3.737  0.9128 -1.2916  0.3903
 3829TIP3    H232979   0.226   6.101   3.785  0.2187  0.6320 -0.0328
 3830TIP3   OH232980   0.280   2.066   5.615 -0.1315  0.5438  0.2248
 3830TIP3    H132981   0.230   1.986   5.632  0.9730 -0.1554  0.2689
 3830TIP3    H232982   0.275   2.115   5.696 -0.9565  0.6005  0.1438
 3831TIP3   OH232983   1.181   5.773  13.656 -0.9159  0.3645 -0.0344
 3831TIP3    H132984   1.185   5.777  13.752  1.4903  0.3068 -0.0698
 3831TIP3    H232985   1.193   5.863  13.628 -0.3569  0.2118 -0.2906
 3832TIP3   OH232986   1.639   0.834  17.165  0.6441 -0.4481 -0.1194
 3832TIP3    H132987   1.637   0.889  17.243  1.3796 -0.0473 -0.3677
 3832TIP3    H232988   1.606   0.749  17.194  1.4893 -0.4882  0.7939
 3833TIP3   OH232989   2.685   2.771  15.823 -0.4170  0.3919  0.4523
 3833TIP3    H132990   2.704   2.689  15.778 -2.6703 -0.0212  0.1622
 3833TIP3    H232991   2.690   2.749  15.916 -0.6671  0.0172  0.3754
 3834TIP3   OH232992   4.540   4.150   2.502 -0.5229 -0.3090 -0.3668
 3834TIP3    H132993   4.617   4.170   2.555 -1.0973 -0.2610  0.4754
 3834TIP3    H232994   4.562   4.070   2.456 -0.3509 -0.8855  0.6825
 3835TIP3   OH232995   3.220   1.503   6.696  0.4148 -0.4620  0.2403
 3835TIP3    H132996   3.306   1.520   6.734  0.8880 -1.0380 -0.5531
 3835TIP3    H232997   3.227   1.416   6.657 -0.6818 -0.7301  0.5968
 3836TIP3   OH232998   2.780   3.381   6.525  0.1363 -0.2282  0.5092
 3836TIP3    H132999   2.701   3.412   6.569 -1.1856 -1.5075 -0.8549
 3836TIP3    H233000   2.809   3.455   6.471 -1.4446 -0.4416 -0.6921
 3837TIP3   OH233001   2.676   3.599  12.789  0.2215 -0.1549 -0.3839
 3837TIP3    H133002   2.581   3.610  12.787  0.2318  0.6190  1.7123
 3837TIP3    H233003   2.703   3.612  12.698 -1.4286  1.9846 -0.6473
 3838TIP3   OH233004   6.117   1.450   1.615 -0.4518 -0.3245  0.3255
 3838TIP3    H133005   6.210   1.471   1.622 -0.2992 -1.2562  1.3849
 3838TIP3    H233006   6.087   1.500   1.539  0.6784  0.7875  0.5709
 3839TIP3   OH233007   5.670   6.367  12.723 -0.4948  0.3573  0.3627
 3839TIP3    H133008   5.701   6.348  12.634 -0.1052  1.4183  0.2530
 3839TIP3    H233009   5.722   6.311  12.780 -0.4282  0.0028 -0.0480
 3840TIP3   OH233010   4.827   3.793   3.747 -0.2400 -0.1328  0.3692
 3840TIP3    H133011   4.825   3.883   3.715  3.1571  0.2869  0.9436
 3840TIP3    H233012   4.794   3.798   3.837 -2.0150  0.0999 -0.2527
 3841TIP3   OH233013   6.249   0.288   0.961  0.7896 -1.0164  0.1041
 3841TIP3    H133014   6.170   0.233   0.963  0.5922 -0.8791 -2.1050
 3841TIP3    H233015   6.234   0.353   1.030 -0.3599 -1.8720  0.6977
 3842TIP3   OH233016   6.587   5.678  13.301 -0.1495  0.0042  0.0488
 3842TIP3    H133017   6.579   5.768  13.335 -0.3179 -0.6028  1.6913
 3842TIP3    H233018   6.500   5.640  13.315  0.4887 -1.0562  1.3432
 3843TIP3   OH233019   5.280   1.518   0.796 -0.0363 -0.6473 -0.5401
 3843TIP3    H133020   5.281   1.490   0.887  0.2854 -0.1823 -0.3922
 3843TIP3    H233021   5.305   1.611   0.799 -0.4874 -0.5032 -1.0605
 3844TIP3   OH233022   0.262   5.306   2.919  0.0847 -0.7203  0.1755
 3844TIP3    H133023   0.238   5.235   2.859  0.9761 -0.9644  0.0857
 3844TIP3    H233024   0.292   5.377   2.861  0.4123 -0.7488  0.3059
 3845TIP3   OH233025   5.560   4.569  14.676  0.1539 -0.6041  0.0272
 3845TIP3    H133026   5.631   4.620  14.636  0.0449 -0.8372 -0.4736
 3845TIP3    H233027   5.557   4.599  14.767 -0.0889  0.4729 -0.3242
 3846TIP3   OH233028   6.521   0.929   2.556 -0.6196  0.1569 -0.0432
 3846TIP3    H133029   6.547   1.004   2.503  0.2987 -1.5119 -2.1102
 3846TIP3    H233030   6.582   0.928   2.629 -1.5108  2.1460  0.8052
 3847TIP3   OH233031   4.850   0.206  16.443  0.6655 -0.0142  0.2929
 3847TIP3    H133032   4.815   0.265  16.377  0.6516 -0.7554 -0.3736
 3847TIP3    H233033   4.928   0.250  16.476 -0.9407  1.7867  1.9722
 3848TIP3   OH233034   0.237   5.331   2.488 -0.0993 -0.2022  0.0463
 3848TIP3    H133035   0.321   5.366   2.520  0.8573 -0.2388 -2.2198
 3848TIP3    H233036   0.262   5.274   2.415 -2.0923 -0.3887 -0.5353
 3849TIP3   OH233037   3.276   3.387  15.378 -0.6493 -0.0302  0.1655
 3849TIP3    H133038   3.368   3.372  15.397 -0.6637 -0.0526  0.2192
 3849TIP3    H233039   3.275   3.454  15.309 -0.5178 -1.4513 -1.2831
 3850TIP3   OH233040   2.838   3.643   0.813  0.5519  0.3832  0.1085
 3850TIP3    H133041   2.772   3.710   0.831 -1.8553 -2.0728  1.1727
 3850TIP3    H233042   2.873   3.621   0.899  0.6403 -0.3253 -0.1021
 3851TIP3   OH233043   4.971   5.185   3.055 -0.6019  0.2430  0.4513
 3851TIP3    H133044   5.063   5.159   3.045 -0.0455  2.0490  0.3860
 3851TIP3    H233045   4.941   5.201   2.966 -0.8503  0.0582  0.5027
 3852TIP3   OH233046   6.692   1.326  14.791  0.3681 -0.7326 -0.1218
 3852TIP3    H133047   6.775   1.288  14.762  0.9586  0.0560  0.4778
 3852TIP3    H233048   6.625   1.278  14.743  1.0209 -2.9194  1.0238
 3853TIP3   OH233049   4.433   6.435   3.286 -0.1711  0.3645 -0.7445
 3853TIP3    H133050   4.441   6.415   3.192  0.7735 -3.6777  0.0117
 3853TIP3    H233051   4.347   6.401   3.310 -0.4706  1.5227 -0.0952
 3854TIP3   OH233052   2.757   5.953   3.089  0.0872 -0.1813  0.2286
 3854TIP3    H133053   2.667   5.967   3.117 -0.2403 -1.7213 -0.0096
 3854TIP3    H233054   2.799   5.907   3.162  0.6713  0.4304  0.2964
 3855TIP3   OH233055   3.572   2.437   2.507  0.1932 -0.2017  0.5427
 3855TIP3    H133056   3.522   2.462   2.429  0.3270  1.1681  0.8718
 3855TIP3    H233057   3.519   2.370   2.550  0.2315 -1.1546 -0.8375
 3856TIP3   OH233058   4.030   3.243   3.748  0.3707  0.0193 -0.3758
 3856TIP3    H133059   3.963   3.250   3.816  0.4717  1.5974 -0.4043
 3856TIP3    H233060   3.982   3.253   3.666  0.6183  1.3071 -0.3912
 3857TIP3   OH233061   1.900   6.005   2.345 -0.5817 -0.4492  0.4174
 3857TIP3    H133062   1.816   6.051   2.348 -0.3285 -0.0129  0.9892
 3857TIP3    H233063   1.929   6.015   2.254 -1.1159 -0.5490  0.2306
 3858TIP3   OH233064   6.051   5.367   3.539  0.6427 -0.1447 -0.3993
 3858TIP3    H133065   5.977   5.340   3.593  0.4805 -1.1842 -1.1190
 3858TIP3    H233066   6.028   5.339   3.450  2.2273 -1.1783 -0.5158
 3859TIP3   OH233067   3.610   1.523   0.629 -0.2010  0.1068 -0.1239
 3859TIP3    H133068   3.657   1.442   0.610 -0.2525  0.3334 -1.3352
 3859TIP3    H233069   3.664   1.591   0.588 -0.2304  0.6762  0.7625
 3860TIP3   OH233070   6.729   4.658  13.177 -0.0060  0.3743 -0.2832
 3860TIP3    H133071   6.803   4.618  13.222  1.6188  1.2991 -1.9615
 3860TIP3    H233072   6.722   4.746  13.215 -0.3635  0.2328 -0.0155
 3861TIP3   OH233073   5.237   2.255   4.553 -0.7506 -0.8774 -0.1091
 3861TIP3    H133074   5.143   2.268   4.560 -0.6498 -0.3084  0.2598
 3861TIP3    H233075   5.275   2.320   4.612 -0.1465 -1.4755  0.1836
 3862TIP3   OH233076   2.969   2.036   0.323  0.2288 -0.3582  0.4462
 3862TIP3    H133077   2.928   1.950   0.330  1.2735 -0.8093  1.2100
 3862TIP3    H233078   2.990   2.061   0.413  0.1996  0.5578  0.2045
 3863TIP3   OH233079   4.876   5.479  15.524 -0.2140  0.1861 -0.2356
 3863TIP3    H133080   4.847   5.391  15.548 -0.4332 -0.1095 -1.5417
 3863TIP3    H233081   4.819   5.505  15.452  0.9179  0.7199 -0.9766
 3864TIP3   OH233082   1.972   3.828  15.633  0.1413 -0.0750 -0.1621
 3864TIP3    H133083   1.947   3.735  15.638 -0.0205 -0.1538 -1.8863
 3864TIP3    H233084   1.920   3.863  15.562 -0.9073  1.7602  1.4217
 3865TIP3   OH233085   3.108   4.143   0.038 -0.3345  0.2896 -0.4893
 3865TIP3    H133086   3.054   4.221   0.047  2.7027  2.3700  1.3567
 3865TIP3    H233087   3.056   4.073   0.078 -2.7058  1.5044 -1.2669
 3866TIP3   OH233088   4.997   3.509   3.054  0.3437 -0.1047 -0.3747
 3866TIP3    H133089   4.968   3.575   2.990 -0.6926 -1.0980 -0.9645
 3866TIP3    H233090   4.936   3.519   3.127  0.2448 -0.3397 -0.4250
 3867TIP3   OH233091   0.829   0.314   5.325  0.4865 -0.6318  0.1515
 3867TIP3    H133092   0.844   0.405   5.299  0.8521 -0.5905  0.4960
 3867TIP3    H233093   0.763   0.319   5.395 -0.0779 -0.6980 -0.3676
 3868TIP3   OH233094   5.939   6.707   5.716 -0.6107 -0.1655  0.3640
 3868TIP3    H133095   5.850   6.736   5.699  0.4239  3.0023 -0.4185
 3868TIP3    H233096   5.970   6.766   5.785  0.7398 -1.5204  0.9625
 3869TIP3   OH233097   4.157   3.248  14.908  0.5192 -0.1235  0.3432
 3869TIP3    H133098   4.246   3.215  14.916  0.5851  0.5637  3.4792
 3869TIP3    H233099   4.101   3.171  14.920  0.6398 -0.4065 -0.7720
 3870TIP3   OH233100   3.926   1.814   0.217 -0.2242  0.2521  0.6415
 3870TIP3    H133101   3.928   1.849   0.306  0.4375 -2.3366  1.7357
 3870TIP3    H233102   4.006   1.763   0.209 -0.0614  0.7349 -1.6413
 3871TIP3   OH233103   5.848   4.951   4.696 -0.2087 -0.3900 -0.0378
 3871TIP3    H133104   5.891   5.021   4.745 -2.1693  0.8648  0.0348
 3871TIP3    H233105   5.754   4.966   4.711 -0.7561 -1.8292 -1.6705
 3872TIP3   OH233106   6.199   4.190  14.150 -0.2410  0.4026  0.5116
 3872TIP3    H133107   6.266   4.123  14.136  0.1844  0.9535 -0.1978
 3872TIP3    H233108   6.235   4.245  14.219  0.0801  0.7308  0.0919
 3873TIP3   OH233109   0.251   6.160   1.892 -0.6121  0.3349  0.1940
 3873TIP3    H133110   0.262   6.071   1.860 -1.8674  0.6851 -1.3340
 3873TIP3    H233111   0.315   6.211   1.842  1.0711  0.1418  2.0340
 3874TIP3   OH233112   5.469   6.220   3.442 -0.1790 -0.6383 -0.0779
 3874TIP3    H133113   5.542   6.210   3.381 -0.3249  0.8088 -0.5109
 3874TIP3    H233114   5.511   6.232   3.527  0.1546  1.2789 -0.4781
 3875TIP3   OH233115   1.698   6.770   2.284 -0.8898 -0.0745  0.1989
 3875TIP3    H133116   1.746   6.815   2.354 -1.8411 -0.5551  1.1889
 3875TIP3    H233117   1.758   6.771   2.209  0.4013 -0.0793  1.2005
 3876TIP3   OH233118   2.109   4.960   5.409 -0.7873  0.7648 -0.3735
 3876TIP3    H133119   2.029   4.971   5.460 -1.1042  1.8915 -1.0889
 3876TIP3    H233120   2.163   5.035   5.433 -0.7763  1.0907 -1.4001
 3877TIP3   OH233121   2.147   2.053   2.809 -0.1340 -0.0477  0.2604
 3877TIP3    H133122   2.115   2.018   2.892 -0.5895 -0.5462 -0.1227
 3877TIP3    H233123   2.242   2.039   2.813 -0.2512 -0.9023  0.3185
 3878TIP3   OH233124   0.164   4.085  16.635  0.1556  0.1481  0.7388
 3878TIP3    H133125   0.080   4.130  16.620  0.8666  0.8351 -1.6006
 3878TIP3    H233126   0.155   4.047  16.723 -2.6856  0.0005  0.5003
 3879TIP3   OH233127   4.443   2.145  13.539  0.0494  0.2524  0.0181
 3879TIP3    H133128   4.400   2.061  13.528  0.9431 -0.1138 -0.9299
 3879TIP3    H233129   4.449   2.158  13.634 -2.3976  0.4983  0.1794
 3880TIP3   OH233130   2.936   3.721  12.263 -0.0137  0.0603  0.0717
 3880TIP3    H133131   2.905   3.689  12.178 -0.3870  0.8056 -0.0857
 3880TIP3    H233132   2.963   3.811  12.246  0.0104  0.1820  0.7233
 3881TIP3   OH233133   2.034   3.995   1.093  0.6235 -0.5174  0.4058
 3881TIP3    H133134   2.054   4.000   1.186 -2.0499  0.5550  1.0315
 3881TIP3    H233135   1.968   4.064   1.079  0.4729 -1.0767 -2.1320
 3882TIP3   OH233136   3.792   0.723  14.679  0.1244 -0.2153 -0.0824
 3882TIP3    H133137   3.842   0.700  14.756  0.5801 -0.3823 -0.4260
 3882TIP3    H233138   3.734   0.649  14.664 -0.8048  0.3116  0.7782
 3883TIP3   OH233139   3.910   3.976  16.856  0.4747  0.0306 -0.5946
 3883TIP3    H133140   3.856   3.955  16.932  1.6765 -0.8018  0.0603
 3883TIP3    H233141   3.952   3.893  16.832 -0.0362  0.2344 -2.3037
 3884TIP3   OH233142   5.928   6.426   0.654 -0.6963 -0.3223 -0.0494
 3884TIP3    H133143   5.851   6.444   0.708 -0.6401 -2.5459  0.8880
 3884TIP3    H233144   5.990   6.385   0.714  0.5632 -0.1512 -1.1796
 3885TIP3   OH233145   1.345   3.232  12.957  0.1826  0.3615  0.1918
 3885TIP3    H133146   1.289   3.270  13.025  0.0224 -1.2437  0.9882
 3885TIP3    H233147   1.415   3.189  13.004 -0.6722 -1.9760 -0.5423
 3886TIP3   OH233148   2.777   4.147   0.896 -0.9529 -0.8520 -0.0216
 3886TIP3    H133149   2.869   4.154   0.923 -0.9426  0.9724 -0.4461
 3886TIP3    H233150   2.729   4.197   0.962 -1.3822  0.0616 -1.0064
 3887TIP3   OH233151   0.517   3.309   4.735 -0.2280  0.1904 -0.1394
 3887TIP3    H133152   0.425   3.282   4.727 -0.2170  0.0315  0.2638
 3887TIP3    H233153   0.527   3.332   4.828  0.3456 -0.5405 -0.0152
 3888TIP3   OH233154   4.670   0.469   2.411  0.0758  0.0876 -0.3288
 3888TIP3    H133155   4.707   0.554   2.434  0.2920  0.3110 -1.4191
 3888TIP3    H233156   4.726   0.437   2.340 -0.6724 -0.4442 -0.6995
 3889TIP3   OH233157   1.795   2.705  11.439 -0.1618  0.2754  0.0089
 3889TIP3    H133158   1.714   2.720  11.390  1.2170 -0.2847 -2.5944
 3889TIP3    H233159   1.840   2.790  11.438  0.8987 -0.2716 -1.7554
 3890TIP3   OH233160   6.720   3.340  13.047  0.3377  0.3213 -0.1195
 3890TIP3    H133161   6.630   3.320  13.072  0.5403  0.0651  0.4067
 3890TIP3    H233162   6.712   3.374  12.957 -0.3560  0.9494  0.1594
 3891TIP3   OH233163   4.477   3.417  17.160 -1.0476  0.0302  0.0904
 3891TIP3    H133164   4.475   3.476  17.085 -1.8877  0.2271  0.2489
 3891TIP3    H233165   4.567   3.421  17.192 -1.1304  1.3694  0.2088
 3892TIP3   OH233166   4.043   4.586   5.783 -0.2537  0.1271  0.4086
 3892TIP3    H133167   4.012   4.499   5.809 -0.6933  0.6016  1.5089
 3892TIP3    H233168   4.082   4.622   5.862 -0.3634  1.0720  0.0398
 3893TIP3   OH233169   4.592   4.509   3.384  0.4309 -0.1783  0.5256
 3893TIP3    H133170   4.656   4.502   3.456 -0.3486  0.5735  1.3244
 3893TIP3    H233171   4.516   4.551   3.424 -1.3271 -2.7399  0.0847
 3894TIP3   OH233172   6.536   6.311  15.756  0.1583 -0.0929 -0.2667
 3894TIP3    H133173   6.464   6.295  15.817  0.7219 -0.3621  0.3406
 3894TIP3    H233174   6.516   6.396  15.717 -0.4821 -0.1593 -0.0897
 3895TIP3   OH233175   4.154   6.400   3.421  0.3350  0.5362  0.1211
 3895TIP3    H133176   4.140   6.477   3.476 -0.0556 -0.9596  2.2444
 3895TIP3    H233177   4.084   6.405   3.355  0.3606  1.9968  0.1656
 3896TIP3   OH233178   3.915   5.308   3.055 -0.5411 -0.1280  0.0374
 3896TIP3    H133179   3.888   5.326   2.965 -1.4136  0.3087  0.3682
 3896TIP3    H233180   3.997   5.355   3.066  0.2391 -1.2130 -0.9046
 3897TIP3   OH233181   2.177   1.239  11.696 -0.1637 -0.3854 -0.1862
 3897TIP3    H133182   2.174   1.176  11.768  2.5688 -2.4041 -1.6488
 3897TIP3    H233183   2.250   1.298  11.718  0.9624 -1.2665 -1.3758
 3898TIP3   OH233184   2.932   0.701  16.556 -0.1607  0.2605 -0.4424
 3898TIP3    H133185   2.928   0.774  16.618 -1.7785  0.0375 -0.2544
 3898TIP3    H233186   2.841   0.680  16.537  0.2873 -1.0815 -1.2556
 3899TIP3   OH233187   1.497   0.499  15.030  0.5054 -0.1705  0.0921
 3899TIP3    H133188   1.577   0.498  15.083  0.4905 -0.5631  0.1100
 3899TIP3    H233189   1.501   0.582  14.983  0.9880 -0.2382  0.0006
 3900TIP3   OH233190   6.715   5.639   6.512 -0.3150 -0.0392  0.4219
 3900TIP3    H133191   6.633   5.670   6.472 -0.2829  0.3765  0.6704
 3900TIP3    H233192   6.727   5.551   6.477 -0.9560 -0.1642  0.5083
 3901TIP3   OH233193   0.339   5.198   4.591  0.7375  0.1781 -0.3273
 3901TIP3    H133194   0.346   5.234   4.680  2.3667 -1.8418  0.4557
 3901TIP3    H233195   0.252   5.225   4.561  0.4023  1.4868  1.6105
 3902TIP3   OH233196   4.376   2.473   4.533  0.3771 -0.0704 -0.1263
 3902TIP3    H133197   4.362   2.379   4.523 -1.5648  0.3147 -1.5801
 3902TIP3    H233198   4.288   2.510   4.541  1.0889  1.6656  0.2330
 3903TIP3   OH233199   1.681   2.555   0.453 -0.2319  0.1442 -0.2435
 3903TIP3    H133200   1.699   2.461   0.450  0.5758  0.1424  2.2413
 3903TIP3    H233201   1.613   2.564   0.520 -0.2042  1.3347 -0.3533
 3904TIP3   OH233202   5.588   2.156  14.389  0.1581 -0.1263  0.1457
 3904TIP3    H133203   5.617   2.175  14.300  2.3407 -0.0498  0.8121
 3904TIP3    H233204   5.519   2.220  14.407  0.0540  0.1892 -1.2970
 3905TIP3   OH233205   3.849   3.938  17.117 -0.2221  0.1440 -0.3477
 3905TIP3    H133206   3.846   3.996  17.194  1.0529 -0.0834 -0.0958
 3905TIP3    H233207   3.835   3.851  17.153  0.8775 -0.0188 -0.2859
 3906TIP3   OH233208   5.166   4.174  16.597 -0.1965  0.0995 -0.5040
 3906TIP3    H133209   5.097   4.236  16.574 -0.5172 -0.6851 -1.7454
 3906TIP3    H233210   5.155   4.102  16.535  1.9264  0.1027 -0.9722
 3907TIP3   OH233211   6.691   2.390  14.978 -0.2008 -0.0329  0.0507
 3907TIP3    H133212   6.715   2.477  15.010 -0.0029  0.4823 -1.3802
 3907TIP3    H233213   6.747   2.330  15.026 -0.1871  0.6507  0.9076
 3908TIP3   OH233214   1.715   2.246   0.812  0.2678  0.2353 -0.1919
 3908TIP3    H133215   1.739   2.338   0.808 -1.5452  0.7141 -0.6646
 3908TIP3    H233216   1.770   2.210   0.882 -1.2438  2.3963  2.3107
 3909TIP3   OH233217   2.300   1.687  12.235  0.2723  0.2699 -0.4481
 3909TIP3    H133218   2.221   1.633  12.231  1.0664 -0.8835 -1.3924
 3909TIP3    H233219   2.275   1.762  12.289 -1.2792 -0.3609 -0.2268
 3910TIP3   OH233220   2.271   0.385  10.898  0.8338  0.0796  0.3739
 3910TIP3    H133221   2.340   0.352  10.841 -0.1681 -0.3456 -0.6249
 3910TIP3    H233222   2.254   0.474  10.868 -0.1455 -0.3694 -0.4453
 3911TIP3   OH233223   3.370   1.690   0.793  0.7423 -0.3253  0.0454
 3911TIP3    H133224   3.419   1.759   0.750 -0.3277  1.1855  1.1269
 3911TIP3    H233225   3.291   1.679   0.739 -0.2662  1.0838  1.1488
 3912TIP3   OH233226   2.968   5.899   1.381 -0.2142  0.1270 -0.3226
 3912TIP3    H133227   2.934   5.862   1.300 -0.4471  1.5295 -0.9038
 3912TIP3    H233228   3.021   5.829   1.420 -0.8490 -0.8738 -1.2138
 3913TIP3   OH233229   1.931   0.054   4.460  0.0765 -0.0088  0.2114
 3913TIP3    H133230   1.868   0.108   4.507 -1.4231 -2.5937  1.4043
 3913TIP3    H233231   1.887   0.033   4.377  1.1307  1.4438 -0.7605
 3914TIP3   OH233232   5.939   1.128  16.749 -0.4597  0.0503  0.4329
 3914TIP3    H133233   5.852   1.115  16.787 -1.4828  3.3495 -0.4217
 3914TIP3    H233234   5.978   1.198  16.802  0.6531  0.3078 -0.6728
 3915TIP3   OH233235   2.911   5.540   1.328  0.0158  0.2686 -0.0753
 3915TIP3    H133236   2.966   5.592   1.269  1.2537 -0.3601  0.4936
 3915TIP3    H233237   2.831   5.525   1.279  0.5676  0.7451 -1.1543
 3916TIP3   OH233238   2.237   6.624   1.627  0.0736 -0.4601 -0.1149
 3916TIP3    H133239   2.230   6.688   1.557  0.7265  2.0277  1.9447
 3916TIP3    H233240   2.329   6.629   1.656 -0.5289 -0.2138  1.9258
 3917TIP3   OH233241   3.073   0.764   1.010 -0.3433 -0.3083  0.0688
 3917TIP3    H133242   3.031   0.810   1.083 -0.1163  1.3675 -0.8145
 3917TIP3    H233243   3.026   0.680   1.005 -0.9713 -0.0812  1.5387
 3918TIP3   OH233244   2.970   0.433   2.735  0.0157  1.1266  0.2779
 3918TIP3    H133245   3.015   0.363   2.687  1.3599  1.6075  0.7806
 3918TIP3    H233246   2.986   0.512   2.683  0.0335  1.3582  0.6338
 3919TIP3   OH233247   2.747   0.840  12.857 -0.5098 -0.3884  0.0880
 3919TIP3    H133248   2.773   0.754  12.891  1.1400 -0.7346 -1.8801
 3919TIP3    H233249   2.814   0.862  12.793 -1.1032  2.2355  0.2721
 3920TIP3   OH233250   0.196   4.002  13.261  0.3423  0.2482  0.5784
 3920TIP3    H133251   0.128   3.942  13.292  0.1974 -0.5855 -1.2604
 3920TIP3    H233252   0.274   3.977  13.311  0.1990 -1.2866  0.0721
 3921TIP3   OH233253   2.558   3.853  16.816  0.4547 -0.4582 -0.1989
 3921TIP3    H133254   2.586   3.942  16.797  1.7220 -0.6008  0.8362
 3921TIP3    H233255   2.629   3.816  16.868  0.5909 -2.5106 -1.6908
 3922TIP3   OH233256   4.704   2.246  15.351 -0.5427  0.1045 -0.5306
 3922TIP3    H133257   4.640   2.310  15.322 -0.7258  0.6966  1.0837
 3922TIP3    H233258   4.652   2.169  15.374 -0.3543 -0.5447 -2.1389
 3923TIP3   OH233259   6.057   1.213   2.041  0.0805  0.4076 -0.2674
 3923TIP3    H133260   6.142   1.176   2.014 -0.7465  0.0749 -2.6981
 3923TIP3    H233261   6.069   1.307   2.034  0.2235  0.3589 -0.7218
 3924TIP3   OH233262   1.024   5.656  14.042  1.0356 -0.2307 -0.4115
 3924TIP3    H133263   1.048   5.570  14.006  0.1938  0.1713 -2.0054
 3924TIP3    H233264   0.949   5.684  13.990  0.2172  0.7323  1.2197
 3925TIP3   OH233265   0.215   3.256  13.301 -0.2608 -0.2976  0.2212
 3925TIP3    H133266   0.291   3.258  13.360 -1.1430  1.0035  1.3815
 3925TIP3    H233267   0.183   3.166  13.306  1.3668 -0.9635 -0.5528
 3926TIP3   OH233268   0.760   2.628   1.144  0.7451 -0.6795 -0.5099
 3926TIP3    H133269   0.725   2.592   1.062 -0.9188  1.2977 -0.7381
 3926TIP3    H233270   0.716   2.579   1.213 -0.8404  0.2540 -0.8143
 3927TIP3   OH233271   0.024   5.343  13.217 -0.4764  0.0947  0.1452
 3927TIP3    H133272   0.090   5.391  13.267  0.0947  0.2664 -0.7558
 3927TIP3    H233273   0.074   5.284  13.162 -1.1091 -0.2090 -0.1097
 3928TIP3   OH233274   4.064   6.137   2.686 -0.1123 -0.1425 -0.0782
 3928TIP3    H133275   3.995   6.078   2.655  1.2533 -2.3586  0.8031
 3928TIP3    H233276   4.067   6.123   2.781  1.3625  0.0624 -0.0608
 3929TIP3   OH233277   3.441   4.594   3.007  0.4583 -0.5450  0.3945
 3929TIP3    H133278   3.529   4.574   3.040  0.9901  2.2596  0.8736
 3929TIP3    H233279   3.387   4.522   3.040  2.3117 -1.6426  1.2063
 3930TIP3   OH233280   5.928   0.370  15.359 -0.4234 -0.1832  0.1694
 3930TIP3    H133281   5.861   0.395  15.295  0.9842 -0.1853 -1.3689
 3930TIP3    H233282   5.885   0.303  15.412 -1.1359 -1.4983 -1.9135
 3931TIP3   OH233283   3.320   6.164  10.900  0.3356 -0.0205  0.2949
 3931TIP3    H133284   3.362   6.247  10.877  0.6391 -0.8290 -2.5523
 3931TIP3    H233285   3.379   6.097  10.863  0.1242 -1.5535  2.5364
 3932TIP3   OH233286   0.419   1.222   4.933  0.2311  0.0705  0.0886
 3932TIP3    H133287   0.333   1.179   4.940 -0.0572  0.8263  1.6774
 3932TIP3    H233288   0.412   1.276   4.854  0.1131 -1.6613 -1.1458
 3933TIP3   OH233289   3.071   6.240   5.730  0.1027 -0.1879  0.0101
 3933TIP3    H133290   3.146   6.184   5.751  1.2979  1.1441 -0.5420
 3933TIP3    H233291   3.086   6.320   5.780 -0.2803  0.5951 -1.0940
 3934TIP3   OH233292   1.712   4.890   3.879  0.1154  0.1333  0.0067
 3934TIP3    H133293   1.660   4.812   3.863 -2.4902  1.5905  0.6860
 3934TIP3    H233294   1.758   4.906   3.797  0.5359 -1.9352 -0.2065
 3935TIP3   OH233295   4.985   5.341   0.307 -0.3207 -1.1253  0.4192
 3935TIP3    H133296   5.021   5.326   0.395  2.4266  0.3624 -0.3353
 3935TIP3    H233297   4.975   5.436   0.301 -0.0684 -1.1711 -1.0244
 3936TIP3   OH233298   5.770   6.367   2.568  0.3856  0.9362  0.0818
 3936TIP3    H133299   5.784   6.417   2.488 -0.0752 -0.6669 -1.0458
 3936TIP3    H233300   5.858   6.355   2.604  0.9437 -0.5190 -1.5974
 3937TIP3   OH233301   6.688   2.347  10.695 -0.0643  0.0053  0.1760
 3937TIP3    H133302   6.607   2.300  10.713 -0.5013 -0.0885 -1.7453
 3937TIP3    H233303   6.662   2.438  10.682  0.8996  1.2067  4.8361
 3938TIP3   OH233304   0.933   3.394   3.704  0.0044 -0.2220 -0.0847
 3938TIP3    H133305   0.863   3.364   3.763 -0.4079  0.6475 -0.1107
 3938TIP3    H233306   0.953   3.483   3.734  1.0201 -0.4135 -0.1617
 3939TIP3   OH233307   2.342   0.855  15.696  0.4008  0.1138 -0.3727
 3939TIP3    H133308   2.351   0.886  15.606  0.9484  0.4260 -0.2120
 3939TIP3    H233309   2.314   0.932  15.746 -0.3001 -0.1502 -0.3350
 3940TIP3   OH233310   5.746   5.683  14.327 -0.2257 -0.5174 -0.1508
 3940TIP3    H133311   5.759   5.597  14.367 -0.0544 -0.5701 -0.3166
 3940TIP3    H233312   5.690   5.666  14.251  0.9840 -0.7117 -1.0311
 3941TIP3   OH233313   4.667   0.775  12.505  0.5159  0.0523  0.0187
 3941TIP3    H133314   4.675   0.722  12.426  1.0357 -0.3889  0.3611
 3941TIP3    H233315   4.756   0.779  12.541  1.0127  3.1659 -1.2655
 3942TIP3   OH233316   6.349   4.869  15.885  0.1347  0.0083 -0.0436
 3942TIP3    H133317   6.357   4.801  15.952 -2.4839  0.2651  0.6165
 3942TIP3    H233318   6.384   4.947  15.927 -0.9374  0.0308  0.8601
 3943TIP3   OH233319   1.873   1.624   5.939  0.0963 -0.0580 -0.0577
 3943TIP3    H133320   1.913   1.551   5.987  1.3214 -0.7587 -2.0116
 3943TIP3    H233321   1.838   1.681   6.007 -0.4616 -2.1973  1.5689
 3944TIP3   OH233322   2.644   1.562  15.747 -0.1221 -0.0983  0.3931
 3944TIP3    H133323   2.608   1.649  15.760 -0.9511 -0.2726 -0.5824
 3944TIP3    H233324   2.735   1.576  15.724 -0.5342  0.5803 -0.8770
 3945TIP3   OH233325   0.445   0.044   5.757 -0.2928 -0.2107 -0.2750
 3945TIP3    H133326   0.427  -0.028   5.696  0.1269  0.2531 -0.9565
 3945TIP3    H233327   0.360   0.083   5.774 -0.4418 -0.4796 -0.3900
 3946TIP3   OH233328   5.450   5.850   4.155  0.0890 -0.1089  0.6821
 3946TIP3    H133329   5.542   5.832   4.137  0.0285 -1.0966  1.2831
 3946TIP3    H233330   5.415   5.767   4.187 -0.1397  1.0958  3.9485
 3947TIP3   OH233331   5.703   5.367  10.443 -0.1978  0.9666 -0.7679
 3947TIP3    H133332   5.687   5.437  10.379 -0.0929  0.8909 -0.8779
 3947TIP3    H233333   5.786   5.392  10.484 -1.2808  2.1394  0.8358
 3948TIP3   OH233334   6.817   3.528  16.029 -0.9355 -0.8008  0.0206
 3948TIP3    H133335   6.854   3.442  16.050  0.7601  0.0302  0.6169
 3948TIP3    H233336   6.851   3.548  15.942 -0.4861 -0.3065  0.3057
 3949TIP3   OH233337   2.237   4.305  15.825  0.4988  0.0982  0.4592
 3949TIP3    H133338   2.253   4.304  15.920 -1.4161  1.9120  0.8599
 3949TIP3    H233339   2.258   4.395  15.799 -0.2909 -0.0167 -0.5988
 3950TIP3   OH233340   4.475   0.458  15.551 -0.1962 -0.4201 -0.2118
 3950TIP3    H133341   4.462   0.463  15.457  0.1952 -0.5099 -0.2718
 3950TIP3    H233342   4.535   0.385  15.564 -0.3902 -0.5225  0.1208
 3951TIP3   OH233343   3.821   6.412   1.606 -0.0446  0.0288  0.0164
 3951TIP3    H133344   3.796   6.328   1.569 -0.9156 -0.7146  2.0959
 3951TIP3    H233345   3.758   6.426   1.677 -0.0584  2.5546 -0.3934
 3952TIP3   OH233346   1.741   6.364  11.528  0.2652  0.3061  0.6293
 3952TIP3    H133347   1.769   6.440  11.579  1.5632 -0.9402  1.8647
 3952TIP3    H233348   1.806   6.296  11.548 -0.2721 -0.8425 -1.2154
 3953TIP3   OH233349   2.641   4.683  15.094  0.2845 -0.0371 -0.1534
 3953TIP3    H133350   2.634   4.597  15.052 -0.9162  0.4850 -1.0799
 3953TIP3    H233351   2.646   4.663  15.188  0.2526 -1.1232 -0.3656
 3954TIP3   OH233352   1.154   0.364  13.817  0.1279 -0.1913  0.0144
 3954TIP3    H133353   1.235   0.359  13.766  0.5515  3.2325  0.1276
 3954TIP3    H233354   1.085   0.368  13.752  0.4798  1.5814 -0.3060
 3955TIP3   OH233355   2.668   2.055   3.511 -0.7516 -0.4009 -0.3197
 3955TIP3    H133356   2.603   2.097   3.567 -1.0467 -0.0942 -0.8746
 3955TIP3    H233357   2.698   2.125   3.454 -0.1463 -0.6116 -0.2603
 3956TIP3   OH233358   2.960   4.788   5.167 -0.2639 -0.7317 -0.0259
 3956TIP3    H133359   2.931   4.759   5.081  2.5401  0.1764 -1.3822
 3956TIP3    H233360   2.948   4.883   5.166  2.0409 -0.3876 -0.4457
 3957TIP3   OH233361   6.150   4.413  11.154 -0.3160  0.0045  0.0050
 3957TIP3    H133362   6.071   4.393  11.104  0.1255 -1.3900 -0.1775
 3957TIP3    H233363   6.210   4.450  11.090  0.3306 -1.9869 -0.6025
 3958TIP3   OH233364   4.626   2.545  14.703 -0.4145 -0.0751 -0.0367
 3958TIP3    H133365   4.662   2.591  14.627 -0.3171  1.7441  1.0575
 3958TIP3    H233366   4.580   2.612  14.752 -1.9101 -1.5610  0.6815
 3959TIP3   OH233367   0.294   0.806   5.605  0.0297  0.1613 -0.5649
 3959TIP3    H133368   0.319   0.714   5.606  0.2115  0.1986  0.9916
 3959TIP3    H233369   0.235   0.814   5.530  0.3261 -1.1240 -0.9625
 3960TIP3   OH233370   1.116   2.718   1.189 -0.0135  0.5250 -0.5004
 3960TIP3    H133371   1.075   2.788   1.139 -0.8061  0.1771 -0.3555
 3960TIP3    H233372   1.049   2.691   1.252  0.9284  0.8713  0.6734
 3961TIP3   OH233373   3.679   0.241   3.436  0.6199  0.5472  0.5218
 3961TIP3    H133374   3.657   0.334   3.429 -2.3722 -0.0052  1.2364
 3961TIP3    H233375   3.687   0.212   3.345  0.5414  1.2777  0.2716
 3962TIP3   OH233376   5.485   2.748  13.307 -0.2454 -0.1258  0.1274
 3962TIP3    H133377   5.518   2.692  13.237 -1.6608  0.1654 -0.8230
 3962TIP3    H233378   5.524   2.833  13.290  1.2649 -0.5863  1.1001
 3963TIP3   OH233379   0.621   2.903  16.491 -0.1806  0.0165  0.2764
 3963TIP3    H133380   0.535   2.940  16.476 -0.6245 -0.1819  2.1080
 3963TIP3    H233381   0.640   2.922  16.583  0.5962 -2.1662  0.6275
 3964TIP3   OH233382   5.430   0.303  10.763 -0.5376 -0.4815 -0.5686
 3964TIP3    H133383   5.458   0.372  10.704  0.3443 -1.0920 -0.8893
 3964TIP3    H233384   5.494   0.232  10.750 -0.4182 -0.7071  0.9749
 3965TIP3   OH233385   1.172   1.126   1.397 -0.1393 -0.8213  0.0870
 3965TIP3    H133386   1.175   1.220   1.377 -0.0209 -1.0271 -0.9409
 3965TIP3    H233387   1.078   1.105   1.396 -0.1639 -0.7268  0.2807
 3966TIP3   OH233388   1.841   4.857  15.791  0.0856 -0.9001 -0.3139
 3966TIP3    H133389   1.785   4.788  15.825 -0.1945 -0.2110  0.6767
 3966TIP3    H233390   1.920   4.853  15.845 -1.0127  1.2491  1.6583
 3967TIP3   OH233391   4.341   5.163   5.069  0.0742 -0.1375 -0.7420
 3967TIP3    H133392   4.354   5.183   5.161  0.5259 -0.2495 -0.7789
 3967TIP3    H233393   4.309   5.244   5.031 -2.0332 -0.6232 -0.1188
 3968TIP3   OH233394   5.114   4.657   5.933  0.0074  0.0632  0.5210
 3968TIP3    H133395   5.067   4.739   5.919 -0.4627 -0.6197 -2.4210
 3968TIP3    H233396   5.177   4.678   6.002 -0.6292  2.6462  0.4392
 3969TIP3   OH233397   6.440   3.245  15.048 -0.3238  0.7208 -0.1138
 3969TIP3    H133398   6.384   3.168  15.040  1.2889 -0.3294 -2.1881
 3969TIP3    H233399   6.398   3.311  14.993 -0.4490  0.5137 -0.2681
 3970TIP3   OH233400   2.266   6.179   5.093  0.0642 -0.3998 -0.4934
 3970TIP3    H133401   2.182   6.220   5.112 -0.4042  0.1541 -3.3565
 3970TIP3    H233402   2.259   6.150   5.002  2.7121 -1.0076 -0.5868
 3971TIP3   OH233403   0.977   3.793  15.749 -0.4595  0.4311 -0.1681
 3971TIP3    H133404   0.947   3.796  15.840  1.4241  0.5241  0.4738
 3971TIP3    H233405   0.983   3.885  15.723  0.5410  0.4674  0.1565
 3972TIP3   OH233406   4.798   6.332   5.827  0.0341 -0.5323  0.4681
 3972TIP3    H133407   4.799   6.254   5.882 -1.1978 -1.3446 -0.6168
 3972TIP3    H233408   4.843   6.306   5.746 -4.0459 -1.6420 -1.7240
 3973TIP3   OH233409   3.247   5.119   3.586 -0.5142  0.0689  0.0490
 3973TIP3    H133410   3.178   5.158   3.532 -1.5395 -0.0985  1.2041
 3973TIP3    H233411   3.305   5.192   3.606 -0.3812  0.2291 -0.8840
 3974TIP3   OH233412   5.132   1.853   0.291 -0.0229 -0.3924 -0.8952
 3974TIP3    H133413   5.168   1.765   0.274 -0.8653 -0.6789 -1.2730
 3974TIP3    H233414   5.194   1.912   0.249 -0.0365 -0.8864 -1.6373
 3975TIP3   OH233415   3.071   1.473   5.210 -0.2772  0.1614 -0.3712
 3975TIP3    H133416   3.164   1.452   5.221 -0.1877  0.2274 -0.9838
 3975TIP3    H233417   3.025   1.400   5.253  0.0374 -1.2504 -2.2902
 3976TIP3   OH233418   0.990   1.779  15.890 -0.2546  0.2972  0.3467
 3976TIP3    H133419   0.956   1.806  15.805  0.2265 -1.4475 -0.4377
 3976TIP3    H233420   1.084   1.773  15.878 -0.3260 -1.5268  0.5178
 3977TIP3   OH233421   3.495   3.421   0.481  0.3505  0.1798 -0.2832
 3977TIP3    H133422   3.579   3.392   0.518 -0.1582  0.2837  1.0144
 3977TIP3    H233423   3.495   3.516   0.492 -0.1392  0.1316  0.1897
 3978TIP3   OH233424   1.438   4.600  15.228  0.1581  0.2363  0.4219
 3978TIP3    H133425   1.372   4.609  15.298 -0.4355  0.2516 -0.1353
 3978TIP3    H233426   1.408   4.659  15.159 -0.2054 -1.0858 -0.5742
 3979TIP3   OH233427   2.224   3.773  15.400  0.5941 -0.4755  0.3466
 3979TIP3    H133428   2.150   3.731  15.356  0.3643  1.2699 -1.0625
 3979TIP3    H233429   2.191   3.794  15.487  0.4319 -2.3260  0.7734
 3980TIP3   OH233430   4.456   2.742  10.706 -0.0744 -1.0531 -0.4832
 3980TIP3    H133431   4.547   2.716  10.724 -0.1535 -0.6922  0.4756
 3980TIP3    H233432   4.461   2.836  10.692 -0.4764 -0.8049  0.9060
 3981TIP3   OH233433   4.884   0.082  11.393 -0.1692 -0.5572  0.2542
 3981TIP3    H133434   4.825   0.148  11.427  1.7424  0.6191  1.4465
 3981TIP3    H233435   4.963   0.130  11.368  1.1283 -2.3230  0.7478
 3982TIP3   OH233436   4.210   4.234  16.156 -0.2162 -0.1234  0.1436
 3982TIP3    H133437   4.196   4.237  16.250 -0.5200  2.3438  0.0990
 3982TIP3    H233438   4.165   4.311  16.122  1.7352  0.3242 -1.7278
 3983TIP3   OH233439   3.075   1.511  13.291 -0.1645 -0.0871 -0.4144
 3983TIP3    H133440   3.113   1.444  13.348 -1.5250 -2.2488 -1.9249
 3983TIP3    H233441   3.150   1.564  13.264  0.7349  0.0688  2.0749
 3984TIP3   OH233442   3.380   4.559  12.115  0.1446 -0.3739  0.4013
 3984TIP3    H133443   3.362   4.468  12.094  1.3471 -1.1552  2.4302
 3984TIP3    H233444   3.395   4.601  12.031 -2.2087 -1.6078 -0.7068
 3985TIP3   OH233445   2.337   0.799  16.176  0.3741 -0.3262 -0.2897
 3985TIP3    H133446   2.297   0.812  16.262  1.5628 -0.1547  0.2575
 3985TIP3    H233447   2.280   0.736  16.132 -1.8608  1.7346 -0.4964
 3986TIP3   OH233448   0.274   0.612   2.463 -0.2376 -0.6152  1.0123
 3986TIP3    H133449   0.305   0.571   2.382  0.2292  0.7210  0.4907
 3986TIP3    H233450   0.355   0.636   2.509 -0.4898 -1.9121  2.1853
 3987TIP3   OH233451   5.057   6.782   0.835 -0.2563  0.8304 -0.1664
 3987TIP3    H133452   4.990   6.728   0.878  0.4889  0.1499  0.1794
 3987TIP3    H233453   5.076   6.851   0.899  0.5268  0.0761  0.4619
 3988TIP3   OH233454   6.070   3.330  13.175  0.0595  0.5069 -0.2690
 3988TIP3    H133455   6.104   3.359  13.259 -0.1170  0.8274 -0.3053
 3988TIP3    H233456   6.090   3.237  13.172  1.0225  0.7094 -0.3401
 3989TIP3   OH233457   5.945   6.486  14.389 -0.4821  0.0309  0.6359
 3989TIP3    H133458   5.925   6.524  14.475 -1.0372 -0.0869  0.5628
 3989TIP3    H233459   5.869   6.509  14.335 -1.2099 -1.8275  0.7900
 3990TIP3   OH233460   1.707   2.513   2.288  0.3355  0.0389  0.3245
 3990TIP3    H133461   1.792   2.468   2.290  1.2558  1.6798  0.1651
 3990TIP3    H233462   1.646   2.451   2.328  1.5533 -1.2873  0.2076
 3991TIP3   OH233463   6.383   6.737  10.483 -0.7031  0.3518  0.1350
 3991TIP3    H133464   6.396   6.649  10.448  3.2807 -0.2263  2.4479
 3991TIP3    H233465   6.442   6.792  10.432 -0.9381  1.0602  0.6114
 3992TIP3   OH233466   0.541   4.684   4.294  0.2532 -0.3712 -0.1235
 3992TIP3    H133467   0.532   4.611   4.232  0.7371 -1.8792  1.5059
 3992TIP3    H233468   0.590   4.647   4.367 -0.7777  1.1975  1.4263
 3993TIP3   OH233469   1.623   5.604   0.409  0.2031 -0.0915  0.3892
 3993TIP3    H133470   1.596   5.570   0.495  2.2231 -1.3585  0.5971
 3993TIP3    H233471   1.550   5.582   0.351 -1.0537  0.4763  1.7002
 3994TIP3   OH233472   6.648   1.574   2.669  0.2151  0.2092  0.0348
 3994TIP3    H133473   6.607   1.634   2.731 -0.1951  1.3556 -1.3068
 3994TIP3    H233474   6.721   1.623   2.631 -0.9723  0.4483 -2.1196
 3995TIP3   OH233475   3.410   1.560  11.538  0.3392 -0.5130 -0.2578
 3995TIP3    H133476   3.324   1.537  11.573  0.0046  1.3408  0.2436
 3995TIP3    H233477   3.472   1.539  11.609 -0.2667  2.6121  1.3962
 3996TIP3   OH233478   1.461   4.899  13.919  0.1969 -0.5185 -0.2349
 3996TIP3    H133479   1.530   4.848  13.878  1.1272 -1.1245  1.9601
 3996TIP3    H233480   1.381   4.871  13.874  1.1838 -0.7265 -1.9568
 3997TIP3   OH233481   2.002   3.039   0.503 -0.2893 -0.4793 -0.3858
 3997TIP3    H133482   2.009   2.952   0.541 -2.2982 -1.9142 -2.9484
 3997TIP3    H233483   1.943   3.028   0.428 -1.6407  3.3300 -0.1288
 3998TIP3   OH233484   4.527   1.715  11.310  0.1763 -0.0023  0.0814
 3998TIP3    H133485   4.518   1.808  11.291  0.2682  0.0067  0.0812
 3998TIP3    H233486   4.505   1.671  11.228 -1.1754 -0.0397  0.4248
 3999TIP3   OH233487   5.011   5.859  12.553  0.1879  0.3525  0.5166
 3999TIP3    H133488   5.103   5.850  12.578  0.4340  0.6501 -0.2336
 3999TIP3    H233489   4.988   5.949  12.575 -0.3248 -0.0995  1.9197
 4000TIP3   OH233490   0.133   0.019  13.333 -0.0330 -0.1818  0.0600
 4000TIP3    H133491   0.218   0.059  13.352 -0.0305  0.0061 -0.3455
 4000TIP3    H233492   0.073   0.056  13.398 -0.1013  0.7273 -0.5094
 4001TIP3   OH233493   0.128   0.996   2.031  0.4061  0.1845 -0.1386
 4001TIP3    H133494   0.110   1.089   2.017 -2.1695 -0.0893  0.7680
 4001TIP3    H233495   0.043   0.954   2.016  1.3622 -1.9368  0.1642
 4002TIP3   OH233496   1.483   2.051  15.709  0.1263  0.4346 -0.5994
 4002TIP3    H133497   1.563   2.102  15.722  1.1363 -1.4779  1.7120
 4002TIP3    H233498   1.510   1.978  15.653 -0.3651  0.5577 -0.9961
 4003TIP3   OH233499   3.196   4.085  12.470  0.2785  0.2275  0.6174
 4003TIP3    H133500   3.152   4.028  12.534 -0.9448 -1.2221 -1.4040
 4003TIP3    H233501   3.287   4.087  12.500 -0.3562  0.1044  2.7275
 4004TIP3   OH233502   3.160   6.387  15.840 -0.1801 -0.3652  0.4820
 4004TIP3    H133503   3.145   6.403  15.746 -1.4277 -0.7751  0.5965
 4004TIP3    H233504   3.091   6.325  15.865  0.7497 -1.0393  1.4501
 4005TIP3   OH233505   1.220   3.656  14.145  0.2602  0.2597 -0.0328
 4005TIP3    H133506   1.179   3.719  14.085 -0.6124 -0.3910 -0.1284
 4005TIP3    H233507   1.189   3.682  14.232  0.2334  0.2155 -0.0293
 4006TIP3   OH233508   6.489   0.457   4.271 -0.3587  0.5718  0.0312
 4006TIP3    H133509   6.507   0.530   4.331  1.2016 -0.0155  0.3203
 4006TIP3    H233510   6.573   0.437   4.231 -0.9561 -0.4531 -0.7757
 4007TIP3   OH233511   4.288   0.431   4.415  0.1134 -0.3180 -0.3664
 4007TIP3    H133512   4.238   0.398   4.489  2.8518  0.1753  1.8670
 4007TIP3    H233513   4.322   0.352   4.372 -1.6212 -0.6093 -1.3119
 4008TIP3   OH233514   4.888   3.595   6.247 -0.0024  0.0356  0.0444
 4008TIP3    H133515   4.967   3.601   6.301 -0.0652  0.6663  0.0796
 4008TIP3    H233516   4.867   3.502   6.245 -2.4203  0.1652  4.6566
 4009TIP3   OH233517   2.726   1.762   0.637  0.6634 -0.1828 -0.4130
 4009TIP3    H133518   2.814   1.737   0.663 -0.1898 -0.2097  3.0158
 4009TIP3    H233519   2.738   1.841   0.585  2.6974  1.1656  1.8657
 4010TIP3   OH233520   4.457   4.749  14.361 -0.2157  0.3429  0.0834
 4010TIP3    H133521   4.473   4.727  14.453  0.4352 -0.3519 -0.1866
 4010TIP3    H233522   4.395   4.682  14.331  0.3756 -0.0674 -0.2527
 4011TIP3   OH233523   1.981   0.795   0.296  0.1187  0.3381  0.8241
 4011TIP3    H133524   2.021   0.880   0.313 -0.2830  0.6551  0.2431
 4011TIP3    H233525   2.014   0.769   0.210  0.6948 -0.3739  1.2454
 4012TIP3   OH233526   5.235   3.933   2.729  0.0693 -0.0199 -0.0686
 4012TIP3    H133527   5.319   3.977   2.742 -0.6604  2.0878 -1.9826
 4012TIP3    H233528   5.239   3.900   2.639 -1.9361  2.1127 -1.0373
 4013TIP3   OH233529   3.028   0.064  16.969  0.0393  0.2377  0.3827
 4013TIP3    H133530   3.086  -0.006  16.999 -0.3749 -0.2809  0.0026
 4013TIP3    H233531   3.076   0.107  16.898  0.3525  0.4277  0.7115
 4014TIP3   OH233532   0.198   2.319   4.101 -0.2224  0.6938 -0.0762
 4014TIP3    H133533   0.157   2.370   4.031 -0.3398 -0.1328 -0.6303
 4014TIP3    H233534   0.275   2.281   4.059  0.0313  0.6594  0.4172
 4015TIP3   OH233535   0.435   5.389  12.943  0.0387  0.0637  0.2747
 4015TIP3    H133536   0.519   5.420  12.910 -0.3236 -0.4940 -1.2657
 4015TIP3    H233537   0.376   5.463  12.932  0.1436  0.2100  0.6604
 4016TIP3   OH233538   2.830   3.634   4.036  0.0899  0.1851 -0.6955
 4016TIP3    H133539   2.756   3.672   3.988 -1.2645 -1.6749 -0.2142
 4016TIP3    H233540   2.866   3.569   3.977 -1.0603 -1.5266  0.3974
 4017TIP3   OH233541   2.930   4.618  14.554  0.0631 -0.5805 -0.0972
 4017TIP3    H133542   3.002   4.555  14.553 -0.0456 -0.7020 -0.9300
 4017TIP3    H233543   2.968   4.697  14.592  0.6372 -0.6588 -0.4921
 4018TIP3   OH233544   6.463   6.146   0.983  0.8492 -0.3650 -0.3375
 4018TIP3    H133545   6.388   6.096   1.016  1.3309 -1.0052 -0.1839
 4018TIP3    H233546   6.441   6.166   0.892  0.3768 -0.3127 -0.2161
 4019TIP3   OH233547   1.122   5.788  15.524 -0.1793 -0.4429 -0.5170
 4019TIP3    H133548   1.194   5.728  15.502 -0.8229 -1.1174 -0.8307
 4019TIP3    H233549   1.162   5.853  15.581  0.5590 -1.1450 -0.2071
 4020TIP3   OH233550   2.844   4.664  14.831  0.0086 -0.2454  0.1105
 4020TIP3    H133551   2.792   4.584  14.820 -0.4017 -0.0313  0.4586
 4020TIP3    H233552   2.920   4.637  14.884  1.5045 -1.0745 -2.3150
 4021TIP3   OH233553   5.067   0.301   3.121  0.0908  0.1183 -0.2558
 4021TIP3    H133554   5.095   0.243   3.191  1.8222 -0.3857 -1.2979
 4021TIP3    H233555   5.133   0.290   3.052  0.4360  3.1673 -0.5865
 4022TIP3   OH233556   4.431   5.259   2.099  0.4261 -0.3360  0.0973
 4022TIP3    H133557   4.504   5.232   2.043  1.4852  2.4708 -0.0443
 4022TIP3    H233558   4.421   5.187   2.161  2.7496 -1.2207 -0.4227
 4023TIP3   OH233559   2.353   5.470   4.556 -0.2329  0.9256  0.3637
 4023TIP3    H133560   2.259   5.480   4.572 -0.4979  1.5027 -1.3907
 4023TIP3    H233561   2.366   5.499   4.466  1.7503  1.4751  0.7793
 4024TIP3   OH233562   2.548   1.036  15.845  0.0950  0.0627  0.2072
 4024TIP3    H133563   2.550   0.951  15.890  1.4355  0.9913  2.0494
 4024TIP3    H233564   2.460   1.069  15.859 -0.6195 -1.2314 -1.0091
 4025TIP3   OH233565   6.785   0.354   3.263 -0.5901 -0.5686  0.6941
 4025TIP3    H133566   6.877   0.378   3.273 -0.6364  0.5674 -1.2065
 4025TIP3    H233567   6.775   0.336   3.170 -2.4943  0.3024  0.6911
 4026TIP3   OH233568   1.016   6.219   1.329 -0.0170 -0.7060 -0.6967
 4026TIP3    H133569   1.065   6.269   1.394 -1.6120  1.1913 -0.8463
 4026TIP3    H233570   0.971   6.151   1.379 -2.5957  1.7541  0.6165
 4027TIP3   OH233571   2.041   0.582   1.409 -0.5642  0.3005  0.0494
 4027TIP3    H133572   2.104   0.533   1.461  0.7560 -0.1832 -1.8652
 4027TIP3    H233573   2.095   0.642   1.357 -1.6503 -0.1362 -1.6772
 4028TIP3   OH233574   0.428   2.512   4.080  0.0375  0.2259  0.0162
 4028TIP3    H133575   0.487   2.587   4.083  1.1310 -0.6243  1.3456
 4028TIP3    H233576   0.444   2.471   3.995  1.1499  0.2046  0.2237
 4029TIP3   OH233577   0.757   2.311   3.354 -0.4392 -0.1908  0.3277
 4029TIP3    H133578   0.667   2.339   3.337 -0.3216 -0.0887 -0.1254
 4029TIP3    H233579   0.800   2.313   3.268  0.3620  1.0356  0.7315
 4030TIP3   OH233580   6.394   1.942   6.610 -0.5893  0.3547  0.1783
 4030TIP3    H133581   6.364   2.013   6.666 -0.3634 -0.0155  0.7754
 4030TIP3    H233582   6.487   1.960   6.595 -0.5321  0.1868  0.3294
 4031TIP3   OH233583   2.383   5.397  14.172 -0.2804  0.1539  0.6223
 4031TIP3    H133584   2.436   5.475  14.190 -0.4870  0.3203  0.5102
 4031TIP3    H233585   2.395   5.342  14.250 -1.7201  1.1707  1.6305
 4032TIP3   OH233586   0.216   0.182  10.895 -0.3316 -0.0110  0.9184
 4032TIP3    H133587   0.230   0.275  10.883 -2.1877  0.1387 -0.4959
 4032TIP3    H233588   0.286   0.140  10.846  0.6574  0.6036  1.7681
 4033TIP3   OH233589   3.021   1.712  11.730 -0.0391  0.5410 -0.1326
 4033TIP3    H133590   3.043   1.666  11.649 -0.7360  1.4518 -0.8561
 4033TIP3    H233591   3.032   1.805  11.709 -0.6935  0.8103  0.6702
 4034TIP3   OH233592   5.351   5.830  14.024 -0.1843 -0.1773 -0.6873
 4034TIP3    H133593   5.302   5.877  14.092 -1.1364  0.3622 -1.7117
 4034TIP3    H233594   5.421   5.786  14.071  0.6643  2.1353  0.3543
 4035TIP3   OH233595   5.138   0.706  14.839 -0.2343 -0.0055  0.1272
 4035TIP3    H133596   5.137   0.783  14.782  1.6527  1.6827  2.2021
 4035TIP3    H233597   5.104   0.737  14.923  1.9339 -0.9816  1.4586
 4036TIP3   OH233598   5.757   0.122   3.300  0.2986  0.6119 -0.1640
 4036TIP3    H133599   5.677   0.172   3.318 -1.2977 -0.1645 -4.0530
 4036TIP3    H233600   5.820   0.186   3.270 -0.1225  0.8550 -0.5433
 4037TIP3   OH233601   4.838   0.200   1.742  0.2357  0.0451  0.0287
 4037TIP3    H133602   4.897   0.185   1.668  0.9379 -2.3807  0.9778
 4037TIP3    H233603   4.840   0.117   1.791 -2.2418  0.6809  1.3312
 4038TIP3   OH233604   0.440   6.610  12.214 -0.4691 -0.0970 -0.1061
 4038TIP3    H133605   0.477   6.606  12.303  1.3568 -3.1637 -0.8426
 4038TIP3    H233606   0.348   6.586  12.225 -0.9912  2.1890  1.1639
 4039TIP3   OH233607   0.218   2.183   4.380 -0.2155 -0.0119  0.1428
 4039TIP3    H133608   0.234   2.272   4.350  0.4475 -0.3252 -0.4736
 4039TIP3    H233609   0.278   2.172   4.454  0.9953 -0.5004 -0.8700
 4040TIP3   OH233610   0.404   1.761   0.741  0.3627 -0.6214  0.4237
 4040TIP3    H133611   0.459   1.719   0.807  1.4967  1.3357  0.7944
 4040TIP3    H233612   0.386   1.692   0.677  1.8378 -1.7493  1.1684
 4041TIP3   OH233613   4.906   0.605   4.047  0.0414  0.3051  0.4004
 4041TIP3    H133614   4.874   0.672   3.987  1.2015  0.2306 -0.3287
 4041TIP3    H233615   4.907   0.647   4.133  1.5636  1.5320 -0.1666
 4042TIP3   OH233616   5.454   0.175  13.780  0.1701  0.0972 -0.6279
 4042TIP3    H133617   5.548   0.172  13.792  0.0321 -1.1823  0.3809
 4042TIP3    H233618   5.441   0.231  13.703  1.8805 -1.6091 -2.2676
 4043TIP3   OH233619   5.337   3.723   0.599  0.3515 -0.1918 -0.2940
 4043TIP3    H133620   5.323   3.721   0.694  1.5788  1.7797 -0.0210
 4043TIP3    H233621   5.427   3.694   0.587 -0.2078 -1.8101 -1.0504
 4044TIP3   OH233622   0.932   4.856  15.577  0.2139  0.4174  0.4150
 4044TIP3    H133623   0.898   4.889  15.493 -0.2091 -0.9213  0.0316
 4044TIP3    H233624   1.025   4.879  15.575  0.1167  0.7940 -0.2345
 4045TIP3   OH233625   2.229   1.130  14.814  0.0205 -0.9659  0.1984
 4045TIP3    H133626   2.299   1.083  14.861 -0.8030 -0.7508  1.7108
 4045TIP3    H233627   2.263   1.141  14.725  1.6922 -1.3251  0.7560
 4046TIP3   OH233628   3.366   6.763  13.525 -0.2897 -0.1444  0.2648
 4046TIP3    H133629   3.369   6.687  13.467  0.2341  0.3068 -0.3140
 4046TIP3    H233630   3.385   6.837  13.468 -0.8415  0.4303  0.8177
 4047TIP3   OH233631   1.981   4.447  13.081  0.2469 -0.0136 -0.2358
 4047TIP3    H133632   2.054   4.391  13.107 -0.9598 -1.9113 -0.7593
 4047TIP3    H233633   2.008   4.485  12.998 -0.0882 -2.2593 -1.4317
 4048TIP3   OH233634   5.756   2.533  12.010 -0.0280  0.1300 -0.3926
 4048TIP3    H133635   5.714   2.447  11.998 -2.1218  1.1469 -0.8596
 4048TIP3    H233636   5.699   2.578  12.073  2.5007  0.3084  1.9475
 4049TIP3   OH233637   1.157   4.657   4.248  0.1871  0.3030 -0.4074
 4049TIP3    H133638   1.083   4.649   4.308 -0.2493  2.7381 -0.5019
 4049TIP3    H233639   1.231   4.619   4.295 -0.8171 -0.8517  0.2790
 4050TIP3   OH233640   1.314   5.277   4.816  0.0736  0.0778 -0.1516
 4050TIP3    H133641   1.376   5.257   4.745  0.3670 -0.0004  0.1235
 4050TIP3    H233642   1.253   5.204   4.816  0.9004 -0.6447  0.5832
 4051TIP3   OH233643   4.195   6.156   4.601  0.1046  0.0985  0.4994
 4051TIP3    H133644   4.252   6.157   4.525  3.6909  1.1057  2.9495
 4051TIP3    H233645   4.209   6.070   4.641 -0.8211  0.0188  0.6827
 4052TIP3   OH233646   1.480   4.603   6.621 -0.1393 -0.0998 -0.2622
 4052TIP3    H133647   1.524   4.525   6.589  0.5166  1.2116 -2.8065
 4052TIP3    H233648   1.545   4.646   6.678  0.9203  0.4188 -1.8044
 4053TIP3   OH233649   5.103   5.092   4.036 -0.1338 -0.0600  0.2506
 4053TIP3    H133650   5.157   5.025   4.078  1.9797  1.7336  0.5971
 4053TIP3    H233651   5.033   5.110   4.100  0.9356  0.0465  1.4411
 4054TIP3   OH233652   2.049   5.666   1.519  0.2844  0.2853  0.2577
 4054TIP3    H133653   2.059   5.750   1.475 -0.4991  1.5982  2.3772
 4054TIP3    H233654   1.989   5.616   1.464  2.0156  0.4343 -1.8589
 4055TIP3   OH233655   3.488   0.436  15.181 -0.3583  0.0249 -0.7199
 4055TIP3    H133656   3.482   0.349  15.220 -1.3566  1.2400  2.1110
 4055TIP3    H233657   3.438   0.492  15.240  1.0312  2.7053 -1.9150
 4056TIP3   OH233658   0.249   4.398  14.351  0.0865 -0.0716 -0.7281
 4056TIP3    H133659   0.274   4.401  14.258  1.1433 -0.9507 -0.4944
 4056TIP3    H233660   0.161   4.361  14.351 -0.3032  0.8059 -1.4305
 4057TIP3   OH233661   1.864   4.407  16.890 -0.2603 -0.0436  0.4971
 4057TIP3    H133662   1.941   4.391  16.836  0.9635  0.0587  2.1227
 4057TIP3    H233663   1.860   4.332  16.949 -0.2712  0.8494  1.6744
 4058TIP3   OH233664   5.594   1.785   3.898  0.1589 -0.0004 -0.2735
 4058TIP3    H133665   5.617   1.866   3.852 -1.1033  0.5456  0.0294
 4058TIP3    H233666   5.631   1.795   3.985 -2.1964  1.4484  0.6455
 4059TIP3   OH233667   1.678   2.271  15.086 -0.3013 -0.7352 -0.1008
 4059TIP3    H133668   1.729   2.352  15.077  0.2644 -0.8101  1.8873
 4059TIP3    H233669   1.598   2.287  15.037 -0.1989  1.0477  0.2472
 4060TIP3   OH233670   2.465   6.615   0.542 -0.4456  0.2176 -0.9176
 4060TIP3    H133671   2.474   6.612   0.447  2.1680 -1.6445 -0.7482
 4060TIP3    H233672   2.527   6.684   0.569  2.1651 -2.1112 -0.4733
 4061TIP3   OH233673   1.185   0.304  16.783  0.0433  0.0661  0.2042
 4061TIP3    H133674   1.116   0.299  16.849  0.9482  0.8392  1.2224
 4061TIP3    H233675   1.194   0.214  16.751  0.9427 -0.7389  2.5480
 4062TIP3   OH233676   5.571   0.678  11.706  0.4622  0.2885  0.3876
 4062TIP3    H133677   5.478   0.702  11.696  0.3769 -0.4118 -0.6832
 4062TIP3    H233678   5.618   0.756  11.675  0.1918 -0.2450 -1.5224
 4063TIP3   OH233679   4.591   1.649   1.548  0.1448 -0.5623  0.1989
 4063TIP3    H133680   4.563   1.560   1.523  1.6509 -1.2173  0.7393
 4063TIP3    H233681   4.682   1.654   1.518  0.3267  0.5218  0.9052
 4064TIP3   OH233682   0.908   1.725   0.536  0.4895  0.0297 -0.1292
 4064TIP3    H133683   0.943   1.814   0.534  0.7990 -0.0706  0.6737
 4064TIP3    H233684   0.854   1.719   0.457  0.4428  0.9356 -0.1761
 4065TIP3   OH233685   5.931   2.248   4.469 -0.5416 -0.2028  0.1056
 4065TIP3    H133686   5.953   2.319   4.408  0.4406 -0.2461  0.4000
 4065TIP3    H233687   5.838   2.234   4.455 -0.6033  0.6577 -0.4776
 4066TIP3   OH233688   2.611   5.569   5.356 -0.7485 -0.1775  0.4407
 4066TIP3    H133689   2.640   5.651   5.317  1.7837 -0.7473  0.9078
 4066TIP3    H233690   2.521   5.558   5.326  0.6730 -0.2433 -4.6809
 4067TIP3   OH233691   2.789   6.421   5.882  0.9390  0.0808 -0.2315
 4067TIP3    H133692   2.732   6.372   5.942  1.3514 -1.7404 -1.2656
 4067TIP3    H233693   2.728   6.471   5.827  0.3143 -1.4040 -0.9486
 4068TIP3   OH233694   6.754   1.937   4.949  0.3176  0.0750 -0.3508
 4068TIP3    H133695   6.761   1.984   5.032  0.7923  0.7312 -0.7564
 4068TIP3    H233696   6.839   1.895   4.937 -0.3403 -1.5729  0.3849
 4069TIP3   OH233697   6.569   2.404   2.826  0.1276  0.6334  0.8033
 4069TIP3    H133698   6.606   2.333   2.878 -1.7455 -0.7111  0.3867
 4069TIP3    H233699   6.550   2.363   2.741 -1.9084  1.3269  0.8745
 4070TIP3   OH233700   3.586   2.003   2.724  0.2910 -0.0267  0.2352
 4070TIP3    H133701   3.522   2.036   2.788  0.5723 -2.2014  1.7364
 4070TIP3    H233702   3.577   1.908   2.728  1.0090 -0.2735 -2.3267
 4071TIP3   OH233703   0.194   4.386  15.300 -0.3064 -0.5125 -0.4052
 4071TIP3    H133704   0.141   4.437  15.239  2.5303  0.5190 -2.2187
 4071TIP3    H233705   0.228   4.313  15.247 -0.3160 -1.4763  0.8524
 4072TIP3   OH233706   3.789   0.707  14.355  0.1495 -0.1185  0.1955
 4072TIP3    H133707   3.713   0.651  14.370  0.6990 -0.4060  2.3640
 4072TIP3    H233708   3.765   0.763  14.282 -1.4811 -1.3347 -0.2447
 4073TIP3   OH233709   2.336   1.382   2.956 -0.0172 -0.0757  0.1224
 4073TIP3    H133710   2.399   1.422   3.017  0.0459 -1.2335  0.8405
 4073TIP3    H233711   2.252   1.387   3.002  0.2529 -2.1847  0.9602
 4074TIP3   OH233712   2.908   6.022  12.666 -0.4448  0.4317 -0.3583
 4074TIP3    H133713   2.982   6.005  12.724 -0.3240  0.6464 -0.4448
 4074TIP3    H233714   2.859   5.940  12.664 -1.2021  0.8183  1.1069
 4075TIP3   OH233715   6.672   5.267   1.112 -0.6822 -0.1284 -0.0358
 4075TIP3    H133716   6.661   5.173   1.101 -1.2027 -0.3857  2.2751
 4075TIP3    H233717   6.767   5.281   1.104 -0.2749 -1.2680  2.0724
 4076TIP3   OH233718   0.287   6.023  13.030 -0.2737 -0.1893 -1.3736
 4076TIP3    H133719   0.261   6.111  13.058  2.9921  0.4492  0.0213
 4076TIP3    H233720   0.205   5.973  13.032 -1.9920  2.4400 -0.8196
 4077TIP3   OH233721   1.414   0.793  12.751  0.0586  0.5327 -0.4961
 4077TIP3    H133722   1.495   0.742  12.757 -0.1238  0.4211  1.8801
 4077TIP3    H233723   1.369   0.775  12.833 -2.2787  0.8042 -1.6509
 4078TIP3   OH233724   1.070   0.281   1.507  0.0082  0.1518 -0.9654
 4078TIP3    H133725   1.074   0.375   1.488 -1.3018  0.5465  0.5072
 4078TIP3    H233726   1.016   0.275   1.586  0.9697 -1.7644 -0.3945
 4079TIP3   OH233727   5.106   6.414   5.695  0.1478  0.1093 -0.0934
 4079TIP3    H133728   5.073   6.418   5.605 -0.7103 -0.0444  0.2006
 4079TIP3    H233729   5.193   6.452   5.691  0.2146 -0.1246 -1.0362
 4080TIP3   OH233730   2.522   0.797   5.576 -0.3163 -0.8224  0.1817
 4080TIP3    H133731   2.505   0.741   5.651  2.7711 -0.1445  1.5301
 4080TIP3    H233732   2.617   0.799   5.569 -0.4183 -1.4962 -4.3037
 4081TIP3   OH233733   3.680   3.402  11.535 -0.0007  0.5535 -0.1318
 4081TIP3    H133734   3.722   3.341  11.474 -0.8758 -0.7007  0.4628
 4081TIP3    H233735   3.739   3.477  11.540  1.0266 -0.1732 -1.0334
 4082TIP3   OH233736   0.939   2.836   4.440  0.2131  0.1873  0.2464
 4082TIP3    H133737   0.921   2.930   4.433 -0.0891  0.0683 -0.8913
 4082TIP3    H233738   0.853   2.795   4.434  0.3502 -0.1646  0.6880
 4083TIP3   OH233739   5.663   4.633   3.273 -0.2261  0.0504  0.2944
 4083TIP3    H133740   5.644   4.685   3.195  0.9857  0.7851  0.4653
 4083TIP3    H233741   5.637   4.544   3.249  1.1221  0.0369 -1.3761
 4084TIP3   OH233742   4.435   5.245  15.541  0.4284  0.2735 -0.3809
 4084TIP3    H133743   4.506   5.252  15.606 -1.2634 -2.2469  1.9759
 4084TIP3    H233744   4.455   5.164  15.493 -2.0159 -2.0545  2.1628
 4085TIP3   OH233745   4.986   2.788  12.011 -0.0347  0.1486 -0.4252
 4085TIP3    H133746   4.991   2.784  11.916  1.7482 -0.0502 -0.3504
 4085TIP3    H233747   4.912   2.845  12.028 -0.3735  0.2050 -1.9293
 4086TIP3   OH233748   0.840   2.468  14.267  0.2580 -0.1718  0.5620
 4086TIP3    H133749   0.865   2.453  14.176  2.6734 -1.4614  1.3448
 4086TIP3    H233750   0.745   2.477  14.265  0.2900  0.5038 -2.1423
 4087TIP3   OH233751   6.031   4.688   1.751 -0.4947 -0.0679 -0.1723
 4087TIP3    H133752   6.083   4.768   1.746 -0.2143 -0.0957  1.6114
 4087TIP3    H233753   6.076   4.626   1.693  1.7126 -0.1875  1.5333
 4088TIP3   OH233754   1.438   5.383  12.808 -0.5961  0.3220 -0.0250
 4088TIP3    H133755   1.481   5.418  12.729  0.2180 -1.5756 -0.4784
 4088TIP3    H233756   1.501   5.397  12.878 -0.0816 -0.5431 -0.2904
 4089TIP3   OH233757   1.743   1.345  10.643 -0.6779 -0.1247  0.1119
 4089TIP3    H133758   1.758   1.390  10.560  1.6378  0.9812  1.0348
 4089TIP3    H233759   1.652   1.317  10.640 -1.8115  3.3004 -1.1867
 4090TIP3   OH233760   5.531   1.124  12.686 -0.2806 -0.2870  0.4715
 4090TIP3    H133761   5.440   1.096  12.673  0.0549 -0.5626 -1.5715
 4090TIP3    H233762   5.564   1.066  12.755 -0.8885 -2.0498 -0.6395
 4091TIP3   OH233763   4.101   0.249  11.770  0.3923  0.0116 -0.3713
 4091TIP3    H133764   4.011   0.219  11.757 -0.5781  2.7643 -0.5233
 4091TIP3    H233765   4.097   0.308  11.845  2.0049  0.4704 -0.5943
 4092TIP3   OH233766   6.516   2.810   4.205 -0.1519 -0.4302  0.0890
 4092TIP3    H133767   6.494   2.802   4.112  0.3247 -0.0300 -0.0593
 4092TIP3    H233768   6.547   2.900   4.215  2.3771 -1.2170  0.0714
 4093TIP3   OH233769   4.040   3.623   2.382 -0.2247  0.3008  0.0234
 4093TIP3    H133770   3.964   3.624   2.325 -0.0385  0.6589 -0.2190
 4093TIP3    H233771   4.025   3.694   2.444  0.2203  0.7970 -0.4320
 4094TIP3   OH233772   4.651   2.066   4.090  0.1553  0.0624  0.0871
 4094TIP3    H133773   4.716   2.112   4.144  0.7496  0.9474 -1.3416
 4094TIP3    H233774   4.684   2.074   4.001 -0.6535 -1.6406 -0.4022
 4095TIP3   OH233775   0.238   6.341  14.001  0.0596 -0.2146  0.0371
 4095TIP3    H133776   0.194   6.258  13.986 -1.5017  0.6446 -0.3529
 4095TIP3    H233777   0.178   6.390  14.058  0.4067  1.0689 -0.6752
 4096TIP3   OH233778   5.597   5.151   1.659  0.1955 -0.1657 -0.0686
 4096TIP3    H133779   5.623   5.076   1.713 -0.0283  0.0054  0.2765
 4096TIP3    H233780   5.603   5.226   1.718 -0.2294 -0.0021 -0.2345
 4097TIP3   OH233781   0.592   6.512  11.305  0.1211 -0.3862  0.2426
 4097TIP3    H133782   0.521   6.532  11.243 -0.5998 -1.1794  0.7852
 4097TIP3    H233783   0.600   6.591  11.358 -1.4833 -0.8202  1.2172
 4098TIP3   OH233784   0.706   1.739  12.697  0.0842  0.0804  0.6072
 4098TIP3    H133785   0.732   1.820  12.654 -1.8956  0.4832  0.0578
 4098TIP3    H233786   0.654   1.693  12.632  1.3680 -1.7803  0.8244
 4099TIP3   OH233787   4.341   2.060   5.510 -0.1577 -0.1325  0.1089
 4099TIP3    H133788   4.332   1.973   5.471 -0.3800 -0.4204  0.7844
 4099TIP3    H233789   4.284   2.058   5.586 -0.5316  0.7773 -0.1434
 4100TIP3   OH233790   6.356   1.040  16.093  0.0704  0.1370  0.5929
 4100TIP3    H133791   6.350   0.981  16.168  0.3208  0.0371  0.5354
 4100TIP3    H233792   6.441   1.083  16.103  1.5708 -2.1535 -1.2901
 4101TIP3   OH233793   1.414   5.349  11.560  0.1323  0.8256 -0.3011
 4101TIP3    H133794   1.456   5.312  11.638 -0.5526  2.9374  1.1670
 4101TIP3    H233795   1.447   5.439  11.555 -1.0902  1.2413 -1.4914
 4102TIP3   OH233796   4.797   5.864  17.189 -0.1471  0.0017 -0.1714
 4102TIP3    H133797   4.796   5.934  17.254  1.1926 -0.9175  0.9187
 4102TIP3    H233798   4.779   5.784  17.239  0.7889 -0.7174 -0.9309
 4103TIP3   OH233799   4.448   6.811   1.277 -0.4297  0.6005  0.4325
 4103TIP3    H133800   4.398   6.785   1.354  0.2991 -0.8456  0.4501
 4103TIP3    H233801   4.538   6.785   1.296 -0.2987 -0.1766 -1.0585
 4104TIP3   OH233802   6.084   2.712   5.442 -0.1806  0.5320 -0.1586
 4104TIP3    H133803   6.097   2.781   5.507  1.0137 -1.0350  1.3562
 4104TIP3    H233804   6.161   2.718   5.385  0.2695  0.0354  0.3892
 4105TIP3   OH233805   5.698   2.644   1.864  0.6336  0.0004 -0.4848
 4105TIP3    H133806   5.692   2.552   1.888  0.0393  0.2361  0.3464
 4105TIP3    H233807   5.672   2.648   1.772 -0.3094 -0.5467 -0.2499
 4106TIP3   OH233808   0.971   4.398   3.862  0.3943 -0.0555  0.0979
 4106TIP3    H133809   1.032   4.367   3.796  1.9018  1.6725  0.5847
 4106TIP3    H233810   1.023   4.456   3.918 -1.1884 -0.2269  1.8683
 4107TIP3   OH233811   1.351   6.430  14.522  0.0403 -0.1165 -0.0583
 4107TIP3    H133812   1.291   6.397  14.588  0.4492 -1.2086 -0.2136
 4107TIP3    H233813   1.436   6.435  14.566  0.3317 -0.9324 -0.5122
 4108TIP3   OH233814   5.051   4.191   0.537 -0.1270  0.7524 -0.3929
 4108TIP3    H133815   5.037   4.254   0.466 -1.4196  2.5241  1.3120
 4108TIP3    H233816   5.044   4.105   0.495 -0.4463  1.7311 -2.4600
 4109TIP3   OH233817   5.383   3.232  14.315 -0.2798 -0.0298 -0.2349
 4109TIP3    H133818   5.438   3.244  14.393  0.6032 -0.6823 -0.7407
 4109TIP3    H233819   5.301   3.277  14.337  0.0925  0.1326  0.9187
 4110TIP3   OH233820   2.192   5.295   1.782  0.3058  0.1242 -0.0371
 4110TIP3    H133821   2.188   5.368   1.844  0.7992  1.7450 -1.8027
 4110TIP3    H233822   2.251   5.326   1.713 -1.1005 -1.1339 -1.8840
 4111TIP3   OH233823   5.458   0.308   5.349  0.5389 -0.6266 -0.5074
 4111TIP3    H133824   5.507   0.311   5.266 -0.6519 -1.0101 -1.2470
 4111TIP3    H233825   5.403   0.231   5.342 -0.2633 -0.1438  0.2505
 4112TIP3   OH233826   1.444   0.876  16.295  0.7925 -0.7999  0.5925
 4112TIP3    H133827   1.520   0.850  16.347  1.6218 -1.0092 -0.6731
 4112TIP3    H233828   1.477   0.884  16.206 -0.5734 -0.4106  0.0862
 4113TIP3   OH233829   5.714   5.742  12.455  0.2362 -0.0636  0.1091
 4113TIP3    H133830   5.709   5.647  12.450  2.7717 -0.4333  2.6437
 4113TIP3    H233831   5.772   5.767  12.383 -2.9117  0.0600 -2.6355
 4114TIP3   OH233832   3.005   4.039   1.978  0.7270 -0.6614  0.0974
 4114TIP3    H133833   2.969   4.064   1.893 -0.6731  4.1538  1.7773
 4114TIP3    H233834   3.099   4.053   1.969  0.8145 -1.8008 -1.0335
 4115TIP3   OH233835   4.983   1.400   2.962 -0.3916 -0.1267  0.0355
 4115TIP3    H133836   4.984   1.334   3.031  0.9555  0.8333  0.9725
 4115TIP3    H233837   5.028   1.359   2.888 -0.2236 -0.5103  0.3491
 4116TIP3   OH233838   3.294   2.718   4.064 -0.2846  0.1737  0.0992
 4116TIP3    H133839   3.273   2.635   4.105  1.3394  0.2143  1.0934
 4116TIP3    H233840   3.232   2.726   3.991  0.1156 -2.3057 -0.5762
 4117TIP3   OH233841   2.432   2.151   1.762  0.0028  0.0748  0.0155
 4117TIP3    H133842   2.495   2.155   1.690 -0.1604 -1.1056 -0.2251
 4117TIP3    H233843   2.369   2.220   1.743  0.2990  0.1667 -0.6581
 4118TIP3   OH233844   1.918   4.762   1.159 -0.3060  0.4087 -0.1220
 4118TIP3    H133845   1.884   4.761   1.248  0.0395 -0.2992  0.0081
 4118TIP3    H233846   1.851   4.717   1.107  1.4527 -3.3964  0.5557
 4119TIP3   OH233847   4.561   4.414   5.516 -0.4860 -0.0701  0.3354
 4119TIP3    H133848   4.491   4.477   5.502 -0.6927  0.1374  2.1072
 4119TIP3    H233849   4.610   4.414   5.434 -1.7237  0.8289 -0.4275
 4120TIP3   OH233850   4.679   2.794   5.181 -0.6428  0.4029  0.3046
 4120TIP3    H133851   4.728   2.716   5.206 -1.0761  0.4317  1.2791
 4120TIP3    H233852   4.729   2.832   5.109 -0.4533 -0.7966 -0.2285
 4121TIP3   OH233853   2.714   3.706   5.883 -0.1771 -0.3190  0.4251
 4121TIP3    H133854   2.667   3.769   5.938  0.3802  0.7643 -0.2901
 4121TIP3    H233855   2.780   3.668   5.941  0.9782  1.4378  0.3679
 4122TIP3   OH233856   3.976   6.673   2.712  0.4990  0.5115 -0.2535
 4122TIP3    H133857   4.026   6.723   2.777  0.7192 -0.5813  0.4635
 4122TIP3    H233858   3.912   6.625   2.764  0.1771  0.1913 -0.9377
 4123TIP3   OH233859   2.110   6.410  16.737 -0.1727 -0.7815  0.6499
 4123TIP3    H133860   2.092   6.364  16.818  0.5091 -0.9517  0.7035
 4123TIP3    H233861   2.201   6.439  16.744 -0.3797 -0.0150  0.3303
 4124TIP3   OH233862   4.902   0.918   3.635  0.5194 -0.5152  0.5936
 4124TIP3    H133863   4.932   1.008   3.622 -0.0862 -0.1375  1.6906
 4124TIP3    H233864   4.872   0.890   3.549  2.5397 -0.3733 -0.2087
 4125TIP3   OH233865   5.704   2.008   5.711 -0.2169  0.0656  0.0902
 4125TIP3    H133866   5.704   1.924   5.757 -0.9919  0.4422  0.8026
 4125TIP3    H233867   5.613   2.037   5.714 -0.0332  0.7221 -0.5318
 4126TIP3   OH233868   2.999   3.216  16.411  0.0170 -0.0241 -0.7557
 4126TIP3    H133869   3.004   3.133  16.458  0.8310 -0.1309 -1.0143
 4126TIP3    H233870   2.980   3.281  16.478 -3.3228 -0.7008 -0.8622
 4127TIP3   OH233871   2.098   0.686  10.337  0.3190  0.2698 -0.5324
 4127TIP3    H133872   2.050   0.753  10.289  0.6740  1.0543  0.1583
 4127TIP3    H233873   2.180   0.729  10.361 -0.1048  0.1496  1.3083
 4128TIP3   OH233874   4.412   0.539   0.494  0.0562 -0.1598 -1.2285
 4128TIP3    H133875   4.410   0.534   0.398  0.4546  0.9412 -1.3026
 4128TIP3    H233876   4.443   0.453   0.521 -3.1784 -1.7088 -1.9103
 4129TIP3   OH233877   2.626   1.040   5.032  0.2319  0.4898  0.1652
 4129TIP3    H133878   2.590   1.047   5.120  3.0223 -0.1580  1.4553
 4129TIP3    H233879   2.614   1.128   4.994  1.1146  1.5011  2.0996
 4130TIP3   OH233880   5.138   0.585   2.156  0.0114 -0.0522 -0.3622
 4130TIP3    H133881   5.144   0.510   2.216  1.5731 -0.8830 -1.4800
 4130TIP3    H233882   5.062   0.566   2.102  0.3746 -0.8422 -0.6128
 4131TIP3   OH233883   3.499   1.527   2.951  0.4814  0.0678 -1.1490
 4131TIP3    H133884   3.500   1.441   2.910  0.4062 -0.3825 -0.2281
 4131TIP3    H233885   3.585   1.564   2.933  1.3000 -1.0644  0.1958
 4132TIP3   OH233886   0.835   0.282  15.237  0.3723  0.0675 -0.3972
 4132TIP3    H133887   0.808   0.351  15.176 -1.4148 -0.3699 -0.1624
 4132TIP3    H233888   0.833   0.324  15.323 -0.2784 -0.1324 -0.3049
 4133TIP3   OH233889   4.343   6.169   3.854  0.5050  0.3083 -0.1163
 4133TIP3    H133890   4.257   6.175   3.896  0.4762  4.2270 -0.3288
 4133TIP3    H233891   4.323   6.145   3.763 -0.3744  0.7821 -0.0626
 4134TIP3   OH233892   3.750   2.231   5.232 -0.0796 -0.7781  0.6425
 4134TIP3    H133893   3.766   2.224   5.326  0.3027  0.2269  0.6664
 4134TIP3    H233894   3.667   2.279   5.225 -0.0117 -0.6847  0.4678
 4135TIP3   OH233895   5.126   4.695  14.599 -0.4928 -0.1127  0.3021
 4135TIP3    H133896   5.089   4.608  14.614 -1.0494  0.0937  0.1445
 4135TIP3    H233897   5.127   4.736  14.685 -2.2477  0.5065  0.0566
 4136TIP3   OH233898   4.657   2.745   3.064 -0.7166  0.1368  0.1143
 4136TIP3    H133899   4.666   2.657   3.028 -1.2845  0.5199 -1.0226
 4136TIP3    H233900   4.563   2.757   3.075 -0.7743  1.1009 -1.1309
 4137TIP3   OH233901   4.061   3.522  16.913 -0.4566 -0.5404 -0.2789
 4137TIP3    H133902   4.092   3.444  16.868 -1.6931 -2.0281  1.3168
 4137TIP3    H233903   4.050   3.495  17.004 -0.4341  1.6548  0.4388
 4138TIP3   OH233904   0.166   2.697  12.695  0.2049 -0.1292  0.1000
 4138TIP3    H133905   0.223   2.621  12.703  0.0647 -0.1123  1.5663
 4138TIP3    H233906   0.168   2.738  12.782  0.0337  1.3675 -0.5579
 4139TIP3   OH233907   6.437   1.885  16.324 -0.4129  0.2725 -0.2130
 4139TIP3    H133908   6.528   1.864  16.305 -0.2455  0.9821 -0.2391
 4139TIP3    H233909   6.423   1.853  16.414  0.2383  1.2531  0.2584
 4140TIP3   OH233910   1.219   6.131  17.071 -0.0514  0.5620  0.2545
 4140TIP3    H133911   1.171   6.178  17.140 -0.8537  0.2123 -0.0563
 4140TIP3    H233912   1.308   6.123  17.106  0.2302  2.6261  0.1731
 4141TIP3   OH233913   6.098   1.095  15.385  0.3300 -0.0600  0.2430
 4141TIP3    H133914   6.172   1.154  15.404  0.1694 -0.4642  2.4692
 4141TIP3    H233915   6.136   1.007  15.393  0.1061 -0.2716 -0.9460
 4142TIP3   OH233916   0.492   0.302  16.181  0.3013 -0.0978 -0.3555
 4142TIP3    H133917   0.584   0.326  16.194 -0.0615  1.2805 -0.1525
 4142TIP3    H233918   0.492   0.207  16.179  1.6164 -0.1402  0.5759
 4143TIP3   OH233919   6.622   2.912  13.003  0.3063  0.1100  0.3717
 4143TIP3    H133920   6.597   2.842  13.064  0.4932 -0.8653 -0.6308
 4143TIP3    H233921   6.572   2.988  13.033  0.2282 -0.3931  1.6033
 4144TIP3   OH233922   1.594   4.819   5.023 -0.3289  0.2702 -0.0626
 4144TIP3    H133923   1.576   4.872   5.101 -0.7249 -0.5148  0.3907
 4144TIP3    H233924   1.684   4.789   5.036 -0.7841 -0.8349  0.6989
 4145TIP3   OH233925   0.509   6.581   2.300 -0.1733  0.3160 -0.0407
 4145TIP3    H133926   0.538   6.672   2.312  0.8858  0.1475 -1.2081
 4145TIP3    H233927   0.488   6.574   2.207 -0.3933 -0.6012  0.0700
 4146TIP3   OH233928   1.239   4.165   0.027 -0.5106  0.2624 -0.3573
 4146TIP3    H133929   1.226   4.144  -0.066  0.0646  1.9719 -0.8589
 4146TIP3    H233930   1.252   4.260   0.029  2.3457 -0.0445  1.1141
 4147TIP3   OH233931   3.238   2.458   0.837 -0.0024  0.1999 -0.1219
 4147TIP3    H133932   3.316   2.447   0.892 -1.0419 -1.6946  1.0862
 4147TIP3    H233933   3.245   2.390   0.771 -0.7264 -0.1221  0.1220
 4148TIP3   OH233934   3.671   4.812   4.167 -0.4560 -0.4629  0.7098
 4148TIP3    H133935   3.660   4.890   4.222 -2.0885  0.5900 -0.9905
 4148TIP3    H233936   3.583   4.793   4.135  0.1920 -2.0265 -0.2560
 4149TIP3   OH233937   3.141   4.457  16.704  0.0857 -0.9910  0.3459
 4149TIP3    H133938   3.175   4.368  16.695  0.1136 -0.9966  0.4940
 4149TIP3    H233939   3.052   4.453  16.669 -0.1843 -1.2563  1.0459
 4150TIP3   OH233940   5.309   3.891   4.974  0.3123 -0.6984  0.5410
 4150TIP3    H133941   5.281   3.877   4.884  0.5240  2.4657 -0.1545
 4150TIP3    H233942   5.395   3.932   4.966 -0.1472  0.6716  2.0880
 4151TIP3   OH233943   1.970   2.387  12.041 -0.3228  0.2261  0.2497
 4151TIP3    H133944   1.877   2.404  12.055 -0.3301  0.2587  0.1628
 4151TIP3    H233945   1.973   2.332  11.962 -0.2030  1.2004 -0.4461
 4152TIP3   OH233946   2.702   6.458   3.314 -0.8208 -0.5925 -0.0118
 4152TIP3    H133947   2.720   6.376   3.267  1.5129 -0.2909  0.2561
 4152TIP3    H233948   2.762   6.521   3.275 -1.4569  0.5968  0.8830
 4153TIP3   OH233949   2.314   1.171   0.608 -0.1390 -0.0475  0.2054
 4153TIP3    H133950   2.392   1.218   0.636  0.2182 -0.0943 -0.6779
 4153TIP3    H233951   2.338   1.078   0.618 -0.8797 -0.0705  2.0500
 4154TIP3   OH233952   1.751   0.500  13.622  0.9298 -1.0185 -0.3116
 4154TIP3    H133953   1.820   0.476  13.558 -0.9261  0.2496 -2.9833
 4154TIP3    H233954   1.694   0.424  13.624  0.0333 -0.4164 -1.6230
 4155TIP3   OH233955   1.847   0.537  11.850 -0.7775 -0.7798  0.6122
 4155TIP3    H133956   1.926   0.522  11.799 -0.7384 -1.1383  0.7691
 4155TIP3    H233957   1.879   0.577  11.931 -0.7993 -0.5593  0.5114
 4156TIP3   OH233958   0.601   0.857   1.565  0.2418  0.5851 -0.2508
 4156TIP3    H133959   0.657   0.873   1.641  1.8939  1.0743 -1.5217
 4156TIP3    H233960   0.621   0.767   1.539  1.2527  1.1094 -1.3358
 4157TIP3   OH233961   2.869   6.613   4.700  0.0215  0.3607  0.5737
 4157TIP3    H133962   2.890   6.582   4.611  0.3928 -0.9033  1.0748
 4157TIP3    H233963   2.836   6.702   4.687 -0.6360 -0.0522 -0.9196
 4158TIP3   OH233964   6.722   2.335  16.091  0.1110 -0.2920 -0.4289
 4158TIP3    H133965   6.692   2.251  16.125  1.2869 -1.5654 -2.3572
 4158TIP3    H233966   6.795   2.313  16.034  0.4156  2.0594 -1.0425
 4159TIP3   OH233967   2.780   2.436  13.335 -0.1892 -0.5544 -0.3285
 4159TIP3    H133968   2.699   2.388  13.352 -1.6721  1.6191 -0.7834
 4159TIP3    H233969   2.839   2.408  13.404 -2.3863  0.0108  1.9392
 4160TIP3   OH233970   1.235   0.905   0.226  0.4860 -0.0515 -0.3298
 4160TIP3    H133971   1.298   0.842   0.262  0.1937 -0.4293 -0.4666
 4160TIP3    H233972   1.195   0.859   0.152  0.8124  0.5756 -0.9110
 4161TIP3   OH233973   3.251   0.486   3.232 -0.1595 -0.4303 -0.4521
 4161TIP3    H133974   3.267   0.395   3.209 -0.9232 -0.9205  0.8444
 4161TIP3    H233975   3.156   0.495   3.226 -0.0656  0.3724 -0.8635
 4162TIP3   OH233976   5.536   0.653  15.135  0.3028  0.1939  0.1572
 4162TIP3    H133977   5.480   0.691  15.067 -0.2217 -0.5207  0.1679
 4162TIP3    H233978   5.566   0.727  15.186  0.3069  0.7032 -0.5611
 4163TIP3   OH233979   4.032   3.085   4.738  0.1769  0.0182  0.1074
 4163TIP3    H133980   4.071   3.170   4.759  0.7850 -0.1772 -0.2107
 4163TIP3    H233981   4.064   3.026   4.807  0.3775 -0.1250 -0.1085
 4164TIP3   OH233982   5.715   3.731   2.125  0.4272 -0.0016 -0.4726
 4164TIP3    H133983   5.705   3.679   2.045 -0.0249 -0.2220 -0.2786
 4164TIP3    H233984   5.718   3.665   2.195 -1.5996  0.2617 -0.0814
 4165TIP3   OH233985   1.884   5.715   3.673  0.0423  0.2330 -0.5993
 4165TIP3    H133986   1.918   5.765   3.748 -1.4487 -0.0094  0.2899
 4165TIP3    H233987   1.902   5.769   3.597  2.0314  0.2733 -0.1436
 4166TIP3   OH233988   1.587   5.514  13.765  0.0785 -0.8115 -0.4362
 4166TIP3    H133989   1.619   5.453  13.832 -0.2613 -1.2475 -0.6610
 4166TIP3    H233990   1.514   5.467  13.724  1.6087 -1.4929 -2.5824
 4167TIP3   OH233991   4.616   6.810   2.027  0.2395  0.3527  0.4139
 4167TIP3    H133992   4.710   6.794   2.015  0.3309  1.1643  0.0043
 4167TIP3    H233993   4.602   6.796   2.121  0.1961 -2.5342  0.0685
 4168TIP3   OH233994   2.298   3.161  15.725 -0.2698  0.7836  0.0903
 4168TIP3    H133995   2.380   3.210  15.725  1.3500 -1.5653  3.3450
 4168TIP3    H233996   2.324   3.071  15.705 -1.9006 -0.1339  1.7718
 4169TIP3   OH233997   4.341   4.843  16.260 -0.3574  0.3689 -0.0841
 4169TIP3    H133998   4.376   4.828  16.348  0.0409 -0.1520 -0.3258
 4169TIP3    H233999   4.382   4.925  16.231 -1.8191  1.4890  0.8821
 4170TIP3   OH234000   4.054   2.522   2.900 -0.5264 -0.2338  0.1849
 4170TIP3    H134001   4.148   2.541   2.902 -0.1026 -2.1803  1.1756
 4170TIP3    H234002   4.032   2.525   2.807  0.6647 -0.3816 -0.1253
 4171TIP3   OH234003   1.584   3.193  13.147  0.9018  0.1541  0.3189
 4171TIP3    H134004   1.638   3.270  13.133  2.8674 -1.2204 -0.0474
 4171TIP3    H234005   1.638   3.120  13.117 -0.4001 -1.5058  1.7864
 4172TIP3   OH234006   0.059   0.029  16.867  0.4233  0.4773 -0.7622
 4172TIP3    H134007   0.133   0.089  16.870  0.0317  0.9421 -0.3046
 4172TIP3    H234008   0.092  -0.046  16.817  0.8479  1.1509 -1.5237
 4173TIP3   OH234009   5.822   4.893  10.895  0.1406  0.2298 -0.6603
 4173TIP3    H134010   5.825   4.801  10.921 -1.2335 -0.1150 -1.5762
 4173TIP3    H234011   5.855   4.894  10.805  0.5547  0.7102 -0.5100
 4174TIP3   OH234012   5.144   0.093  14.328 -0.2913 -0.2795 -0.0671
 4174TIP3    H134013   5.123   0.178  14.287 -3.0603 -1.8644 -2.2990
 4174TIP3    H234014   5.152   0.033  14.254  2.7850 -1.8460  1.3900
 4175TIP3   OH234015   5.507   5.428   5.278  0.9202  0.7120 -0.1582
 4175TIP3    H134016   5.493   5.483   5.201  0.0552  0.6041 -0.0861
 4175TIP3    H234017   5.423   5.383   5.292  1.2657  0.2346  0.4549
 4176TIP3   OH234018   1.869   0.717   2.623  0.2524  0.0956 -0.6496
 4176TIP3    H134019   1.925   0.793   2.607  1.6157 -0.6779  0.2725
 4176TIP3    H234020   1.920   0.642   2.592 -1.0382 -0.4815 -1.4722
 4177TIP3   OH234021   0.904   5.455  15.400  0.5635 -0.1064 -0.0669
 4177TIP3    H134022   0.866   5.469  15.313  0.9567  2.0016  0.0488
 4177TIP3    H234023   0.838   5.491  15.460  0.7861 -0.5355  0.4404
 4178TIP3   OH234024   0.035   2.202  11.082 -0.5018  0.4554  0.0803
 4178TIP3    H134025   0.096   2.276  11.076 -0.1935  0.0983 -1.4759
 4178TIP3    H234026  -0.051   2.243  11.094 -0.2298  1.0335  0.0775
 4179TIP3   OH234027   6.152   0.988  13.546  0.4200 -0.1726 -0.4019
 4179TIP3    H134028   6.228   1.041  13.571  1.2220 -0.0145 -2.9059
 4179TIP3    H234029   6.189   0.902  13.524 -0.1011 -0.0905 -1.6766
 4180TIP3   OH234030   4.454   2.230  14.109 -0.7891 -1.2119 -0.3534
 4180TIP3    H134031   4.532   2.267  14.149  0.3268 -1.8479 -1.8529
 4180TIP3    H234032   4.396   2.305  14.094 -1.5706 -0.9875  2.8856
 4181TIP3   OH234033   1.872   3.918  12.135 -0.1919 -0.9699  0.2052
 4181TIP3    H134034   1.843   3.948  12.221 -0.6921  0.9859 -0.5811
 4181TIP3    H234035   1.808   3.851  12.109  0.2412 -1.9274  1.5204
 4182TIP3   OH234036   0.411   1.610   3.690 -0.0551 -1.1983  0.2537
 4182TIP3    H134037   0.445   1.699   3.681  0.9374 -1.3638  1.9858
 4182TIP3    H234038   0.316   1.621   3.687 -0.0455 -0.6021 -3.5369
 4183TIP3   OH234039   6.663   1.089   2.384  0.0371  0.1849  0.5346
 4183TIP3    H134040   6.750   1.075   2.421  0.2725 -0.5016 -0.2449
 4183TIP3    H234041   6.675   1.160   2.321  0.2988 -0.6602 -0.4002
 4184TIP3   OH234042   1.522   2.008  14.726  0.0441  0.7577  0.1689
 4184TIP3    H134043   1.571   1.959  14.660 -2.7914  0.4739 -1.8954
 4184TIP3    H234044   1.521   1.951  14.803  2.1742  0.4743  0.0628
 4185TIP3   OH234045   3.902   0.331   2.449  0.6267  0.0297  0.1004
 4185TIP3    H134046   3.843   0.391   2.404  1.3823 -0.4311 -1.5900
 4185TIP3    H234047   3.844   0.276   2.503 -0.2361  1.0485  0.2561
 4186TIP3   OH234048   5.713   3.819  16.986 -0.0573  0.6730  0.0534
 4186TIP3    H134049   5.669   3.850  16.907 -1.2917  0.7738  0.7480
 4186TIP3    H234050   5.785   3.881  17.000  0.5604  0.2842 -1.3203
 4187TIP3   OH234051   3.739   2.704  16.013 -0.7021  0.2260  0.3074
 4187TIP3    H134052   3.779   2.749  16.087 -0.8042 -0.5594  0.8546
 4187TIP3    H234053   3.671   2.765  15.982  1.4657  2.0065 -1.2430
 4188TIP3   OH234054   3.200   3.068   1.836  0.1209  0.2730  0.2009
 4188TIP3    H134055   3.171   2.980   1.811  0.5426 -0.0554  0.8536
 4188TIP3    H234056   3.264   3.092   1.769  0.1685 -0.0046  0.1454
 4189TIP3   OH234057   3.394   6.156   4.299 -0.0616  0.0709 -0.5497
 4189TIP3    H134058   3.441   6.077   4.325  0.2688  0.5000  0.1845
 4189TIP3    H234059   3.394   6.211   4.377 -0.1217  0.8758 -1.1024
 4190TIP3   OH234060   4.428   1.213  10.624 -0.6053  0.1199  0.2682
 4190TIP3    H134061   4.389   1.300  10.621 -0.8403  0.0147  0.2542
 4190TIP3    H234062   4.391   1.173  10.703  0.6109  0.5549  1.0970
 4191TIP3   OH234063   4.582   5.042   4.028  0.1373  0.2446 -0.3625
 4191TIP3    H134064   4.635   5.119   4.005 -0.3523 -0.1155 -2.9798
 4191TIP3    H234065   4.493   5.065   4.001 -0.3143 -0.6699  0.3013
 4192TIP3   OH234066   0.135   5.558  16.570  0.2477 -0.0411  0.0380
 4192TIP3    H134067   0.105   5.578  16.481 -0.1410  1.0010  0.3875
 4192TIP3    H234068   0.093   5.474  16.591 -1.0637  0.5415 -0.1283
 4193TIP3   OH234069   3.900   0.076  15.967 -0.2920  0.0353  0.0015
 4193TIP3    H134070   3.965   0.022  16.012 -0.2470 -0.2084 -0.3516
 4193TIP3    H234071   3.838   0.013  15.930 -0.3013  0.2353 -0.3227
 4194TIP3   OH234072   6.000   0.503  14.064  0.2440  0.2740 -0.3280
 4194TIP3    H134073   6.010   0.412  14.034 -1.7630 -0.4220  0.9050
 4194TIP3    H234074   6.036   0.503  14.152 -1.4167  0.1562  0.3935
 4195TIP3   OH234075   0.979   3.785   5.696 -0.2244  0.6248 -0.0935
 4195TIP3    H134076   0.897   3.765   5.651  0.1816 -0.0425 -0.5536
 4195TIP3    H234077   1.047   3.745   5.642  0.2676 -0.4038  1.2251
 4196TIP3   OH234078   1.593   0.155  10.998 -0.2701  0.0319  0.3578
 4196TIP3    H134079   1.571   0.153  10.905 -0.8364 -0.6856  0.4916
 4196TIP3    H234080   1.673   0.206  11.003 -0.0759 -0.1608 -0.5556
 4197TIP3   OH234081   6.580   2.886   1.226  0.8541  0.1944 -0.0560
 4197TIP3    H134082   6.508   2.873   1.288 -0.2789  0.2465 -1.3168
 4197TIP3    H234083   6.563   2.971   1.187  1.6202  0.2117 -0.3582
 4198TIP3   OH234084   0.350   4.245  11.403  0.5574  0.6146  0.1982
 4198TIP3    H134085   0.360   4.308  11.474 -0.9479  0.2282  0.7969
 4198TIP3    H234086   0.288   4.285  11.343  1.0725  0.5174 -0.4105
 4199TIP3   OH234087   6.405   6.514   3.971  0.1291  0.1618  0.4178
 4199TIP3    H134088   6.420   6.553   4.057 -0.1473  0.7150  0.2194
 4199TIP3    H234089   6.318   6.473   3.977  0.8902 -1.4616  0.9915
 4200TIP3   OH234090   1.312   4.158  13.135  0.3325  0.1612 -0.6197
 4200TIP3    H134091   1.279   4.171  13.224  0.2873 -0.4822 -0.5318
 4200TIP3    H234092   1.406   4.175  13.142  0.4310 -0.4675 -0.3088
 4201TIP3   OH234093   6.158   0.930  14.958  0.3594  0.0815 -0.0463
 4201TIP3    H134094   6.219   0.879  14.904 -0.6370 -0.3657 -0.7768
 4201TIP3    H234095   6.099   0.865  14.997 -0.0556  0.5591  0.1316
 4202TIP3   OH234096   2.245   1.844  16.000  0.0379 -0.0691 -0.9283
 4202TIP3    H134097   2.311   1.882  16.057 -1.7288  0.2727  1.0080
 4202TIP3    H234098   2.246   1.750  16.021  0.1741 -0.1233 -1.1757
 4203TIP3   OH234099   6.187   2.241  12.976  0.1099 -0.2902 -0.0829
 4203TIP3    H134100   6.221   2.190  13.049  0.7787  0.4157  0.1096
 4203TIP3    H234101   6.246   2.221  12.903 -0.6467 -1.1139 -0.4905
 4204TIP3   OH234102   4.111   5.985  13.906 -0.2550  0.2904  0.5509
 4204TIP3    H134103   4.190   5.933  13.891 -1.0288 -0.7305 -0.1873
 4204TIP3    H234104   4.077   5.954  13.990 -0.4727 -0.0898  0.3265
 4205TIP3   OH234105   4.240   2.994   2.211 -0.1993 -0.0383 -0.2655
 4205TIP3    H134106   4.198   2.959   2.132 -1.7719  1.8682 -0.3603
 4205TIP3    H234107   4.280   2.918   2.253  0.5564 -1.1345 -2.8029
 4206TIP3   OH234108   4.095   2.590  16.776  0.1718 -0.0627 -0.0604
 4206TIP3    H134109   4.000   2.601  16.778  0.2703  0.7946  0.9863
 4206TIP3    H234110   4.108   2.495  16.776 -0.6775 -0.1916 -0.2583
 4207TIP3   OH234111   6.234   1.276  15.971 -0.1615 -0.1911 -0.3154
 4207TIP3    H134112   6.271   1.196  16.009 -0.1217 -0.3740 -0.7398
 4207TIP3    H234113   6.174   1.245  15.903 -0.9936  0.1053  0.2651
 4208TIP3   OH234114   2.483   3.553   6.136 -0.1248  0.2767  0.1789
 4208TIP3    H134115   2.572   3.519   6.143 -0.0823  0.5899  1.2646
 4208TIP3    H234116   2.428   3.475   6.129  0.2270  0.0825 -0.5029
 4209TIP3   OH234117   4.620   4.063   6.273  0.0774  0.4179  0.0130
 4209TIP3    H134118   4.666   3.979   6.264 -1.4944 -0.3566 -1.5525
 4209TIP3    H234119   4.544   4.042   6.327  0.3305  1.1364  0.6542
 4210TIP3   OH234120   2.956   2.268   3.077 -0.0349  0.1421 -0.6213
 4210TIP3    H134121   2.861   2.261   3.081 -0.1443  1.5949  0.0621
 4210TIP3    H234122   2.980   2.318   3.155  1.3743 -0.8420 -0.3743
 4211TIP3   OH234123   3.078   6.310  13.378 -0.2237  0.0722 -0.2449
 4211TIP3    H134124   3.051   6.268  13.459 -2.0349  0.8669 -0.3711
 4211TIP3    H234125   3.078   6.404  13.399  1.2005  0.1754 -0.6490
 4212TIP3   OH234126   0.440   3.146   4.466 -0.0271  0.3991 -0.8118
 4212TIP3    H134127   0.521   3.133   4.416  0.8204  0.4131  0.5243
 4212TIP3    H234128   0.387   3.203   4.410  0.2683 -0.7804 -2.3563
 4213TIP3   OH234129   3.510   1.200   3.825 -0.0230 -0.1138 -0.1142
 4213TIP3    H134130   3.604   1.220   3.824  0.1505 -0.9244 -1.0764
 4213TIP3    H234131   3.500   1.125   3.766 -1.0625 -0.9890  1.1083
 4214TIP3   OH234132   0.157   1.841  12.245 -0.4076  0.0725 -0.2806
 4214TIP3    H134133   0.166   1.875  12.156 -2.0441  2.0351  0.2170
 4214TIP3    H234134   0.231   1.781  12.256  1.3772  1.8065 -2.0434
 4215TIP3   OH234135   5.149   3.658   2.596  0.1549  0.3745  0.1867
 4215TIP3    H134136   5.145   3.721   2.524 -2.7129  0.9997  0.7622
 4215TIP3    H234137   5.232   3.675   2.640  0.7407  1.7728 -1.3845
 4216TIP3   OH234138   0.949   4.834  10.506 -0.3865  0.2733  0.4556
 4216TIP3    H134139   0.885   4.763  10.500  0.4760 -0.6786  1.9472
 4216TIP3    H234140   1.014   4.803  10.569  1.0444  1.6073 -0.2882
 4217TIP3   OH234141   2.065   5.489   3.621  0.0600 -0.6673 -0.1078
 4217TIP3    H134142   2.150   5.533   3.628  1.5581 -2.9497 -2.3134
 4217TIP3    H234143   2.001   5.557   3.642  2.3963  1.1423  1.6236
 4218TIP3   OH234144   2.694   2.660  14.303  0.1721 -0.1690  0.1926
 4218TIP3    H134145   2.650   2.624  14.226  1.9304 -0.1691 -0.8435
 4218TIP3    H234146   2.693   2.754  14.290  0.5554 -0.1742  0.1273
 4219TIP3   OH234147   3.643   4.977   2.010  0.6890  0.4142  0.2962
 4219TIP3    H134148   3.637   4.979   2.106  1.2260  0.1927  0.3372
 4219TIP3    H234149   3.553   4.964   1.981  0.5740  0.0434  0.7901
 4220TIP3   OH234150   4.347   4.240  13.083 -0.7657 -0.5942 -0.3865
 4220TIP3    H134151   4.263   4.197  13.100 -0.5434 -0.7825  0.2769
 4220TIP3    H234152   4.330   4.333  13.095 -1.2880 -0.4518 -1.9772
 4221TIP3   OH234153   6.270   3.774  16.124  0.5477  0.2111 -0.1855
 4221TIP3    H134154   6.334   3.818  16.069  0.1805 -1.3219 -1.9625
 4221TIP3    H234155   6.261   3.687  16.085 -3.4226  0.6975 -0.7742
 4222TIP3   OH234156   1.482   6.342   0.566 -0.8088 -0.2227 -0.0113
 4222TIP3    H134157   1.541   6.310   0.634 -1.1288  0.1378  0.4465
 4222TIP3    H234158   1.516   6.305   0.485 -1.0844 -1.6051  0.4755
 4223TIP3   OH234159   3.531   4.070  17.088  0.2063  0.2196  0.8246
 4223TIP3    H134160   3.485   4.025  17.159 -0.0239  1.0249  1.1971
 4223TIP3    H234161   3.601   4.118  17.132 -0.1586  1.0063  0.5540
 4224TIP3   OH234162   2.902   3.694  16.936 -0.4566 -0.2928  0.6193
 4224TIP3    H134163   2.897   3.717  17.028  0.2822  0.2523  0.5342
 4224TIP3    H234164   2.973   3.749  16.901  1.0650 -2.3381  0.2977
 4225TIP3   OH234165   1.800   5.229   3.520 -0.1077 -0.0161  0.3477
 4225TIP3    H134166   1.739   5.192   3.584  1.0882 -1.0747  0.9073
 4225TIP3    H234167   1.766   5.199   3.435 -1.4705  1.0618  0.4737
 4226TIP3   OH234168   4.843   5.260  11.371  0.2781  0.2936 -0.1845
 4226TIP3    H134169   4.903   5.235  11.301 -0.2908  0.0565 -0.6001
 4226TIP3    H234170   4.880   5.340  11.407  0.5127  0.5000 -0.8583
 4227TIP3   OH234171   0.705   0.720  17.016 -0.0844 -0.2205 -0.3898
 4227TIP3    H134172   0.621   0.756  17.046 -0.3371 -2.6969  2.3150
 4227TIP3    H234173   0.770   0.757  17.076  0.1024 -1.5258  0.2531
 4228TIP3   OH234174   5.585   0.876  16.734  0.5726  0.2507 -0.4577
 4228TIP3    H134175   5.675   0.860  16.764  0.6357 -0.5658 -1.0511
 4228TIP3    H234176   5.550   0.939  16.797  1.6577  0.8096 -0.3878
 4229TIP3   OH234177   4.331   5.258  16.504 -0.1082  0.9948 -0.3548
 4229TIP3    H134178   4.358   5.248  16.413 -0.2374  0.0307 -0.2999
 4229TIP3    H234179   4.236   5.257  16.501 -0.1103  0.5056 -0.1665
 4230TIP3   OH234180   6.085   3.202  15.963  0.6508  0.4203  0.3817
 4230TIP3    H134181   6.071   3.290  15.926  1.2107  0.1349 -0.5347
 4230TIP3    H234182   6.011   3.151  15.930  0.9850  0.2436 -0.1057
 4231TIP3   OH234183   1.381   5.210   1.374  0.2111  0.1240 -0.3328
 4231TIP3    H134184   1.313   5.265   1.412 -0.7113 -0.6259 -0.8279
 4231TIP3    H234185   1.450   5.207   1.440 -1.1709 -0.8202  1.1463
 4232TIP3   OH234186   5.857   2.279   5.969 -0.4174 -0.0599  0.1120
 4232TIP3    H134187   5.850   2.341   5.896  1.5908  1.4640  1.1155
 4232TIP3    H234188   5.816   2.323   6.043 -1.9116 -1.3526  0.1035
 4233TIP3   OH234189   1.049   1.924  16.115 -0.3057 -0.5082  0.6462
 4233TIP3    H134190   1.021   1.894  16.028  0.8538 -2.0570  0.7564
 4233TIP3    H234191   1.109   1.997  16.096 -1.4331  0.3404  0.2532
 4234TIP3   OH234192   2.216   4.000   5.999 -0.1240 -0.2743  0.2966
 4234TIP3    H134193   2.215   4.091   5.968 -1.3173 -0.6495 -0.8497
 4234TIP3    H234194   2.239   4.008   6.092  0.3398  1.1466  0.0955
 4235TIP3   OH234195   4.222   3.839   5.422  0.2187  0.0755  0.1659
 4235TIP3    H134196   4.169   3.899   5.475  3.0973  1.7321  1.3778
 4235TIP3    H234197   4.240   3.887   5.342 -0.3593 -0.6483 -0.4212
 4236TIP3   OH234198   6.316   5.823  12.530  0.1437  0.2326 -0.0826
 4236TIP3    H134199   6.329   5.843  12.623 -0.5859  1.4447 -0.2311
 4236TIP3    H234200   6.226   5.791  12.525 -0.2162  1.2637 -0.5224
 4237TIP3   OH234201   4.843   0.788   3.364 -0.3704 -0.2245 -0.0032
 4237TIP3    H134202   4.778   0.726   3.330 -0.4757 -0.1113 -0.0109
 4237TIP3    H234203   4.917   0.734   3.389  0.0451 -0.2358 -1.2142
 4238TIP3   OH234204   4.950   4.787  17.121 -0.1973  0.3038 -0.2384
 4238TIP3    H134205   4.998   4.796  17.039  0.3016  1.1871  0.1278
 4238TIP3    H234206   5.015   4.808  17.188  0.2152 -3.1376  0.6093
 4239TIP3   OH234207   3.259   6.724  14.414  0.5030 -0.2005 -0.3328
 4239TIP3    H134208   3.340   6.684  14.383 -0.1396 -2.8399  1.0856
 4239TIP3    H234209   3.252   6.696  14.505 -1.3521  1.0687 -0.0379
 4240TIP3   OH234210   1.211   0.534  15.128 -0.3354  0.2659  0.3579
 4240TIP3    H134211   1.297   0.492  15.118 -0.2251  0.4315  0.5970
 4240TIP3    H234212   1.215   0.611  15.072 -1.4409 -1.3499 -2.1251
 4241TIP3   OH234213   6.723   5.198   4.021 -0.1185  0.1047 -0.4536
 4241TIP3    H134214   6.727   5.286   3.984 -0.2896 -0.1090 -0.9808
 4241TIP3    H234215   6.815   5.172   4.032 -0.0671  0.3651 -0.2423
 4242TIP3   OH234216   3.658   6.100  16.085 -0.3930 -0.1027  0.2227
 4242TIP3    H134217   3.737   6.140  16.120  0.3432 -1.9132  0.7473
 4242TIP3    H234218   3.688   6.017  16.047 -1.7695  0.0271 -1.2678
 4243TIP3   OH234219   1.062   0.268   3.103  0.1681 -0.3006  0.1738
 4243TIP3    H134220   1.114   0.347   3.120 -0.7143  0.5348 -0.8019
 4243TIP3    H234221   1.115   0.217   3.042  0.1947  0.1717 -0.2049
 4244TIP3   OH234222   0.435   2.911  16.982  0.4369  0.1054 -0.3007
 4244TIP3    H134223   0.360   2.922  16.923  0.9781  0.9090 -0.8498
 4244TIP3    H234224   0.443   2.816  16.991 -1.3121  0.0016  0.6455
 4245TIP3   OH234225   1.837   2.754   2.152  0.2051  0.1939 -0.4930
 4245TIP3    H134226   1.801   2.712   2.230  2.8472 -0.1665  0.6050
 4245TIP3    H234227   1.771   2.821   2.130 -0.5618  0.4574  2.1607
 4246TIP3   OH234228   3.875   3.832  14.052  0.6633 -0.1321  0.4718
 4246TIP3    H134229   3.820   3.799  14.123 -0.5472  0.6603 -0.0656
 4246TIP3    H234230   3.948   3.771  14.047 -0.3556 -1.4274  0.9714
 4247TIP3   OH234231   3.358   0.394   0.168 -0.8763 -0.5519 -0.0733
 4247TIP3    H134232   3.392   0.375   0.081 -2.1495  0.8878 -0.9251
 4247TIP3    H234233   3.264   0.407   0.155 -0.9580  0.5704  1.3472
 4248TIP3   OH234234   6.787   0.313  13.287 -0.3487  0.2432 -0.6765
 4248TIP3    H134235   6.816   0.401  13.310 -0.4519 -0.3286  2.0492
 4248TIP3    H234236   6.866   0.268  13.258 -0.2201  1.0752 -1.6831
 4249TIP3   OH234237   0.508   0.998   6.307  0.0289  0.1638 -0.1867
 4249TIP3    H134238   0.520   0.983   6.401  1.0447 -0.2951 -0.3805
 4249TIP3    H234239   0.562   1.075   6.288  2.8545 -1.8343 -1.0389
 4250TIP3   OH234240   6.524   5.709  13.751  0.2621  0.0454 -0.3463
 4250TIP3    H134241   6.532   5.616  13.773 -1.4012 -0.4285 -1.5274
 4250TIP3    H234242   6.524   5.754  13.835  0.0081 -1.1304  0.3065
 4251TIP3   OH234243   5.952   2.125   3.187 -0.3062 -0.1196 -0.1847
 4251TIP3    H134244   5.888   2.193   3.167 -0.2543  0.4925  1.5643
 4251TIP3    H234245   5.928   2.052   3.130 -2.7686 -0.0298  0.6521
 4252TIP3   OH234246   1.717   0.993  12.288 -0.2577  0.5159 -0.1614
 4252TIP3    H134247   1.811   1.005  12.271  0.0409 -1.5146 -0.1653
 4252TIP3    H234248   1.688   1.078  12.322  1.8913  0.8029  1.1822
 4253TIP3   OH234249   5.513   6.350  14.444  0.3472 -0.3397  0.0507
 4253TIP3    H134250   5.496   6.355  14.350  1.9714 -0.1622 -0.2544
 4253TIP3    H234251   5.603   6.318  14.451  0.1125 -0.7426  1.5591
 4254TIP3   OH234252   5.672   3.551  11.667  0.4963  0.4382  0.5295
 4254TIP3    H134253   5.635   3.495  11.598 -0.6072  0.8751  0.7403
 4254TIP3    H234254   5.764   3.559  11.644 -0.0548  1.4769 -1.5564
 4255TIP3   OH234255   6.624   0.395   6.679 -0.0194  0.3972 -0.2802
 4255TIP3    H134256   6.648   0.468   6.621  2.2904  0.4626  0.6188
 4255TIP3    H234257   6.554   0.430   6.734  0.3492  1.6016 -0.5423
 4256TIP3   OH234258   3.530   0.628   0.225  0.3604  0.1564 -0.6792
 4256TIP3    H134259   3.443   0.589   0.223 -0.3151  1.6002 -0.5694
 4256TIP3    H234260   3.554   0.629   0.317 -0.8829  2.6024 -0.3159
 4257TIP3   OH234261   3.162   2.744  12.815  0.6258  0.2145  0.0602
 4257TIP3    H134262   3.178   2.820  12.871  2.3469 -1.0353  1.3428
 4257TIP3    H234263   3.206   2.766  12.733 -0.5751  1.4015 -0.3030
 4258TIP3   OH234264   1.195   2.915  13.734  0.6650  0.2080  0.2589
 4258TIP3    H134265   1.273   2.971  13.736  1.1729 -0.2577 -2.3180
 4258TIP3    H234266   1.123   2.975  13.715  0.4849  0.5226  1.8082
 4259TIP3   OH234267   0.015   0.421   1.497  0.0380  0.2969 -0.9428
 4259TIP3    H134268   0.048   0.354   1.556 -1.1468  0.2667 -0.2863
 4259TIP3    H234269  -0.072   0.442   1.530 -0.0903  1.3037 -1.8454
 4260TIP3   OH234270   6.095   3.692   4.935 -0.1055  0.3206  0.2232
 4260TIP3    H134271   6.059   3.680   5.023  4.8591 -0.9276  2.4146
 4260TIP3    H234272   6.114   3.786   4.930 -2.3869  0.8063 -0.5621
 4261TIP3   OH234273   0.029   3.689  12.486  0.1076 -0.2479  1.3066
 4261TIP3    H134274   0.060   3.746  12.555 -0.0948  1.7773 -0.1963
 4261TIP3    H234275  -0.066   3.704  12.482  0.2048  0.1785  0.1854
 4262TIP3   OH234276   5.036   0.439   5.486  0.3855 -0.1085 -0.5184
 4262TIP3    H134277   5.029   0.424   5.392  1.3861 -2.8284 -0.2528
 4262TIP3    H234278   5.016   0.531   5.497 -2.6426 -0.2920 -3.0614
 4263TIP3   OH234279   5.918   0.034  12.613 -0.4173 -0.8763 -0.1578
 4263TIP3    H134280   5.899   0.103  12.676 -2.4840 -0.2858 -1.3404
 4263TIP3    H234281   5.865  -0.040  12.643  0.0530 -1.2126 -0.1555
 4264TIP3   OH234282   5.227   5.837  11.193 -0.2610 -0.4906 -0.0279
 4264TIP3    H134283   5.157   5.893  11.159  0.3471  0.9855  1.0512
 4264TIP3    H234284   5.215   5.840  11.288  0.9085 -0.7103  0.1385
 4265TIP3   OH234285   5.854   4.642   3.487  0.6949  0.7429 -0.1435
 4265TIP3    H134286   5.779   4.670   3.435  0.6331 -0.1998 -0.5845
 4265TIP3    H234287   5.864   4.710   3.554 -0.8072  0.6853  0.1715
 4266TIP3   OH234288   0.327   3.462  12.515 -0.1925 -0.0549  0.3388
 4266TIP3    H134289   0.410   3.509  12.525  0.7834 -1.8507  1.1825
 4266TIP3    H234290   0.289   3.498  12.435  2.5410 -0.7623 -1.4341
 4267TIP3   OH234291   5.524   5.959  12.446 -0.5956 -0.0759 -0.5898
 4267TIP3    H134292   5.487   5.972  12.358  0.5840 -0.4508 -1.1584
 4267TIP3    H234293   5.554   5.868  12.446 -3.6031 -1.2083  1.3858
 4268TIP3   OH234294   6.507   5.232  10.397 -0.3814 -0.4166  0.1249
 4268TIP3    H134295   6.417   5.258  10.417 -1.0625 -1.3359 -1.5258
 4268TIP3    H234296   6.508   5.137  10.408  0.4896 -0.3752  0.4790
 4269TIP3   OH234297   0.409   4.286   2.840 -0.0566  0.0356 -0.1645
 4269TIP3    H134298   0.384   4.373   2.808  1.1647 -0.2606 -2.0761
 4269TIP3    H234299   0.492   4.300   2.885 -0.1801 -0.0606  0.0964
 4270TIP3   OH234300   5.928   4.105  13.883 -0.3718  0.6585 -0.5868
 4270TIP3    H134301   5.924   4.167  13.955 -0.3481  1.1346 -0.9880
 4270TIP3    H234302   6.016   4.115  13.847  0.0955 -0.5754  0.1847
 4271TIP3   OH234303   4.886   5.650   0.700 -0.2895 -0.6554 -0.2984
 4271TIP3    H134304   4.899   5.739   0.731 -1.1341  0.3585 -2.5688
 4271TIP3    H234305   4.791   5.638   0.700 -0.3034 -0.8197 -1.7291
 4272TIP3   OH234306   4.573   1.299  13.482  0.1612  0.1717 -0.1482
 4272TIP3    H134307   4.594   1.353  13.406 -0.4109 -0.2147 -0.5845
 4272TIP3    H234308   4.512   1.352  13.533 -1.2572 -0.4587 -1.1204
 4273TIP3   OH234309   2.618   4.349  17.149 -0.0281  0.0426  0.5503
 4273TIP3    H134310   2.538   4.403  17.151 -0.4450 -0.5803  1.7117
 4273TIP3    H234311   2.664   4.377  17.070 -1.3668  0.4697 -0.1141
 4274TIP3   OH234312   0.019   3.476   4.262 -0.2958 -0.8597 -0.0073
 4274TIP3    H134313  -0.007   3.544   4.200  2.0122 -2.1258 -2.5822
 4274TIP3    H234314   0.069   3.522   4.329 -0.4973  0.2275 -0.5865
 4275TIP3   OH234315   5.801   0.516   2.082 -0.5849  0.2618  0.2449
 4275TIP3    H134316   5.880   0.567   2.100 -1.0667  0.0337  3.5756
 4275TIP3    H234317   5.833   0.426   2.068 -0.1476  0.5059 -0.3842
 4276TIP3   OH234318   0.594   2.017  17.065  0.5790  0.4209 -0.0686
 4276TIP3    H134319   0.507   1.982  17.081  0.4495 -0.1103 -1.7498
 4276TIP3    H234320   0.616   1.987  16.977  1.6777  2.1631 -0.4269
 4277TIP3   OH234321   2.119   1.551   1.933 -0.4431  0.0122  0.0824
 4277TIP3    H134322   2.130   1.599   2.015  2.0896 -1.3778  0.6694
 4277TIP3    H234323   2.069   1.473   1.957  1.8567 -1.3445  0.8408
 4278TIP3   OH234324   1.293   4.861  11.954 -0.3846 -0.1116  0.1933
 4278TIP3    H134325   1.222   4.879  12.015 -0.8501 -0.1132 -0.3370
 4278TIP3    H234326   1.371   4.854  12.009 -0.6731  0.6151  0.7086
 4279TIP3   OH234327   6.008   2.510  12.918 -0.8095  0.3850  0.0320
 4279TIP3    H134328   6.068   2.435  12.923  0.1915  1.0942 -0.9396
 4279TIP3    H234329   6.002   2.541  13.009 -1.3417 -0.9139  0.4732
 4280TIP3   OH234330   1.751   5.125   4.368  0.5238 -0.6387  0.0144
 4280TIP3    H134331   1.766   5.193   4.303 -0.9085 -3.1543 -3.2427
 4280TIP3    H234332   1.827   5.067   4.361  0.4489 -0.8361  0.7366
 4281TIP3   OH234333   1.752   2.125  13.957  0.1526  0.0210 -0.3577
 4281TIP3    H134334   1.814   2.138  14.029 -0.3754  1.1158 -0.0628
 4281TIP3    H234335   1.793   2.168  13.882 -1.2704  3.1188  0.4433
 4282TIP3   OH234336   0.907   1.162  14.161 -0.1523  0.8731 -0.5163
 4282TIP3    H134337   0.980   1.183  14.219 -0.0115 -1.0524  0.0643
 4282TIP3    H234338   0.941   1.092  14.105 -0.6127  1.9925 -2.2890
 4283TIP3   OH234339   5.604   5.465  11.999  0.1506  0.5225 -0.1441
 4283TIP3    H134340   5.695   5.494  11.999  0.2115  0.3392 -0.5379
 4283TIP3    H234341   5.601   5.396  11.933 -0.7311  1.9914 -1.7148
 4284TIP3   OH234342   5.779   0.965   4.560 -0.0301  0.1942  0.3752
 4284TIP3    H134343   5.858   0.972   4.507  1.8874  0.4224  3.0642
 4284TIP3    H234344   5.780   0.876   4.594 -1.1538  0.0852  0.1703
 4285TIP3   OH234345   3.750   1.015   5.835 -0.6034 -0.0986  0.1128
 4285TIP3    H134346   3.666   1.056   5.858 -0.3734  0.6263 -0.3204
 4285TIP3    H234347   3.784   0.983   5.918 -0.3823  1.3687  0.6136
 4286TIP3   OH234348   1.534   5.787   0.852  0.0029  0.0847 -0.0240
 4286TIP3    H134349   1.618   5.758   0.888 -0.2680 -0.1845  0.4022
 4286TIP3    H234350   1.500   5.710   0.806 -0.1750  0.0868  0.1052
 4287TIP3   OH234351   4.519   6.083   5.530  0.2472  0.2228  0.1412
 4287TIP3    H134352   4.500   6.172   5.559  1.7662 -0.0424  2.1654
 4287TIP3    H234353   4.552   6.039   5.608 -1.7712 -2.5517 -0.4349
 4288TIP3   OH234354   6.328   1.791  13.803  0.3060  0.4701  0.0971
 4288TIP3    H134355   6.267   1.841  13.858 -0.6979 -1.2704  0.6222
 4288TIP3    H234356   6.301   1.811  13.714 -0.6146  0.2378  0.3145
 4289TIP3   OH234357   6.337   3.183  11.585  0.2249  0.2104 -0.5382
 4289TIP3    H134358   6.284   3.192  11.506 -0.4379  0.4799 -0.0660
 4289TIP3    H234359   6.391   3.105  11.569  0.7770  0.8013 -1.6310
 4290TIP3   OH234360   2.585   5.640   4.962  0.2530 -0.4109 -0.3965
 4290TIP3    H134361   2.606   5.733   4.970  1.3271 -0.5667 -1.2364
 4290TIP3    H234362   2.517   5.626   5.027  0.7169  0.7702  0.3877
 4291TIP3   OH234363   4.787   4.469  12.827 -0.2499  0.6904 -0.1780
 4291TIP3    H134364   4.868   4.441  12.870  0.1348 -2.1590 -2.4246
 4291TIP3    H234365   4.816   4.504  12.743 -1.2768 -1.9235 -1.7553
 4292TIP3   OH234366   2.965   1.016  14.710  0.3201 -0.1781  0.8085
 4292TIP3    H134367   2.898   1.035  14.644  1.2979 -0.7965 -0.4169
 4292TIP3    H234368   2.934   0.937  14.754 -0.5739  0.5058  1.4225
 4293TIP3   OH234369   3.240   2.100   3.155 -0.0749  0.0099 -0.0172
 4293TIP3    H134370   3.246   2.161   3.229  0.7440 -0.7795  0.5844
 4293TIP3    H234371   3.252   2.013   3.194  4.7295 -0.2563 -1.4462
 4294TIP3   OH234372   4.885   5.109   5.928 -0.0968 -0.0121 -0.2386
 4294TIP3    H134373   4.958   5.160   5.895 -0.0175 -0.1792 -0.3213
 4294TIP3    H234374   4.807   5.151   5.891 -0.0489  0.2106 -0.0899
 4295TIP3   OH234375   0.482   5.764  13.292  0.1762  0.0910 -0.0046
 4295TIP3    H134376   0.550   5.722  13.240  1.2065  2.2885 -0.5731
 4295TIP3    H234377   0.485   5.856  13.265 -2.6588  0.3906  0.3714
 4296TIP3   OH234378   4.009   0.754   2.241 -0.1261 -0.0670  0.0851
 4296TIP3    H134379   4.002   0.831   2.296  0.5079 -0.4922  0.7768
 4296TIP3    H234380   4.093   0.764   2.196 -1.2742  0.9947 -1.9421
 4297TIP3   OH234381   4.197   5.256   4.315  0.0552  0.5630  0.0052
 4297TIP3    H134382   4.180   5.230   4.405  1.1180 -0.3237 -0.0247
 4297TIP3    H234383   4.210   5.173   4.268  0.2082  1.0357 -0.8140
 4298TIP3   OH234384   4.033   6.482  14.696 -0.2775 -0.4654  0.0818
 4298TIP3    H134385   3.979   6.420  14.647  0.7372 -1.2376 -0.0974
 4298TIP3    H234386   4.082   6.530  14.629  0.3318 -0.7834  0.2940
 4299TIP3   OH234387   1.044   2.239   4.105  0.0572  0.3870 -0.3162
 4299TIP3    H134388   1.004   2.220   4.021  1.6105  0.6082 -1.1414
 4299TIP3    H234389   1.080   2.327   4.095  2.2829 -0.4651 -0.2558
 4300TIP3   OH234390   4.096   5.793  13.555 -0.2419 -0.7212  0.8634
 4300TIP3    H134391   4.015   5.748  13.533 -0.4434 -0.0122  0.0810
 4300TIP3    H234392   4.117   5.763  13.643 -2.3769  0.4804  1.8834
 4301TIP3   OH234393   2.594   6.349  13.771 -0.3627 -0.1160  0.4715
 4301TIP3    H134394   2.566   6.258  13.760 -0.0107 -0.2518  0.6983
 4301TIP3    H234395   2.538   6.398  13.711 -0.4141 -0.5053  0.1985
 4302TIP3   OH234396   3.992   5.260  10.438  0.0171  0.2150 -0.2986
 4302TIP3    H134397   3.969   5.215  10.520  0.6595  0.2364 -0.1003
 4302TIP3    H234398   4.003   5.189  10.374 -0.2761  0.1850 -0.3193
 4303TIP3   OH234399   6.725   3.903   5.516 -0.3330 -0.2587 -0.1911
 4303TIP3    H134400   6.637   3.865   5.516  0.3330 -1.8668  0.3859
 4303TIP3    H234401   6.777   3.844   5.571  1.4899 -0.2119 -1.7792
 4304TIP3   OH234402   5.970   4.121  15.568 -0.4216  0.1602 -0.2394
 4304TIP3    H134403   6.014   4.069  15.636 -3.1279  0.5413  2.0118
 4304TIP3    H234404   5.950   4.057  15.499  0.6069 -0.7216  0.2497
 4305TIP3   OH234405   0.603   0.807   1.280 -0.8567  0.5322 -0.0115
 4305TIP3    H134406   0.593   0.846   1.367 -0.7584  0.5029  0.0131
 4305TIP3    H234407   0.562   0.720   1.288 -1.0595  0.6216 -0.0616
 4306TIP3   OH234408   0.830   6.722  13.325  0.0702 -0.9046 -0.1196
 4306TIP3    H134409   0.768   6.790  13.300 -0.1834 -0.9260  0.4408
 4306TIP3    H234410   0.793   6.684  13.405 -0.1020 -2.1030 -0.7516
 4307TIP3   OH234411   5.112   0.173   5.103 -0.0640  0.5062 -0.1453
 4307TIP3    H134412   5.104   0.269   5.105 -1.2158  0.4316 -0.3497
 4307TIP3    H234413   5.082   0.149   5.015 -1.3880 -0.1418  0.4449
 4308TIP3   OH234414   1.089   4.402  12.429  0.0228  0.2400 -0.0415
 4308TIP3    H134415   1.170   4.445  12.457  0.0851  1.1860 -1.5473
 4308TIP3    H234416   1.113   4.353  12.351 -0.2197 -2.0609  1.2417
 4309TIP3   OH234417   2.832   4.292  16.071 -0.1795  0.1777  0.2701
 4309TIP3    H134418   2.810   4.241  16.148 -0.6915 -1.3089 -0.8235
 4309TIP3    H234419   2.763   4.274  16.008  1.7104 -1.0310 -1.6113
 4310TIP3   OH234420   2.489   5.881  14.413 -0.4342  0.1334  0.2517
 4310TIP3    H134421   2.547   5.894  14.338 -2.3891  1.1662 -1.1636
 4310TIP3    H234422   2.525   5.805  14.458  0.7922 -0.5640 -1.7633
 4311TIP3   OH234423   2.189   3.234   2.526 -0.2572 -0.1742 -0.1652
 4311TIP3    H134424   2.217   3.283   2.449  0.6887 -0.5287 -0.0550
 4311TIP3    H234425   2.229   3.148   2.517  0.0345 -0.1610  0.8127
 4312TIP3   OH234426   5.956   5.035  11.856  0.2479 -0.5776  0.1279
 4312TIP3    H134427   6.020   5.065  11.791 -1.4059  4.6341  0.4324
 4312TIP3    H234428   5.882   5.003  11.805 -0.0608  1.1427 -0.5599
 4313TIP3   OH234429   1.921   4.257   3.312  0.1211 -0.1912  0.0930
 4313TIP3    H134430   1.953   4.190   3.373  0.8857 -0.3936 -0.5109
 4313TIP3    H234431   2.000   4.299   3.279 -0.3031  0.2157 -0.4206
 4314TIP3   OH234432   6.263   4.989  14.965  0.3865  0.3161  0.0943
 4314TIP3    H134433   6.335   5.045  14.935  1.3880  0.7726  2.9893
 4314TIP3    H234434   6.289   4.901  14.941  0.8550  0.6939 -0.8170
 4315TIP3   OH234435   3.586   1.136  16.788  0.2014  0.1997  0.1073
 4315TIP3    H134436   3.562   1.160  16.877 -0.2689  0.2876 -0.0363
 4315TIP3    H234437   3.520   1.178  16.733  1.8903  2.2087 -0.4943
 4316TIP3   OH234438   6.286   2.587   4.816  0.3857  0.4114  0.1771
 4316TIP3    H134439   6.210   2.645   4.813  2.3904  3.4498  1.6071
 4316TIP3    H234440   6.343   2.620   4.747  0.7571 -1.2938 -0.3637
 4317TIP3   OH234441   6.558   2.040   3.204 -0.2428 -0.0221 -0.2733
 4317TIP3    H134442   6.614   2.061   3.279  1.6984 -0.1464 -1.6178
 4317TIP3    H234443   6.476   2.086   3.223  0.3609  0.3827  1.6582
 4318TIP3   OH234444   5.870   3.556  16.826  0.1385  0.5358 -0.4746
 4318TIP3    H134445   5.814   3.571  16.902 -0.8871  1.3088 -1.3515
 4318TIP3    H234446   5.882   3.643  16.788 -1.1102 -0.0808 -2.3913
 4319TIP3   OH234447   6.696   6.365   3.894 -0.0292  0.7355  0.1962
 4319TIP3    H134448   6.619   6.313   3.873 -0.8700  2.2297 -0.5661
 4319TIP3    H234449   6.686   6.388   3.986 -0.0847  0.2910  0.3052
 4320TIP3   OH234450   5.685   1.081  13.426 -0.1517  0.2702 -0.0680
 4320TIP3    H134451   5.705   1.022  13.499 -0.5337 -3.3992 -2.5951
 4320TIP3    H234452   5.769   1.097  13.384  0.0369  2.1759  0.9662
 4321TIP3   OH234453   0.033   0.796  15.007  0.1735  0.1590 -0.1003
 4321TIP3    H134454   0.107   0.856  15.000  0.8420 -0.7861 -1.4162
 4321TIP3    H234455  -0.006   0.796  14.919 -2.0184  1.3941  0.7947
 4322TIP3   OH234456   2.456   0.342   5.015 -0.2711 -0.0215  0.6899
 4322TIP3    H134457   2.484   0.320   4.927  1.7920  0.6889  1.1198
 4322TIP3    H234458   2.442   0.258   5.058  1.2416 -0.4308  0.4302
 4323TIP3   OH234459   6.054   2.558  13.558  0.4100 -0.5475 -0.2108
 4323TIP3    H134460   6.046   2.651  13.581  1.0371 -0.0783 -1.7666
 4323TIP3    H234461   5.965   2.530  13.539  0.3219 -0.0165 -0.5939
 4324TIP3   OH234462   1.608   6.737   0.102 -0.5496 -0.4193 -1.0272
 4324TIP3    H134463   1.554   6.712   0.177 -1.6040 -0.4995 -1.7988
 4324TIP3    H234464   1.648   6.655   0.073  0.6159 -0.2425  0.0063
 4325TIP3   OH234465   4.231   1.430  11.466  0.3917  0.1790  0.1537
 4325TIP3    H134466   4.278   1.509  11.494 -0.3666  0.9156 -0.6030
 4325TIP3    H234467   4.295   1.383  11.412  0.9001  0.1873  0.7354
 4326TIP3   OH234468   4.252   5.594  15.769  0.4534 -0.5660 -0.4041
 4326TIP3    H134469   4.259   5.608  15.863  0.7251  2.3271 -0.7436
 4326TIP3    H234470   4.342   5.593  15.738  0.4140 -2.5826 -0.5727
 4327TIP3   OH234471   3.483   4.614   5.626 -0.0294 -0.5163  0.1016
 4327TIP3    H134472   3.524   4.550   5.684 -2.3941 -1.4393  0.8408
 4327TIP3    H234473   3.515   4.591   5.539  1.4942 -0.7611  0.6823
 4328TIP3   OH234474   6.441   6.402   1.918 -0.4492  0.0179  0.0006
 4328TIP3    H134475   6.492   6.328   1.884 -0.8386  0.7653 -2.3466
 4328TIP3    H234476   6.360   6.362   1.951 -0.3416 -0.6756 -0.5587
 4329TIP3   OH234477   1.099   1.635   3.476 -0.6533  0.6912 -0.3618
 4329TIP3    H134478   1.036   1.701   3.503 -0.6448  0.1035  1.1840
 4329TIP3    H234479   1.098   1.570   3.547 -0.9410 -1.1720 -1.9643
 4330TIP3   OH234480   3.043   5.815   6.187 -0.2472  0.2667 -0.2728
 4330TIP3    H134481   2.950   5.832   6.169 -0.4061 -0.5249 -0.2596
 4330TIP3    H234482   3.055   5.840   6.279 -1.1159 -2.0918  0.5594
 4331TIP3   OH234483   1.852   4.139   0.248 -0.4006  0.5240 -0.6860
 4331TIP3    H134484   1.814   4.196   0.181 -0.8382  0.3176 -0.6175
 4331TIP3    H234485   1.854   4.053   0.208  1.4399  0.8025 -1.2537
 4332TIP3   OH234486   1.426   4.906   4.788  0.1663  0.1342  0.5064
 4332TIP3    H134487   1.485   4.888   4.714  0.3092 -0.4453  0.7489
 4332TIP3    H234488   1.485   4.921   4.862  0.0153 -0.0889  0.6732
 4333TIP3   OH234489   6.747   2.741   1.432  0.0463  0.6979 -0.4071
 4333TIP3    H134490   6.676   2.732   1.368  1.2446  0.3141 -1.7393
 4333TIP3    H234491   6.824   2.703   1.389  1.0219  0.8712  1.0829
 4334TIP3   OH234492   5.332   5.621   0.110  0.1693  0.0726  0.0825
 4334TIP3    H134493   5.406   5.667   0.071 -1.2624  0.2468 -2.6847
 4334TIP3    H234494   5.260   5.683   0.104 -1.1103 -1.4495 -0.9729
 4335TIP3   OH234495   3.465   2.440   3.491  0.3617  0.2980  0.2858
 4335TIP3    H134496   3.499   2.529   3.479 -0.3780  0.7203  1.1938
 4335TIP3    H234497   3.514   2.406   3.566 -1.9754  1.3816  2.4647
 4336TIP3   OH234498   5.533   0.786   4.040  0.2291  0.0685  0.1117
 4336TIP3    H134499   5.572   0.781   4.128  1.0740  1.5623 -0.1541
 4336TIP3    H234500   5.537   0.696   4.007  1.0546 -0.2821  1.1187
 4337TIP3   OH234501   2.141   5.411  14.948  0.1652 -0.2669  0.2158
 4337TIP3    H134502   2.108   5.489  14.903  0.2186  0.2430  1.0267
 4337TIP3    H234503   2.103   5.417  15.036  0.7083 -0.8031  0.4931
 4338TIP3   OH234504   6.231   6.446   0.291  0.5503  0.1660  0.0501
 4338TIP3    H134505   6.142   6.474   0.310  0.9285  0.5566  1.3308
 4338TIP3    H234506   6.285   6.491   0.355  1.6212 -0.4595 -0.3757
 4339TIP3   OH234507   1.004   3.267  12.685  0.5257 -0.8010  0.8303
 4339TIP3    H134508   1.005   3.321  12.764 -1.0581 -1.2031  1.1506
 4339TIP3    H234509   1.051   3.188  12.709  0.4016 -0.7510  1.2437
 4340TIP3   OH234510   1.569   5.206  16.634 -0.2429 -0.1410  0.0043
 4340TIP3    H134511   1.482   5.165  16.634  0.0963 -0.8751  0.0944
 4340TIP3    H234512   1.562   5.277  16.570 -1.1129  0.2538  0.5195
 4341TIP3   OH234513   0.663   2.117  13.478 -0.1548 -0.0285 -0.0746
 4341TIP3    H134514   0.627   2.136  13.392  0.4956 -0.1668 -0.3867
 4341TIP3    H234515   0.700   2.029  13.469 -1.1066 -0.5256  0.6824
 4342TIP3   OH234516   2.595   3.001  14.406  0.5164 -0.1737 -0.2590
 4342TIP3    H134517   2.622   3.030  14.319  1.1946 -1.1605 -0.3944
 4342TIP3    H234518   2.514   2.952  14.391  2.0546 -2.7158 -0.7586
 4343TIP3   OH234519   0.207   2.332  13.519  0.0309 -0.7163  0.0053
 4343TIP3    H134520   0.131   2.273  13.520  0.2467 -1.1133  2.8594
 4343TIP3    H234521   0.181   2.405  13.575  1.2306 -0.1461 -0.1519
 4344TIP3   OH234522   0.677   1.137   5.857 -0.1329 -0.9174 -0.5591
 4344TIP3    H134523   0.701   1.158   5.767 -1.5143  2.6471 -0.2309
 4344TIP3    H234524   0.748   1.173   5.910  0.6390 -2.9341 -0.1095
 4345TIP3   OH234525   6.195   2.546  16.655  0.3735 -0.4603  0.1220
 4345TIP3    H134526   6.107   2.539  16.617 -1.0373  2.0276  2.6117
 4345TIP3    H234527   6.191   2.492  16.734  1.5679 -1.4117 -0.4413
 4346TIP3   OH234528   4.826   0.642   0.222 -0.2372 -0.1788  0.0146
 4346TIP3    H134529   4.813   0.711   0.287 -0.0691  0.3049 -0.4608
 4346TIP3    H234530   4.919   0.624   0.224 -0.2897 -0.4327  0.1784
 4347TIP3   OH234531   2.777   4.212  11.226 -0.6688 -0.1233  0.2862
 4347TIP3    H134532   2.760   4.163  11.145  0.8370 -0.5122  0.1844
 4347TIP3    H234533   2.774   4.303  11.199  1.4717 -0.2636 -0.6086
 4348TIP3   OH234534   0.783   2.080   2.404 -0.5674  0.1300 -0.2768
 4348TIP3    H134535   0.796   2.137   2.481 -0.6653 -0.0214 -0.1482
 4348TIP3    H234536   0.855   2.103   2.345  1.2608 -1.7715  1.0598
 4349TIP3   OH234537   5.912   0.218  12.408  0.3905  0.1186  0.3797
 4349TIP3    H134538   5.853   0.268  12.464  0.5086  0.6281  0.0541
 4349TIP3    H234539   5.946   0.149  12.464 -1.1383 -0.6922  0.3719
 4350TIP3   OH234540   5.061   1.286   5.307  0.5135  0.3129  0.1927
 4350TIP3    H134541   5.088   1.204   5.350  1.4148 -0.1033 -1.1019
 4350TIP3    H234542   5.013   1.257   5.229  1.8916  0.9669 -0.9366
 4351TIP3   OH234543   3.602   4.425  13.500  0.3095  0.0905 -0.2802
 4351TIP3    H134544   3.651   4.351  13.466 -0.1149 -1.1703  1.7085
 4351TIP3    H234545   3.633   4.436  13.590 -2.7149 -0.5361  0.9626
 4352TIP3   OH234546   5.141   1.625   4.971  0.8415 -0.0608 -0.4887
 4352TIP3    H134547   5.047   1.606   4.970  0.6805  0.5360  0.9107
 4352TIP3    H234548   5.152   1.698   4.910 -0.0909  1.7479  1.3869
 4353TIP3   OH234549   3.338   5.661  14.141 -0.2086 -1.0020 -0.2391
 4353TIP3    H134550   3.399   5.644  14.069  1.3348 -0.4150  0.8924
 4353TIP3    H234551   3.266   5.710  14.100  0.6631 -0.6209 -1.3616
 4354TIP3   OH234552   2.279   6.586  11.460 -0.4319  0.1687  0.0841
 4354TIP3    H134553   2.216   6.650  11.427 -0.6806  0.2047  0.6191
 4354TIP3    H234554   2.306   6.537  11.382 -0.9459  0.3107 -0.1875
 4355TIP3   OH234555   6.396   3.277   0.399  0.3683  0.4107  0.4014
 4355TIP3    H134556   6.463   3.328   0.444 -0.0884 -0.6329  2.3761
 4355TIP3    H234557   6.338   3.247   0.469 -1.7183  0.6122 -1.1544
 4356TIP3   OH234558   4.593   1.039   1.106 -0.4240 -0.2834  0.1093
 4356TIP3    H134559   4.649   1.032   1.029 -1.5143 -1.6647 -0.5949
 4356TIP3    H234560   4.512   0.994   1.082  0.1881 -3.2793  2.9698
 4357TIP3   OH234561   0.604   5.569  11.801 -0.4261  0.2251  0.2638
 4357TIP3    H134562   0.543   5.585  11.872  0.5931 -0.8426  1.4294
 4357TIP3    H234563   0.690   5.562  11.844  0.1925 -0.5889 -1.0361
 4358TIP3   OH234564   6.136   6.053   2.442 -0.2592  0.4287 -0.2573
 4358TIP3    H134565   6.059   6.035   2.496 -1.0599  2.2202 -0.7297
 4358TIP3    H234566   6.102   6.100   2.366  1.3061  1.4970 -0.3571
 4359TIP3   OH234567   5.600   2.934  12.092 -0.1932 -0.8091 -0.1324
 4359TIP3    H134568   5.527   2.985  12.058  0.4701  0.2536 -0.0067
 4359TIP3    H234569   5.671   2.951  12.030 -0.0486 -1.8637 -0.2779
 4360TIP3   OH234570   3.437   2.112   4.941  0.2562 -0.3893 -0.1460
 4360TIP3    H134571   3.494   2.119   4.865 -0.7576  0.5825 -0.8424
 4360TIP3    H234572   3.349   2.101   4.905 -0.1592 -0.6075  0.8977
 4361TIP3   OH234573   5.906   2.204   4.822 -0.1177  0.4198  0.3210
 4361TIP3    H134574   5.934   2.148   4.750 -1.1659  0.4107 -0.0929
 4361TIP3    H234575   5.944   2.163   4.900  3.2287  1.8557 -0.3944
 4362TIP3   OH234576   1.785   0.687  16.775 -0.0592 -0.5703 -0.2743
 4362TIP3    H134577   1.846   0.614  16.768  0.2685 -0.1796 -2.5665
 4362TIP3    H234578   1.824   0.746  16.840  0.5345 -1.6252  0.3472
 4363TIP3   OH234579   5.254   5.328   3.653 -0.1581 -0.2760 -0.3495
 4363TIP3    H134580   5.214   5.312   3.738 -0.0291 -0.6092 -0.3491
 4363TIP3    H234581   5.182   5.320   3.590 -0.4651  1.0333 -0.1815
 4364TIP3   OH234582   4.856   4.574  16.126  0.1982 -0.5100 -0.8332
 4364TIP3    H134583   4.911   4.640  16.085  0.3479  1.4824  2.3023
 4364TIP3    H234584   4.779   4.621  16.156 -0.5803 -2.1378 -0.1402
 4365TIP3   OH234585   1.963   4.330  15.911  0.1473  0.1902 -0.6501
 4365TIP3    H134586   2.013   4.290  15.840 -1.0063 -3.3259  0.3337
 4365TIP3    H234587   1.872   4.323  15.883 -0.3802 -1.8561  1.3580
 4366TIP3   OH234588   5.686   0.894   2.283 -0.4896  0.2259  0.1671
 4366TIP3    H134589   5.727   0.974   2.250 -2.2292  0.1600 -2.4310
 4366TIP3    H234590   5.754   0.828   2.278 -0.3695  0.4380 -2.6525
 4367TIP3   OH234591   5.207   4.352   3.083  0.2480  0.0128  0.2733
 4367TIP3    H134592   5.195   4.327   2.991 -1.3857 -0.0852  0.4882
 4367TIP3    H234593   5.197   4.447   3.084 -0.9012 -0.0963  0.4937
 4368TIP3   OH234594   3.927   3.114  14.593  0.2444 -0.1536  0.2715
 4368TIP3    H134595   3.954   3.034  14.547 -3.6789 -1.8569  0.4718
 4368TIP3    H234596   3.912   3.085  14.683 -0.5851  0.9936  0.5224
 4369TIP3   OH234597   0.405   0.851  15.484 -0.5619 -0.3689  0.0488
 4369TIP3    H134598   0.478   0.805  15.442 -2.0292 -1.8397 -1.0502
 4369TIP3    H234599   0.343   0.868  15.413 -1.9227 -0.4555  1.1539
 4370TIP3   OH234600   5.878   3.159  13.993  0.1672 -0.4183 -0.0124
 4370TIP3    H134601   5.796   3.166  14.043  1.0753  0.3509  1.4251
 4370TIP3    H234602   5.882   3.241  13.944 -0.1863 -0.7001 -0.5217
 4371TIP3   OH234603   3.472   0.894   0.192 -0.4676  0.5662  0.1376
 4371TIP3    H134604   3.557   0.935   0.207 -0.4030  0.8082 -0.8094
 4371TIP3    H234605   3.483   0.803   0.222 -0.5903  1.1819  2.1693
 4372TIP3   OH234606   0.962   4.074   1.779  0.5614 -0.1571 -0.0800
 4372TIP3    H134607   0.994   4.158   1.746 -0.5144 -0.1345 -1.1241
 4372TIP3    H234608   0.878   4.094   1.820 -0.7853 -0.9975 -2.2672
 4373TIP3   OH234609   4.028   3.313  14.417 -0.0333  0.3639  0.0971
 4373TIP3    H134610   4.046   3.397  14.459  0.3742 -0.2807  1.2493
 4373TIP3    H234611   4.006   3.254  14.489 -0.4300 -0.4986 -0.7022
 4374TIP3   OH234612   6.675   0.455   5.958 -0.3911 -0.5641 -0.1249
 4374TIP3    H134613   6.647   0.522   6.021  0.8718 -1.0909  1.0744
 4374TIP3    H234614   6.640   0.373   5.993 -1.7620 -0.5936 -1.4769
 4375TIP3   OH234615   6.721   3.861   4.525 -0.7880 -0.4991  0.3631
 4375TIP3    H134616   6.698   3.830   4.612  0.1581  1.0336  1.2075
 4375TIP3    H234617   6.811   3.894   4.534  0.0320 -1.9830 -1.6549
 4376TIP3   OH234618   3.548   3.843   2.042  0.7300  0.3832  0.2351
 4376TIP3    H134619   3.515   3.754   2.028 -2.2340  1.5118 -0.8843
 4376TIP3    H234620   3.595   3.864   1.961  0.8838  0.0792  0.2432
 4377TIP3   OH234621   5.760   0.571   0.541 -0.0594 -0.2314 -0.1971
 4377TIP3    H134622   5.805   0.523   0.470  2.6037  0.7352  0.7068
 4377TIP3    H234623   5.734   0.654   0.501  1.8321  0.4976 -0.0311
 4378TIP3   OH234624   6.398   5.315  15.086 -0.5437  0.0983  0.3682
 4378TIP3    H134625   6.444   5.235  15.113  0.7044  0.2649 -1.1749
 4378TIP3    H234626   6.317   5.283  15.045 -1.3713 -0.2310  2.1593
 4379TIP3   OH234627   5.980   3.437  13.796  0.0062 -0.0444 -0.0314
 4379TIP3    H134628   5.939   3.437  13.709  0.2412  1.2337 -0.1675
 4379TIP3    H234629   6.042   3.510  13.793  0.5807 -0.4760  0.9594
 4380TIP3   OH234630   5.063   2.492   5.740 -0.5737  0.0318  0.4917
 4380TIP3    H134631   5.116   2.413   5.752  1.0394  0.8872 -0.7951
 4380TIP3    H234632   4.976   2.466   5.771  0.2605 -1.7909  1.4864
 4381TIP3   OH234633   1.032   2.002   3.503  0.1842  0.4180 -0.0832
 4381TIP3    H134634   0.982   1.937   3.552  0.3462  0.5597  0.2792
 4381TIP3    H234635   1.013   1.984   3.411 -0.3044  0.2918  0.0426
 4382TIP3   OH234636   2.320   3.204   4.443 -0.1707  0.0281  0.0379
 4382TIP3    H134637   2.330   3.292   4.478 -0.6495 -0.0808  0.4570
 4382TIP3    H234638   2.311   3.148   4.520 -0.4391 -0.3149 -0.2378
 4383TIP3   OH234639   6.363   1.631  11.154  0.2570  0.8872 -0.2814
 4383TIP3    H134640   6.353   1.581  11.235  0.0381  2.1470  0.5105
 4383TIP3    H234641   6.278   1.624  11.111 -0.3461  1.9288  0.6664
 4384TIP3   OH234642   3.774   2.630   1.244 -0.1753  0.2609 -0.3852
 4384TIP3    H134643   3.853   2.606   1.292  0.0897 -0.7129 -1.2666
 4384TIP3    H234644   3.708   2.647   1.312 -0.2008 -2.4046  0.3411
 4385TIP3   OH234645   4.564   5.886  12.786  0.3675  0.2314 -0.1642
 4385TIP3    H134646   4.649   5.915  12.817  0.8268  0.1940 -1.3472
 4385TIP3    H234647   4.532   5.958  12.731 -0.7042  0.5607  0.8306
 4386TIP3   OH234648   4.063   3.127   5.704 -0.2864  0.1849 -0.1596
 4386TIP3    H134649   4.064   3.198   5.640 -0.7199  0.9462  0.6559
 4386TIP3    H234650   3.971   3.116   5.727 -0.1789 -0.3630  0.0324
 4387TIP3   OH234651   5.500   2.773   5.815  0.5904  0.5340  0.8097
 4387TIP3    H134652   5.425   2.716   5.802 -1.6510  3.2006  1.1134
 4387TIP3    H234653   5.540   2.779   5.728 -0.8820  0.7696  0.1200
 4388TIP3   OH234654   0.341   5.956   0.726 -0.0984  0.4473  0.1406
 4388TIP3    H134655   0.302   6.029   0.773  0.1135  1.1360 -0.7157
 4388TIP3    H234656   0.380   5.901   0.794 -0.7806  0.8143  0.8380
 4389TIP3   OH234657   0.044   1.373   2.663  0.4725 -0.1137  0.8549
 4389TIP3    H134658  -0.038   1.407   2.625  1.4208 -0.8596 -2.1214
 4389TIP3    H234659   0.101   1.450   2.668  0.6695 -0.1669 -0.2835
 4390TIP3   OH234660   6.210   3.390   3.284  0.4942  0.0271 -0.0889
 4390TIP3    H134661   6.254   3.470   3.313 -0.4598  0.1340  1.1604
 4390TIP3    H234662   6.125   3.392   3.328 -0.1695 -0.9169 -1.2509
 4391TIP3   OH234663   6.134   3.815   1.990  0.5790 -0.1951 -0.4940
 4391TIP3    H134664   6.098   3.726   1.984  2.3080 -0.9314 -0.3725
 4391TIP3    H234665   6.112   3.844   2.078  1.9663 -1.4137  0.2922
 4392TIP3   OH234666   5.613   4.168   1.457  0.7359 -0.4756  0.3177
 4392TIP3    H134667   5.538   4.129   1.503  0.8470 -0.0636  0.8531
 4392TIP3    H234668   5.578   4.246   1.414  0.4273 -1.3459 -1.0753
 4393TIP3   OH234669   2.936   3.059  11.953 -0.3982 -0.3402  0.1727
 4393TIP3    H134670   2.882   3.130  11.920 -0.0752 -0.2095 -0.0808
 4393TIP3    H234671   2.897   2.980  11.916  0.5032 -0.1322 -1.3073
 4394TIP3   OH234672   2.629   3.743   1.573 -0.0529 -0.1185 -0.0278
 4394TIP3    H134673   2.571   3.816   1.592 -0.5711  0.0729 -2.1032
 4394TIP3    H234674   2.586   3.667   1.613 -1.9466 -0.0408 -1.7900
 4395TIP3   OH234675   0.874   3.283  11.484  1.1644  0.1418  0.1655
 4395TIP3    H134676   0.911   3.292  11.397  2.4024 -1.6585  0.4673
 4395TIP3    H234677   0.929   3.219  11.528 -1.7593 -2.0958  0.9232
 4396TIP3   OH234678   2.053   0.418   0.152  0.0962  0.2223  0.2134
 4396TIP3    H134679   2.067   0.508   0.123  2.8134 -0.6025 -1.3876
 4396TIP3    H234680   1.965   0.397   0.122  0.6178  1.3270 -2.4395
 4397TIP3   OH234681   4.817   4.149  15.904 -0.0616 -0.7623  0.1503
 4397TIP3    H134682   4.905   4.124  15.875 -1.0564 -1.8455 -2.2553
 4397TIP3    H234683   4.802   4.098  15.983  1.7312  0.0514  1.0650
 4398TIP3   OH234684   4.191   6.040  13.472 -0.0826 -1.1627 -0.1002
 4398TIP3    H134685   4.153   5.954  13.490 -2.5880  0.0285  0.7848
 4398TIP3    H234686   4.155   6.097  13.540  1.2696  0.6799 -0.8366
 4399TIP3   OH234687   5.459   2.077   1.994 -0.2245 -0.2448 -0.0079
 4399TIP3    H134688   5.376   2.105   2.032  0.6523  0.9179  1.1702
 4399TIP3    H234689   5.523   2.090   2.064  0.8934 -1.5408 -0.7285
 4400TIP3   OH234690   6.668   5.511  15.618 -0.2107  0.0322 -0.3916
 4400TIP3    H134691   6.618   5.561  15.683 -1.9441 -1.0135 -0.8830
 4400TIP3    H234692   6.718   5.578  15.570 -1.2478  1.1261  0.0137
 4401TIP3   OH234693   4.782   4.483   5.350  0.1481  0.0488 -0.4325
 4401TIP3    H134694   4.764   4.544   5.278  0.7786  0.4885 -0.2368
 4401TIP3    H234695   4.869   4.509   5.381  0.2422 -0.6828 -0.0604
 4402TIP3   OH234696   3.066   3.334   0.265 -0.3061  0.1303  0.5455
 4402TIP3    H134697   3.112   3.250   0.255  0.2176  0.4980 -0.1776
 4402TIP3    H234698   3.135   3.398   0.281 -0.7413  0.3690  1.5871
 4403TIP3   OH234699   6.234   1.710   4.080 -0.3279 -0.0352  0.6934
 4403TIP3    H134700   6.243   1.803   4.104 -1.7890 -0.2661  2.4350
 4403TIP3    H234701   6.171   1.710   4.008  0.4295  0.3752  0.0189
 4404TIP3   OH234702   2.960   3.963   6.252  0.3474 -0.1136 -0.0917
 4404TIP3    H134703   2.989   4.028   6.316 -2.1041  1.2195 -0.1869
 4404TIP3    H234704   3.025   3.893   6.257  2.8877  2.1068  0.3459
 4405TIP3   OH234705   6.039   4.173  16.741 -0.6370  0.1753 -0.0046
 4405TIP3    H134706   6.002   4.236  16.678 -0.4702 -0.1206 -0.3988
 4405TIP3    H234707   6.035   4.219  16.825  0.1586  0.9985 -0.4019
 4406TIP3   OH234708   5.468   5.178   3.846  0.2685  0.5153 -0.4239
 4406TIP3    H134709   5.530   5.163   3.918  0.7972  2.3729 -0.4403
 4406TIP3    H234710   5.388   5.208   3.890  0.4819  1.3232 -0.5782
 4407TIP3   OH234711   0.021   1.515  16.012  0.3474  0.0072 -0.3987
 4407TIP3    H134712  -0.066   1.555  16.021  1.3104  1.9678  0.7973
 4407TIP3    H234713   0.042   1.484  16.100  1.5128  1.0236 -0.2984
 4408TIP3   OH234714   2.600   6.794   1.419  0.1783 -0.4830 -0.4393
 4408TIP3    H134715   2.551   6.751   1.489  0.8239  0.8305  0.8601
 4408TIP3    H234716   2.692   6.780   1.441  0.3920  0.4134 -0.6947
 4409TIP3   OH234717   4.005   0.867  16.635 -0.7332  0.4020  0.4545
 4409TIP3    H134718   4.080   0.908  16.678 -0.4804  1.7326 -1.1493
 4409TIP3    H234719   3.931   0.889  16.691 -0.1633  0.4671  1.2040
 4410TIP3   OH234720   2.864   1.730  13.220 -0.3438 -0.5027 -0.0158
 4410TIP3    H134721   2.946   1.758  13.179  0.0304 -0.2465  0.8775
 4410TIP3    H234722   2.876   1.637  13.238 -1.7455 -1.4949 -3.3639
 4411TIP3   OH234723   5.638   0.788  12.355 -1.0457 -0.3568 -0.0143
 4411TIP3    H134724   5.603   0.719  12.299 -0.3534  0.6175 -1.7363
 4411TIP3    H234725   5.722   0.811  12.314 -1.1400  1.3061  0.6516
 4412TIP3   OH234726   6.466   2.205   0.539  0.8669  0.0083  0.1622
 4412TIP3    H134727   6.555   2.203   0.575  0.3173  0.1337  1.5867
 4412TIP3    H234728   6.409   2.207   0.616 -0.3584  0.5194 -0.7267
 4413TIP3   OH234729   0.182   3.150   3.768  0.4116  0.5992  0.1472
 4413TIP3    H134730   0.205   3.182   3.681  0.9330 -0.8185 -0.2762
 4413TIP3    H234731   0.233   3.069   3.778 -1.7305 -0.7840  0.6032
 4414TIP3   OH234732   1.583   5.408   2.754  0.0991  0.3862  0.4910
 4414TIP3    H134733   1.537   5.394   2.837 -0.6642 -1.5881 -0.2009
 4414TIP3    H234734   1.520   5.384   2.687  1.6946 -1.1878 -0.5479
 4415TIP3   OH234735   5.377   2.718   0.925  0.4376  0.0921  0.1276
 4415TIP3    H134736   5.452   2.734   0.983 -0.3911  1.0460  0.9735
 4415TIP3    H234737   5.304   2.702   0.985 -0.1453 -0.3659 -0.6821
 4416TIP3   OH234738   3.237   1.380  13.471  0.7358  0.2981 -0.2924
 4416TIP3    H134739   3.309   1.443  13.473 -0.0778  1.2418 -0.0348
 4416TIP3    H234740   3.216   1.366  13.563  0.5693  0.0490 -0.3693
 4417TIP3   OH234741   1.443   4.333  15.432  0.1485  0.0063  0.5285
 4417TIP3    H134742   1.466   4.423  15.408 -0.8938  0.2740  0.4633
 4417TIP3    H234743   1.448   4.284  15.349 -1.0865  0.4193  0.1787
 4418TIP3   OH234744   1.225   1.825  12.090 -0.0654 -0.3598  0.1661
 4418TIP3    H134745   1.233   1.731  12.072 -0.9998 -0.7491  1.5529
 4418TIP3    H234746   1.149   1.831  12.148  0.2681  1.2110  0.4810
 4419TIP3   OH234747   4.468   4.634  15.358 -0.3883  0.1273  0.4705
 4419TIP3    H134748   4.521   4.556  15.340 -0.5459  0.0471  0.3593
 4419TIP3    H234749   4.519   4.706  15.323 -0.5795 -0.0008 -0.0741
 4420TIP3   OH234750   1.053   3.083  16.002 -0.0145  0.2649  0.6030
 4420TIP3    H134751   1.051   3.175  15.978  1.0868  0.3671  0.8611
 4420TIP3    H234752   1.142   3.068  16.034  1.0867 -1.7459 -2.8784
 4421TIP3   OH234753   4.064   0.368   4.847  0.7598  0.5104 -0.2580
 4421TIP3    H134754   4.029   0.454   4.822  1.1018  0.0455 -2.6330
 4421TIP3    H234755   4.152   0.387   4.879  1.1851  1.0271 -1.6285
 4422TIP3   OH234756   5.943   4.821   4.472 -0.1606  0.3761  0.0523
 4422TIP3    H134757   5.929   4.883   4.401 -1.5387  0.4745  0.3794
 4422TIP3    H234758   5.903   4.862   4.549 -3.6527 -1.9324 -0.2579
 4423TIP3   OH234759   5.572   1.788  14.063 -0.6477  0.2734  0.1923
 4423TIP3    H134760   5.499   1.850  14.071 -1.3989 -0.3820 -1.2926
 4423TIP3    H234761   5.642   1.839  14.022 -0.7479  0.5273  0.3330
 4424TIP3   OH234762   0.260   5.380  15.483 -0.1713  0.3205 -0.4280
 4424TIP3    H134763   0.348   5.378  15.520 -1.0450  0.2342  1.8279
 4424TIP3    H234764   0.248   5.470  15.452  0.2565  0.7085  0.5008
 4425TIP3   OH234765   1.518   1.454   2.842  0.1383  0.0641  0.7524
 4425TIP3    H134766   1.474   1.520   2.895  0.1580 -0.1308  1.0129
 4425TIP3    H234767   1.458   1.380   2.840 -1.3207  1.1617 -2.1056
 4426TIP3   OH234768   0.723   0.074  13.133 -0.2609 -0.9516 -0.1405
 4426TIP3    H134769   0.630   0.048  13.131 -0.7496  0.6734  0.2567
 4426TIP3    H234770   0.757   0.046  13.048 -0.5236 -3.5053  0.4946
 4427TIP3   OH234771   6.810   1.735  13.139  0.8214  0.4594  0.1829
 4427TIP3    H134772   6.770   1.663  13.187 -0.4619  0.4151 -0.8947
 4427TIP3    H234773   6.884   1.695  13.092  1.3934  0.2899  1.1939
 4428TIP3   OH234774   2.435   4.583  15.830 -0.4587 -0.3866  0.0275
 4428TIP3    H134775   2.382   4.648  15.784 -0.7423 -0.8802 -0.3500
 4428TIP3    H234776   2.517   4.628  15.849 -0.5405 -0.0161 -0.4934
 4429TIP3   OH234777   5.243   0.138  10.856 -0.2566  0.6398  0.5924
 4429TIP3    H134778   5.302   0.208  10.828  0.5317  0.1839  1.0566
 4429TIP3    H234779   5.270   0.063  10.803 -0.3557  0.4074  0.8713
 4430TIP3   OH234780   4.988   4.988   3.672 -0.1016  0.2085  0.0837
 4430TIP3    H134781   4.968   5.080   3.657 -1.8484 -0.3178 -1.0620
 4430TIP3    H234782   4.925   4.960   3.738 -0.9032 -0.6115 -0.9891
 4431TIP3   OH234783   5.786   3.156   2.302 -0.0731 -0.4234  0.1062
 4431TIP3    H134784   5.698   3.133   2.331 -0.4075 -1.9713 -1.8796
 4431TIP3    H234785   5.845   3.120   2.368 -0.8866 -0.2082  0.9583
 4432TIP3   OH234786   3.476   1.285  12.001  0.5657 -0.1241  0.1068
 4432TIP3    H134787   3.507   1.262  12.088  1.9532  0.6619 -0.1543
 4432TIP3    H234788   3.541   1.248  11.941  0.4096  0.5795 -0.5125
 4433TIP3   OH234789   3.875   3.672   6.668 -0.2100  0.2744 -0.2697
 4433TIP3    H134790   3.850   3.726   6.593  0.8674 -0.7367 -1.4089
 4433TIP3    H234791   3.793   3.652   6.712 -0.9685  0.2608 -1.6283
 4434TIP3   OH234792   5.144   6.593   2.076  0.4195 -0.4355 -0.3064
 4434TIP3    H134793   5.071   6.647   2.042  0.4707  1.0226  1.7483
 4434TIP3    H234794   5.134   6.596   2.171  3.7915  0.7719  0.1369
 4435TIP3   OH234795   3.584   2.440  14.230  0.1063  0.1286 -0.4794
 4435TIP3    H134796   3.639   2.482  14.296  0.2110  2.3283 -1.8732
 4435TIP3    H234797   3.611   2.479  14.147 -2.4087  0.0905 -1.4268
 4436TIP3   OH234798   4.688   5.055   3.701  0.9619  0.6440  0.0554
 4436TIP3    H134799   4.707   5.073   3.793 -0.3768 -2.7048  1.1583
 4436TIP3    H234800   4.599   5.088   3.689  0.3764 -0.6224  0.6326
 4437TIP3   OH234801   1.583   3.948   3.994  0.0330 -0.5116  0.1887
 4437TIP3    H134802   1.647   3.878   4.005  0.4292 -0.2976 -0.6619
 4437TIP3    H234803   1.629   4.027   4.023  1.3476  0.1847 -3.2706
 4438TIP3   OH234804   3.412   6.155   1.727 -0.4763 -0.2568 -0.1813
 4438TIP3    H134805   3.367   6.176   1.645 -1.0132 -2.9484 -0.6643
 4438TIP3    H234806   3.472   6.084   1.704  0.9490  0.3836  1.3420
 4439TIP3   OH234807   3.625   2.693  16.832 -0.3055  0.1761  0.3619
 4439TIP3    H134808   3.682   2.617  16.844  1.4712  1.1199 -1.4641
 4439TIP3    H234809   3.574   2.673  16.753 -0.2489  0.6239  0.2056
 4440TIP3   OH234810   2.005   5.061  16.476 -0.5572 -0.1407 -0.3532
 4440TIP3    H134811   1.933   5.004  16.451 -0.2830 -0.2848 -0.8122
 4440TIP3    H234812   2.083   5.008  16.464 -0.3603  0.0671 -0.0084
 4441TIP3   OH234813   5.959   4.148   6.673  0.0746 -0.5315  0.4338
 4441TIP3    H134814   5.997   4.155   6.761 -2.5297 -1.7044  1.7517
 4441TIP3    H234815   5.887   4.211   6.673 -1.3507 -2.1109 -0.0286
 4442TIP3   OH234816   0.645   6.165   1.710 -0.3189  0.2955 -0.0415
 4442TIP3    H134817   0.578   6.208   1.762 -1.8840  0.1119 -1.7622
 4442TIP3    H234818   0.640   6.208   1.624  0.6073 -0.8423 -0.7006
 4443TIP3   OH234819   1.398   6.380   2.019 -0.2853  0.2067  0.0014
 4443TIP3    H134820   1.324   6.428   2.055  0.3412  0.7169  0.6554
 4443TIP3    H234821   1.475   6.432   2.045  0.2761 -0.1331 -0.9326
 4444TIP3   OH234822   6.636   3.669  13.058  0.1373 -0.2054 -0.0603
 4444TIP3    H134823   6.617   3.586  13.102 -0.4915  0.3359  0.7169
 4444TIP3    H234824   6.731   3.679  13.064  0.1909 -0.7471  0.0423
 4445TIP3   OH234825   6.138   0.731  12.960  0.1066  0.1534 -0.0928
 4445TIP3    H134826   6.200   0.682  13.013  0.5705 -2.2660 -2.6361
 4445TIP3    H234827   6.192   0.789  12.907 -0.0950  0.5224  0.1030
 4446TIP3   OH234828   0.839   0.647  12.146  0.5334  0.3878 -0.3106
 4446TIP3    H134829   0.786   0.727  12.141  1.4855  1.0159 -0.8513
 4446TIP3    H234830   0.901   0.664  12.217 -0.1701 -0.4694  0.5327
 4447TIP3   OH234831   6.701   4.636  14.783 -0.1546  0.2962 -0.0072
 4447TIP3    H134832   6.795   4.641  14.798  0.0240 -1.7020 -0.2237
 4447TIP3    H234833   6.672   4.558  14.831 -2.0845  2.0021  1.7861
 4448TIP3   OH234834   0.790   2.595   0.716  0.4328 -0.1706  0.4634
 4448TIP3    H134835   0.756   2.563   0.633  0.8819  1.3476 -0.3627
 4448TIP3    H234836   0.719   2.581   0.779 -0.4739 -0.0554 -0.4988
 4449TIP3   OH234837   2.063   6.808   1.833 -0.4037  0.0064 -0.4109
 4449TIP3    H134838   2.122   6.804   1.907  1.1123 -0.2796 -1.5941
 4449TIP3    H234839   2.119   6.799   1.756 -2.0459 -0.9423 -1.5754
 4450TIP3   OH234840   5.625   2.206   2.171  0.0612 -0.0785  0.1659
 4450TIP3    H134841   5.705   2.159   2.194  0.2639  0.8640  1.5456
 4450TIP3    H234842   5.586   2.229   2.256 -2.0624 -1.1179 -0.4632
 4451TIP3   OH234843   1.473   5.967  15.916 -0.3889 -0.0580  0.0628
 4451TIP3    H134844   1.415   6.031  15.957 -1.0576 -1.2977  1.0972
 4451TIP3    H234845   1.519   6.017  15.848  1.9064  2.4916  3.1930
 4452TIP3   OH234846   3.122   4.574  14.091  0.0625  0.2363 -0.0655
 4452TIP3    H134847   3.095   4.490  14.128 -0.2529 -0.0927 -1.0252
 4452TIP3    H234848   3.218   4.575  14.101  0.2593 -0.9723 -1.5218
 4453TIP3   OH234849   4.302   2.761  13.360  0.0081  0.1320  0.5539
 4453TIP3    H134850   4.253   2.769  13.441  1.3972  0.2311  1.4178
 4453TIP3    H234851   4.378   2.707  13.383  0.4029  0.1243 -0.6906
 4454TIP3   OH234852   4.905   2.243   0.972  0.0912 -0.0054 -1.1906
 4454TIP3    H134853   4.937   2.182   0.905 -1.7609  0.3697 -2.4738
 4454TIP3    H234854   4.827   2.202   1.007  0.2638  0.4642 -0.2295
 4455TIP3   OH234855   1.109   5.821  14.969 -0.3741 -0.1059  0.1393
 4455TIP3    H134856   1.157   5.895  15.006 -0.7381  0.5193 -0.6322
 4455TIP3    H234857   1.177   5.765  14.932 -0.2087  0.7482 -0.8979
 4456TIP3   OH234858   6.541   0.064  11.340 -0.1032  0.7307 -0.1548
 4456TIP3    H134859   6.451   0.040  11.362  0.2237  0.3012  0.7401
 4456TIP3    H234860   6.568   0.000  11.274 -0.5037  0.9576 -0.5412
 4457TIP3   OH234861   3.061   5.698   2.555 -0.1675 -0.4796  0.1794
 4457TIP3    H134862   3.141   5.666   2.512 -0.6238 -0.4310 -0.7139
 4457TIP3    H234863   3.024   5.760   2.494 -1.4482 -1.2707  0.1249
 4458TIP3   OH234864   4.906   1.687   2.357  0.3554 -0.1899 -0.2237
 4458TIP3    H134865   4.841   1.650   2.298 -0.4475  1.1878 -0.2519
 4458TIP3    H234866   4.874   1.776   2.375  1.8436  0.2615  0.3485
 4459TIP3   OH234867   3.668   6.752  13.797  0.4090  0.0148  0.1610
 4459TIP3    H134868   3.619   6.834  13.803 -0.1057 -0.3333  0.9284
 4459TIP3    H234869   3.631   6.707  13.722 -0.3513 -0.1681  0.6317
 4460TIP3   OH234870   0.075   5.046   3.435 -0.1578 -0.1505  0.0555
 4460TIP3    H134871   0.004   5.098   3.398  0.9597  2.0827  0.9004
 4460TIP3    H234872   0.076   5.069   3.528  2.1341  0.4927 -0.0732
 4461TIP3   OH234873   6.387   0.343   5.677 -0.0987 -0.2289  0.0139
 4461TIP3    H134874   6.411   0.295   5.598 -0.3185 -1.0113  0.4016
 4461TIP3    H234875   6.389   0.435   5.652  0.0795 -0.4552 -0.8286
 4462TIP3   OH234876   0.420   2.185  10.876 -0.2155 -0.0469  0.1022
 4462TIP3    H134877   0.483   2.241  10.830  0.7101  0.1813  1.5868
 4462TIP3    H234878   0.369   2.144  10.806 -2.0760  3.8553 -1.1165
 4463TIP3   OH234879   3.349   0.949   1.170  0.0775 -0.4671 -0.2330
 4463TIP3    H134880   3.431   0.999   1.168 -1.3960  2.1352 -1.7037
 4463TIP3    H234881   3.358   0.884   1.101  1.0980 -0.5312 -0.0436
 4464TIP3   OH234882   2.214   4.840   1.409 -0.4610 -0.5561 -0.3312
 4464TIP3    H134883   2.182   4.755   1.379 -1.6716  0.3985 -1.9532
 4464TIP3    H234884   2.156   4.903   1.367  1.3292  1.1447 -0.4195
 4465TIP3   OH234885   2.929   6.443   5.224 -0.2291  0.0889  0.2900
 4465TIP3    H134886   2.999   6.497   5.261 -0.4459  1.4213 -1.1474
 4465TIP3    H234887   2.921   6.472   5.133 -0.8386 -1.9109 -0.3528
 4466TIP3   OH234888   2.818   5.760  14.939  0.6444 -0.2695  0.0129
 4466TIP3    H134889   2.811   5.778  14.846  0.3791  0.2815  0.1303
 4466TIP3    H234890   2.735   5.717  14.962  0.4680  0.1038  0.0952
 4467TIP3   OH234891   5.423   5.283   3.239  0.2471  0.0339 -0.0391
 4467TIP3    H134892   5.369   5.334   3.179  0.6642  1.3097  0.6406
 4467TIP3    H234893   5.361   5.250   3.304  0.1866  1.0637  0.4463
 4468TIP3   OH234894   5.640   3.509  12.617 -0.0508 -0.7990  0.3295
 4468TIP3    H134895   5.704   3.506  12.546 -0.6638  0.4582 -0.2987
 4468TIP3    H234896   5.614   3.600  12.622  0.4302 -0.7297  2.5948
 4469TIP3   OH234897   5.532   3.290  14.529 -0.5713  0.0463 -0.4015
 4469TIP3    H134898   5.525   3.382  14.554 -1.0162 -0.3590  1.1415
 4469TIP3    H234899   5.569   3.247  14.607  0.3202 -0.9753 -1.3538
 4470TIP3   OH234900   0.384   5.959  14.949 -0.4307  0.1750 -0.3070
 4470TIP3    H134901   0.441   5.931  15.020  0.0334  0.7752 -0.4422
 4470TIP3    H234902   0.398   5.895  14.880 -0.0344  0.2407 -0.2858
 4471TIP3   OH234903   3.105   3.179  15.260  0.5263  0.0181  0.4440
 4471TIP3    H134904   3.133   3.090  15.282  0.1754  0.1721  1.5956
 4471TIP3    H234905   3.177   3.235  15.289  1.1485  0.0747 -1.0996
 4472TIP3   OH234906   5.992   4.412   0.745  0.0690  0.8026  0.4981
 4472TIP3    H134907   6.004   4.427   0.651 -1.8121 -0.1352  0.0654
 4472TIP3    H234908   6.077   4.377   0.774  0.7302  1.2599 -0.8029
 4473TIP3   OH234909   0.625   0.290  14.918  0.1439  0.1271  0.0399
 4473TIP3    H134910   0.677   0.255  14.991  1.7143 -1.3825 -1.6854
 4473TIP3    H234911   0.662   0.377  14.903  0.9766 -0.2238 -0.0229
 4474TIP3   OH234912   2.349   6.442  10.953 -0.0862  0.2729 -0.0778
 4474TIP3    H134913   2.305   6.419  11.035  0.0267  0.0153 -0.0892
 4474TIP3    H234914   2.312   6.382  10.889  1.2158 -0.8430  0.1661
 4475TIP3   OH234915   0.459   0.901  16.370 -0.2922  0.0019 -0.2215
 4475TIP3    H134916   0.527   0.953  16.328 -1.0078  0.0286 -1.3991
 4475TIP3    H234917   0.467   0.922  16.463  1.7474 -0.5342 -0.2212
 4476TIP3   OH234918   1.992   1.720  15.776  0.3442  0.3841  0.8593
 4476TIP3    H134919   1.928   1.670  15.725  1.2115 -0.1282  0.2631
 4476TIP3    H234920   2.075   1.674  15.763  0.7503  0.7560  2.0207
 4477TIP3   OH234921   6.542   3.771  14.362  0.2364  0.0754  0.0419
 4477TIP3    H134922   6.518   3.755  14.271  1.2645  0.2992 -0.2850
 4477TIP3    H234923   6.459   3.786  14.407 -0.2179  1.0119 -1.0597
 4478TIP3   OH234924   2.685   2.284  17.137  0.0603  0.0274 -0.1481
 4478TIP3    H134925   2.759   2.233  17.102  1.2202  1.7662 -0.3243
 4478TIP3    H234926   2.632   2.219  17.183  3.1730 -0.9432  2.4828
 4479TIP3   OH234927   2.639   5.048  14.546  0.7777  0.3085 -0.6114
 4479TIP3    H134928   2.610   4.977  14.489 -0.1468  1.0931 -1.1506
 4479TIP3    H234929   2.726   5.021  14.576  1.3795 -0.0400 -2.5559
 4480TIP3   OH234930   5.300   4.379   6.525  0.0538  0.1702  0.0123
 4480TIP3    H134931   5.259   4.308   6.476  0.5748 -1.5585  1.9479
 4480TIP3    H234932   5.279   4.361   6.616  2.3566  1.0413  0.7957
 4481TIP3   OH234933   0.743   3.313   3.905  0.0386  0.3339  0.6466
 4481TIP3    H134934   0.672   3.342   3.848 -0.6099  0.1653  1.3502
 4481TIP3    H234935   0.729   3.219   3.914  1.0256  0.0843 -0.1083
 4482TIP3   OH234936   0.603   1.719  13.962  1.0006  0.6963 -0.1782
 4482TIP3    H134937   0.652   1.668  14.026 -1.4689 -0.0458  1.2483
 4482TIP3    H234938   0.634   1.809  13.973  2.6237  0.1282  0.0365
 4483TIP3   OH234939   0.687   4.859   2.164 -0.3195  0.2902  0.2323
 4483TIP3    H134940   0.738   4.858   2.245 -1.4571 -1.7263  1.0191
 4483TIP3    H234941   0.733   4.799   2.106  0.0110  1.0575 -0.3122
 4484TIP3   OH234942   4.371   5.329   3.233  0.0364  0.1622 -0.3861
 4484TIP3    H134943   4.297   5.347   3.292 -0.3856  1.1230 -1.1818
 4484TIP3    H234944   4.443   5.381   3.269 -0.5721  1.8090 -1.3991
 4485TIP3   OH234945   3.100   3.333  12.502  0.0678  0.1547  0.5639
 4485TIP3    H134946   3.018   3.284  12.508  0.7124 -0.9108  0.9350
 4485TIP3    H234947   3.076   3.422  12.528 -0.4801 -0.7148  3.3378
 4486TIP3   OH234948   6.708   6.673  14.048 -0.2202  0.2695  0.0543
 4486TIP3    H134949   6.644   6.710  13.987 -0.8695  0.1956  0.6784
 4486TIP3    H234950   6.713   6.580  14.026  1.1194  0.6083 -1.2565
 4487TIP3   OH234951   3.451   0.660  16.386  0.1783 -0.6265 -0.6709
 4487TIP3    H134952   3.415   0.708  16.460 -0.5363 -0.4507 -1.1297
 4487TIP3    H234953   3.502   0.725  16.337 -1.7087  0.0083 -1.9260
 4488TIP3   OH234954   5.208   1.786  13.659  0.5265 -0.5528  0.2321
 4488TIP3    H134955   5.168   1.833  13.732  0.1205 -0.6395  0.0699
 4488TIP3    H234956   5.136   1.734  13.623  0.8854 -1.0295  0.1941
 4489TIP3   OH234957   1.872   2.917  15.648  0.1177  0.5821 -0.5564
 4489TIP3    H134958   1.823   2.904  15.729 -1.6574  0.7917 -1.5564
 4489TIP3    H234959   1.914   3.002  15.658 -3.2139  2.4847 -1.3102
 4490TIP3   OH234960   4.039   4.600   3.714  0.4049  0.0523  0.2184
 4490TIP3    H134961   3.990   4.530   3.670 -0.1849 -0.6818  1.9507
 4490TIP3    H234962   3.985   4.678   3.703 -0.2338 -0.3429  0.5112
 4491TIP3   OH234963   2.211   0.484   0.597  0.6754  0.3860 -0.3544
 4491TIP3    H134964   2.225   0.578   0.585  0.1272  0.8244  1.9051
 4491TIP3    H234965   2.234   0.445   0.512  4.2485  2.1699 -0.4238
 4492TIP3   OH234966   1.610   0.980  14.625  0.1549  0.5656  0.0462
 4492TIP3    H134967   1.655   0.905  14.586  0.1590 -0.0755  1.2213
 4492TIP3    H234968   1.642   1.056  14.575  0.2702 -0.1843 -1.0642
 4493TIP3   OH234969   2.511   6.427  12.973 -0.2965  0.1317  0.6421
 4493TIP3    H134970   2.480   6.354  12.921 -0.1126 -0.4984  1.3990
 4493TIP3    H234971   2.600   6.403  13.000  0.2049  1.1304 -0.0212
 4494TIP3   OH234972   5.872   0.547  11.415 -0.0643 -0.9328 -0.3604
 4494TIP3    H134973   5.806   0.598  11.368 -0.6782 -2.0782 -0.7666
 4494TIP3    H234974   5.866   0.460  11.378  0.3508 -1.5408  0.9388
 4495TIP3   OH234975   3.614   4.023  12.790  0.1449 -0.7815  0.2001
 4495TIP3    H134976   3.709   4.016  12.789  0.1556 -0.6288 -0.1504
 4495TIP3    H234977   3.592   4.043  12.881  0.6419  1.6586 -0.1342
 4496TIP3   OH234978   3.183   2.791  12.438 -0.1929  0.8708 -1.0477
 4496TIP3    H134979   3.267   2.833  12.458  0.3777  0.0698 -1.7248
 4496TIP3    H234980   3.178   2.792  12.343 -1.1242  1.2292 -1.0027
 4497TIP3   OH234981   1.310   3.373   5.145 -0.6240  0.3562  0.2763
 4497TIP3    H134982   1.404   3.384   5.133 -0.8047  0.7807 -0.8617
 4497TIP3    H234983   1.295   3.396   5.237  0.3666  0.3352  0.4549
 4498TIP3   OH234984   4.713   6.091   2.265 -0.1332  0.2792 -0.5063
 4498TIP3    H134985   4.652   6.075   2.193 -0.9052 -1.0916  0.4080
 4498TIP3    H234986   4.658   6.115   2.339  0.6702  1.8389 -0.3772
 4499TIP3   OH234987   2.869   5.076   3.454  0.0175 -1.0695  0.5406
 4499TIP3    H134988   2.947   5.026   3.432  2.2006  1.7019  1.3630
 4499TIP3    H234989   2.861   5.140   3.383 -0.1658  0.0859  1.5772
 4500TIP3   OH234990   4.045   2.292   3.657 -0.2976  0.5525  0.2359
 4500TIP3    H134991   4.062   2.307   3.564 -1.7791  1.7248  0.1097
 4500TIP3    H234992   4.068   2.374   3.699  2.2115 -0.5620  1.2561
 4501TIP3   OH234993   1.936   5.238   4.608 -0.2706  0.1434  0.7130
 4501TIP3    H134994   2.013   5.235   4.664 -0.7583  1.3254  1.4826
 4501TIP3    H234995   1.968   5.215   4.521  0.8640  0.1838  1.1102
 4502TIP3   OH234996   2.536   6.564   5.748  0.7039  0.0449 -0.1888
 4502TIP3    H134997   2.516   6.608   5.831 -0.4397 -0.5619 -0.1233
 4502TIP3    H234998   2.477   6.603   5.684 -1.1796 -2.1094  0.1074
 4503TIP3   OH234999   6.812   4.098   4.171 -0.2682  0.3056 -0.3061
 4503TIP3    H135000   6.830   4.008   4.145 -0.3397 -0.1809  1.2384
 4503TIP3    H235001   6.879   4.150   4.127  1.7537 -0.8791  1.2255
 4504TIP3   OH235002   3.515   0.688  15.022  0.2118  0.6855  0.0901
 4504TIP3    H135003   3.552   0.614  15.068  1.2974  1.2525  0.1457
 4504TIP3    H235004   3.589   0.728  14.977 -0.7014  0.5032 -1.6644
 4505TIP3   OH235005   4.915   2.424   2.610  0.4074  0.0241 -0.1670
 4505TIP3    H135006   4.942   2.516   2.602 -1.0435  0.5134  0.1439
 4505TIP3    H235007   4.874   2.405   2.525 -0.4848  0.1085  0.2277
 4506TIP3   OH235008   4.773   4.227  13.031 -0.2767  0.2263 -0.3022
 4506TIP3    H135009   4.732   4.282  12.964  0.0780 -0.1250 -0.8198
 4506TIP3    H235010   4.701   4.196  13.085 -0.7073 -0.4303 -1.2286
 4507TIP3   OH235011   4.979   1.199   1.628 -0.1982  0.3257 -0.5982
 4507TIP3    H135012   5.059   1.231   1.671 -0.0819  0.1467 -0.6827
 4507TIP3    H235013   4.999   1.109   1.603 -1.2224 -0.5394  1.4502
 4508TIP3   OH235014   4.577   3.663  15.429 -0.2029 -0.2616 -0.0262
 4508TIP3    H135015   4.508   3.715  15.471 -0.7013 -0.6655 -0.3413
 4508TIP3    H235016   4.538   3.631  15.348 -0.3950 -2.2701  0.7947
 4509TIP3   OH235017   2.746   2.746  13.725 -0.4743  0.8023 -0.2650
 4509TIP3    H135018   2.805   2.697  13.668  0.2008  0.3062  0.8262
 4509TIP3    H235019   2.703   2.809  13.667  0.9705  1.0494 -1.1227
 4510TIP3   OH235020   2.779   0.213  16.923  0.2345  0.4610  0.0629
 4510TIP3    H135021   2.830   0.182  16.998 -0.4978 -0.1511  0.3209
 4510TIP3    H235022   2.838   0.272  16.876  1.7474 -1.4005 -0.5126
 4511TIP3   OH235023   5.581   1.097  12.023  0.8512  0.5585 -0.4352
 4511TIP3    H135024   5.531   1.141  12.091  0.6808 -1.5448  0.8935
 4511TIP3    H235025   5.523   1.096  11.947 -1.3589 -1.9945  1.1302
 4512TIP3   OH235026   4.849   0.175   4.322 -0.1171 -0.0289  0.7085
 4512TIP3    H135027   4.894   0.244   4.371 -1.1570  0.4236  1.0407
 4512TIP3    H235028   4.756   0.196   4.330 -0.3316  0.5838 -2.2220
 4513TIP3   OH235029   5.690   4.925  11.176 -0.3419  0.0089 -0.3072
 4513TIP3    H135030   5.661   4.875  11.252 -1.0444  1.5731  0.4880
 4513TIP3    H235031   5.676   5.016  11.200 -1.1317  0.5327 -2.5200
 4514TIP3   OH235032   2.131   4.197  16.220  0.3032  0.3433  0.1402
 4514TIP3    H135033   2.110   4.123  16.162 -1.7836  0.8408  0.2135
 4514TIP3    H235034   2.152   4.155  16.304 -0.5870 -0.2026  0.1069
 4515TIP3   OH235035   3.978   4.464  14.184  0.1605 -0.3267 -0.1191
 4515TIP3    H135036   3.923   4.440  14.259  1.3272 -0.8453  0.6100
 4515TIP3    H235037   3.928   4.532  14.138 -1.1466 -0.8994  0.4066
 4516TIP3   OH235038   0.013   0.151  13.528  0.8408 -0.1979 -0.1202
 4516TIP3    H135039  -0.030   0.236  13.525 -0.2861 -0.7469 -3.1150
 4516TIP3    H235040  -0.056   0.090  13.556 -0.4772 -0.9937 -4.4001
 4517TIP3   OH235041   4.462   3.784   2.854 -0.4752 -0.1198  0.2657
 4517TIP3    H135042   4.372   3.789   2.885  0.3022 -0.2636  2.7141
 4517TIP3    H235043   4.463   3.707   2.797 -1.7736 -0.3956  0.5819
 4518TIP3   OH235044   4.933   4.193  11.743 -1.0397  0.0872 -0.0199
 4518TIP3    H135045   4.945   4.100  11.761 -0.4987 -0.0491 -1.0075
 4518TIP3    H235046   4.885   4.226  11.819 -2.0186 -1.1738 -0.0464
 4519TIP3   OH235047   2.667   6.523  14.832 -0.3999  0.5685 -0.6135
 4519TIP3    H135048   2.632   6.500  14.918  0.2808 -1.2369 -0.7901
 4519TIP3    H235049   2.719   6.602  14.848  1.4939 -0.9144  1.1051
 4520TIP3   OH235050   2.723   4.882  11.882  0.1566  0.4101 -0.4113
 4520TIP3    H135051   2.790   4.940  11.918  1.1283 -0.7790 -0.1975
 4520TIP3    H235052   2.697   4.923  11.800  0.8122  1.1343 -0.2697
 4521TIP3   OH235053   2.295   5.990  12.676  0.3050  0.0779  0.0185
 4521TIP3    H135054   2.247   5.907  12.673  0.5914 -0.1361  1.0314
 4521TIP3    H235055   2.292   6.022  12.586 -1.3070 -0.1751 -0.0509
 4522TIP3   OH235056   2.839   1.914   3.759  0.5604 -0.4528  0.6748
 4522TIP3    H135057   2.852   1.942   3.668 -0.1148  0.9626  0.9754
 4522TIP3    H235058   2.809   1.824   3.752 -3.4481  0.7510 -0.8565
 4523TIP3   OH235059   5.822   5.666  11.900 -0.2868  0.0479  0.6770
 4523TIP3    H135060   5.751   5.728  11.883  0.5894  0.7269 -0.5609
 4523TIP3    H235061   5.896   5.720  11.925 -0.1997 -0.6687  2.0803
 4524TIP3   OH235062   4.050   6.767  16.139  0.5707  0.0225  0.0090
 4524TIP3    H135063   4.021   6.734  16.224  1.0909 -1.9950 -0.5320
 4524TIP3    H235064   4.105   6.696  16.104  3.6376  2.3382 -0.3293
 4525TIP3   OH235065   6.046   6.572  16.097  0.4641 -0.1658  0.0451
 4525TIP3    H135066   6.000   6.634  16.153  0.7526  0.2472 -0.1703
 4525TIP3    H235067   6.100   6.627  16.040  1.1933 -0.6392  0.2646
 4526TIP3   OH235068   0.316   4.875  17.065 -0.0945 -0.2621 -0.3341
 4526TIP3    H135069   0.398   4.924  17.069 -0.9462  1.1561  1.0504
 4526TIP3    H235070   0.318   4.818  17.142  0.1837 -1.2596 -1.0646
 4527TIP3   OH235071   4.475   1.102  13.299 -0.6507 -0.2889 -0.3300
 4527TIP3    H135072   4.539   1.143  13.357  0.4994 -2.6042  0.1548
 4527TIP3    H235073   4.444   1.173  13.243  1.6618  1.1158  0.0416
 4528TIP3   OH235074   6.404   0.394   4.793 -0.4709  0.0429  0.4284
 4528TIP3    H135075   6.351   0.474   4.798  1.1604  1.3547 -1.8839
 4528TIP3    H235076   6.458   0.397   4.872 -0.0118  1.5598  0.0853
 4529TIP3   OH235077   2.457   1.372   3.722 -0.5169 -0.8352 -0.1844
 4529TIP3    H135078   2.518   1.304   3.748  0.7748  0.7943  1.3343
 4529TIP3    H235079   2.395   1.329   3.664  1.9144 -2.6602 -1.5922
 4530TIP3   OH235080   5.550   0.281  16.899 -0.1584  0.4058  0.1131
 4530TIP3    H135081   5.585   0.335  16.829 -0.6507  0.8460  0.2034
 4530TIP3    H235082   5.479   0.232  16.858 -1.4795  1.8086  0.6505
 4531TIP3   OH235083   0.363   5.039   0.975  0.0123 -0.0941 -0.0583
 4531TIP3    H135084   0.344   5.097   0.901 -1.2798 -0.4949 -0.0662
 4531TIP3    H235085   0.423   4.974   0.938 -0.5997 -0.2758 -0.7642
 4532TIP3   OH235086   4.344   6.713   3.497 -0.0986  0.3930  0.1232
 4532TIP3    H135087   4.322   6.641   3.555  0.9266  0.4467  0.6028
 4532TIP3    H235088   4.264   6.764   3.490 -0.0096  0.9176  2.2589
 4533TIP3   OH235089   5.680   5.724  11.006  0.3487 -0.2952  0.3621
 4533TIP3    H135090   5.683   5.790  10.937  0.5748 -0.6507  0.0260
 4533TIP3    H235091   5.627   5.653  10.969 -0.0485 -0.2209  0.7898
 4534TIP3   OH235092   0.634   1.161   3.608  0.1119 -0.0712 -0.2254
 4534TIP3    H135093   0.630   1.256   3.598  1.3287 -0.0873 -1.0196
 4534TIP3    H235094   0.691   1.148   3.684 -0.1547 -0.1610 -0.0420
 4535TIP3   OH235095   2.389   4.002  13.637 -0.0679 -0.3501  0.3627
 4535TIP3    H135096   2.481   3.975  13.646  0.2748 -0.1239 -1.8149
 4535TIP3    H235097   2.340   3.920  13.635 -0.0121 -0.4516  2.1666
 4536TIP3   OH235098   1.680   4.771  12.338 -0.4849 -0.4212 -0.0469
 4536TIP3    H135099   1.641   4.780  12.425 -0.7347 -1.2711 -0.0703
 4536TIP3    H235100   1.771   4.796  12.350 -0.8304  0.8595  0.1575
 4537TIP3   OH235101   1.884   6.495  13.116  0.5543  0.1238 -0.3038
 4537TIP3    H135102   1.963   6.442  13.127  2.2185  1.4179 -4.2845
 4537TIP3    H235103   1.893   6.566  13.179  0.1775 -2.0514  2.4112
 4538TIP3   OH235104   6.105   4.707  15.840  0.1234  0.5202  0.5908
 4538TIP3    H135105   6.198   4.725  15.853  0.2904  0.6858 -0.6753
 4538TIP3    H235106   6.093   4.715  15.746 -1.0495 -0.1259  0.6758
 4539TIP3   OH235107   1.005   5.786  15.997  0.1377  0.3863  0.4718
 4539TIP3    H135108   0.963   5.826  15.920  1.3127 -0.9298 -0.9109
 4539TIP3    H235109   1.093   5.764  15.968  0.4780 -0.5418  2.0939
 4540TIP3   OH235110   0.255   5.766   5.343  0.5347 -0.2004 -0.0642
 4540TIP3    H135111   0.183   5.742   5.401  0.1493  0.7116 -0.1455
 4540TIP3    H235112   0.212   5.805   5.266  1.1362  1.7951  0.5562
 4541TIP3   OH235113   0.936   5.250  12.377 -0.3209 -0.0967 -0.1003
 4541TIP3    H135114   0.988   5.262  12.297 -1.2952 -1.0793 -0.9037
 4541TIP3    H235115   0.926   5.339  12.412 -1.4697  0.6299 -2.1103
 4542TIP3   OH235116   1.492   2.206  11.925 -0.0802 -0.1365  0.5482
 4542TIP3    H135117   1.445   2.166  11.852  0.4152  1.4448 -0.6964
 4542TIP3    H235118   1.423   2.231  11.987 -0.8778  1.5005 -0.9133
 4543TIP3   OH235119   1.640   6.302   5.259  0.4384 -0.0187  0.3475
 4543TIP3    H135120   1.591   6.233   5.303 -1.8054  1.3357  0.0993
 4543TIP3    H235121   1.658   6.367   5.327  1.1776 -0.1136  0.2544
 4544TIP3   OH235122   0.731   2.224   3.599 -0.0669  0.1986  0.2509
 4544TIP3    H135123   0.742   2.260   3.511  0.4779  0.4243  0.4064
 4544TIP3    H235124   0.657   2.272   3.637 -0.4599 -0.0678 -0.1638
 4545TIP3   OH235125   2.122   4.902   4.949 -0.1625  0.2956 -0.2835
 4545TIP3    H135126   2.138   4.878   4.858 -1.3266  1.4234 -0.8135
 4545TIP3    H235127   2.210   4.914   4.986  0.4149 -2.0168 -0.6807
 4546TIP3   OH235128   4.483   0.160  14.862  0.0373 -0.0324 -0.4534
 4546TIP3    H135129   4.510   0.108  14.786  0.3617  0.7544 -0.8843
 4546TIP3    H235130   4.454   0.095  14.926  0.5018 -0.7471 -0.9549
 4547TIP3   OH235131   2.540   3.785   0.755 -0.0534 -0.1689 -0.0307
 4547TIP3    H135132   2.599   3.821   0.822  1.9014 -2.4291 -0.4300
 4547TIP3    H235133   2.558   3.838   0.677  0.4563  0.0123  0.2045
 4548TIP3   OH235134   3.780   6.789   5.689 -0.3073 -0.3699 -0.3266
 4548TIP3    H135135   3.757   6.878   5.716 -0.0204 -0.9185  1.9339
 4548TIP3    H235136   3.697   6.751   5.659 -0.6955  0.2208 -0.0195
 4549TIP3   OH235137   4.352   6.757  11.263 -0.1808 -0.5586  0.0547
 4549TIP3    H135138   4.424   6.781  11.321 -0.2502 -2.0050  0.7671
 4549TIP3    H235139   4.287   6.826  11.276 -0.2239 -0.8755  1.7507
 4550TIP3   OH235140   3.750   5.180   1.834 -0.7150 -0.0207  0.0903
 4550TIP3    H135141   3.676   5.241   1.837 -1.5218 -0.9112 -0.8629
 4550TIP3    H235142   3.737   5.123   1.909 -1.0172 -0.1886 -0.0868
 4551TIP3   OH235143   5.922   3.877   0.033 -0.0769  0.3345  0.1646
 4551TIP3    H135144   5.918   3.963  -0.009  2.3118  1.1096  1.3906
 4551TIP3    H235145   5.974   3.824  -0.026  0.1997  0.3499  0.3934
 4552TIP3   OH235146   1.980   0.928  13.216 -0.4942  0.3351 -0.2298
 4552TIP3    H135147   2.049   0.948  13.152 -0.8755 -1.3964 -1.2485
 4552TIP3    H235148   1.902   0.971  13.181 -0.3828  0.6289 -0.1247
 4553TIP3   OH235149   6.478   0.729   2.803  0.4666 -0.5932  0.0338
 4553TIP3    H135150   6.478   0.707   2.896  0.3525 -1.0119 -0.0645
 4553TIP3    H235151   6.417   0.803   2.796  1.9807  0.7582  0.5903
 4554TIP3   OH235152   3.643   3.745   0.288 -0.2392  0.3100 -0.0447
 4554TIP3    H135153   3.568   3.804   0.279  0.0799  0.6223 -0.6700
 4554TIP3    H235154   3.657   3.711   0.199 -0.2513 -0.5072  0.2506
 4555TIP3   OH235155   3.716   4.051  14.230  0.2772 -0.3490 -0.0692
 4555TIP3    H135156   3.750   4.020  14.314  0.2109  1.4843  0.6616
 4555TIP3    H235157   3.637   4.099  14.252  0.1333 -0.0317 -1.2185
 4556TIP3   OH235158   1.216   1.331   0.083 -0.6386 -0.6188  0.7101
 4556TIP3    H135159   1.143   1.283   0.124 -1.1775 -1.2366 -0.8895
 4556TIP3    H235160   1.293   1.277   0.100 -0.8844 -0.9595  0.7612
 4557TIP3   OH235161   3.834   6.489  17.157 -0.5045 -0.2627 -0.2475
 4557TIP3    H135162   3.919   6.518  17.123 -0.1761 -0.1283  0.6628
 4557TIP3    H235163   3.782   6.470  17.079  0.5687 -0.9670 -0.8129
 4558TIP3   OH235164   4.925   2.788   5.043 -0.1940  0.3149 -0.3070
 4558TIP3    H135165   4.927   2.738   5.125 -0.6299 -0.2163 -0.6190
 4558TIP3    H235166   4.923   2.721   4.974 -3.0698  0.6843 -0.7033
 4559TIP3   OH235167   2.347   4.195   3.387 -0.1962 -0.4064 -0.0375
 4559TIP3    H135168   2.334   4.218   3.478 -1.3513 -1.0141 -0.0314
 4559TIP3    H235169   2.344   4.099   3.386 -4.3191 -0.4363 -1.2018
 4560TIP3   OH235170   4.552   4.507  15.763 -0.0104 -0.3191 -0.0105
 4560TIP3    H135171   4.554   4.574  15.831  0.1625  1.5262 -1.7166
 4560TIP3    H235172   4.489   4.442  15.794 -0.2519  0.6783  1.6898
 4561TIP3   OH235173   3.212   5.081  12.916  0.4011 -0.9630  0.3617
 4561TIP3    H135174   3.308   5.087  12.918  0.4581 -0.9705 -1.2236
 4561TIP3    H235175   3.193   4.997  12.876 -0.2896 -1.1860  1.1277
 4562TIP3   OH235176   3.762   5.581   5.454 -0.4071 -0.0180 -0.4752
 4562TIP3    H135177   3.691   5.569   5.391 -1.0641 -0.0601  0.2619
 4562TIP3    H235178   3.806   5.660   5.425 -1.5495  0.7370 -0.2073
 4563TIP3   OH235179   4.817   3.774   2.512 -0.0793  0.3707  0.1674
 4563TIP3    H135180   4.877   3.752   2.441  0.3101  1.4811  0.1482
 4563TIP3    H235181   4.776   3.690   2.535  1.5945 -0.4493  0.3071
 4564TIP3   OH235182   4.889   4.461   1.740 -0.2199 -0.6132 -0.2310
 4564TIP3    H135183   4.918   4.433   1.653  1.0241 -0.0194 -0.0377
 4564TIP3    H235184   4.862   4.552   1.727  0.7393 -0.2586  0.1321
 4565TIP3   OH235185   3.189   0.535  10.374  0.7111  0.2320 -0.1728
 4565TIP3    H135186   3.190   0.451  10.422  1.2888 -0.0654 -0.6864
 4565TIP3    H235187   3.278   0.569  10.384  0.7959  0.2418 -0.8993
 4566TIP3   OH235188   0.937   2.857   5.521 -0.7648 -0.3137 -0.8717
 4566TIP3    H135189   0.862   2.804   5.550  0.6608 -0.9145  2.0134
 4566TIP3    H235190   0.987   2.798   5.464 -2.3190  0.0534 -2.7243
 4567TIP3   OH235191   6.045   3.080   4.428 -0.1491  0.1117 -0.3507
 4567TIP3    H135192   6.025   3.041   4.513  0.9975 -0.5244 -0.3482
 4567TIP3    H235193   6.119   3.139   4.446  0.3074 -0.2659 -0.9446
 4568TIP3   OH235194   4.892   1.304  12.281  0.3903 -0.3178  0.0958
 4568TIP3    H135195   4.886   1.225  12.336  1.4343 -1.4015 -1.2901
 4568TIP3    H235196   4.804   1.341  12.284 -0.4706 -2.2309 -0.1975
 4569TIP3   OH235197   5.627   0.350  15.730  0.3621  0.5774 -0.1326
 4569TIP3    H135198   5.583   0.383  15.652  0.0567  1.0669  0.2401
 4569TIP3    H235199   5.558   0.311  15.783  0.4688  0.7654  0.1547
 4570TIP3   OH235200   5.093   3.439  14.922 -0.3294 -0.2765 -0.6069
 4570TIP3    H135201   5.089   3.364  14.981 -0.1470 -1.0814 -1.5901
 4570TIP3    H235202   5.005   3.477  14.926 -0.6124 -0.9181 -0.5689
 4571TIP3   OH235203   4.130   5.670   5.002  0.1954  0.1797 -0.3647
 4571TIP3    H135204   4.082   5.652   4.921 -0.0039  2.0896 -0.7255
 4571TIP3    H235205   4.062   5.673   5.070 -0.3853  3.3177 -0.9435
 4572TIP3   OH235206   4.322   3.513   3.666  0.2932  0.1245  0.1313
 4572TIP3    H135207   4.382   3.583   3.638 -1.0661  1.1130 -0.4050
 4572TIP3    H235208   4.261   3.557   3.725 -1.1385 -0.3962 -0.9260
 4573TIP3   OH235209   2.026   0.102   0.604 -0.5280 -0.9054  0.2432
 4573TIP3    H135210   1.938   0.131   0.628  0.3620  2.1711  0.2151
 4573TIP3    H235211   2.025   0.099   0.508 -0.4771 -0.4332  0.2278
 4574TIP3   OH235212   4.702   1.916  13.924 -0.0161  0.1539 -0.1747
 4574TIP3    H135213   4.618   1.911  13.970 -0.1647 -0.3063 -0.4886
 4574TIP3    H235214   4.768   1.901  13.993 -0.1870  0.4610  0.0607
 4575TIP3   OH235215   0.220   1.479  11.924 -0.2109 -0.4896 -0.3094
 4575TIP3    H135216   0.248   1.412  11.862  2.1582 -0.5740  0.7507
 4575TIP3    H235217   0.272   1.557  11.901 -0.8464  0.1202  0.2524
 4576TIP3   OH235218   6.749   6.614  16.476  0.2400 -0.0942 -1.0484
 4576TIP3    H135219   6.808   6.548  16.441 -0.0289 -1.7068  1.2975
 4576TIP3    H235220   6.792   6.697  16.457  1.6775 -1.0350 -2.1697
 4577TIP3   OH235221   5.788   0.373   4.822  0.7469  0.4406  0.0183
 4577TIP3    H135222   5.762   0.457   4.859  1.3508  1.1269 -1.0966
 4577TIP3    H235223   5.869   0.351   4.868  0.6561  0.5188  0.2192
 4578TIP3   OH235224   6.014   2.230   3.889  0.1686 -0.0324  0.4507
 4578TIP3    H135225   6.105   2.202   3.888  0.2896  0.3675 -0.4943
 4578TIP3    H235226   5.990   2.239   3.797 -0.8069 -0.0658  0.6843
 4579TIP3   OH235227   2.850   1.680   0.061  0.5392  0.0824 -0.1833
 4579TIP3    H135228   2.837   1.775   0.071 -0.7284 -0.3135  3.3361
 4579TIP3    H235229   2.767   1.649   0.026  0.2366  0.0775  0.5256
 4580TIP3   OH235230   3.323   4.427  15.548  0.6797 -0.0460 -0.1213
 4580TIP3    H135231   3.334   4.394  15.459 -2.0284  0.3290 -0.6916
 4580TIP3    H235232   3.412   4.444  15.579  1.6924  0.1294 -2.8667
 4581TIP3   OH235233   2.714   3.871  12.123  0.0317  0.3003  0.1024
 4581TIP3    H135234   2.719   3.782  12.089  3.1279  0.2316  0.4868
 4581TIP3    H235235   2.707   3.926  12.045  0.4759 -0.1701 -0.2723
 4582TIP3   OH235236   6.652   2.869  14.907  0.6396  0.4225  0.0019
 4582TIP3    H135237   6.638   2.963  14.919  1.1525  0.4306  0.5376
 4582TIP3    H235238   6.742   2.854  14.934  0.0684 -0.5047  1.5006
 4583TIP3   OH235239   3.082   5.998  16.790  0.4711 -0.1675 -0.0649
 4583TIP3    H135240   3.059   6.011  16.882  2.4846  1.8471  0.2683
 4583TIP3    H235241   3.020   6.053  16.742  0.3571 -0.0284  0.2382
 4584TIP3   OH235242   3.759   3.113   5.736 -0.2753  0.3195  0.4860
 4584TIP3    H135243   3.687   3.142   5.792 -0.3176 -0.8208  1.0617
 4584TIP3    H235244   3.716   3.077   5.658 -0.3832 -0.7805  1.0282
 4585TIP3   OH235245   3.179   5.309  13.092  0.0821 -0.3583 -0.3272
 4585TIP3    H135246   3.184   5.229  13.039  1.2233 -0.5162 -0.0086
 4585TIP3    H235247   3.145   5.280  13.176 -1.6495 -0.1223 -0.9032
 4586TIP3   OH235248   0.284   0.915  11.503  0.1841  0.0564 -0.0066
 4586TIP3    H135249   0.276   0.984  11.570  1.4132  0.8794 -0.6742
 4586TIP3    H235250   0.303   0.963  11.422 -0.6863 -0.9667 -0.8402
 4587TIP3   OH235251   6.723   5.592   0.650  0.1584 -0.5495  0.1702
 4587TIP3    H135252   6.630   5.615   0.658  0.2113 -0.3782  0.2875
 4587TIP3    H235253   6.749   5.568   0.739  0.9235  1.9716  0.6972
 4588TIP3   OH235254   5.766   6.641  13.270  0.3206 -0.4855  0.3193
 4588TIP3    H135255   5.844   6.639  13.325 -0.1679 -1.6250  1.0118
 4588TIP3    H235256   5.762   6.731  13.238  2.8116 -0.7847 -1.0960
 4589TIP3   OH235257   6.125   6.006   3.069 -0.8288  0.0855  0.0153
 4589TIP3    H135258   6.110   5.982   2.977 -1.1539  0.3352 -0.0008
 4589TIP3    H235259   6.190   5.944   3.100 -0.4966  0.1813 -0.4717
 4590TIP3   OH235260   6.186   1.214   1.418  0.3336  0.4247 -0.3964
 4590TIP3    H135261   6.157   1.232   1.507 -1.4232 -1.6102 -0.4870
 4590TIP3    H235262   6.107   1.223   1.365  1.5114  2.4313 -1.9347
 4591TIP3   OH235263   2.887   3.929   3.971  0.3460 -0.5059  0.1645
 4591TIP3    H135264   2.906   3.842   3.938  1.6697  0.0853 -0.7147
 4591TIP3    H235265   2.955   3.945   4.037  0.6980  0.2061 -0.3570
 4592TIP3   OH235266   0.021   2.913  12.856 -0.0191 -0.3589  0.1664
 4592TIP3    H135267   0.082   2.974  12.899 -0.5785  0.5414 -0.2912
 4592TIP3    H235268  -0.056   2.914  12.912  0.1267 -0.9763  0.3811
 4593TIP3   OH235269   6.007   0.781   2.337 -0.6917  0.3339  0.5749
 4593TIP3    H135270   6.061   0.855   2.365 -0.2511  0.5662 -0.7917
 4593TIP3    H235271   6.012   0.783   2.241 -1.4243 -0.9197  0.4886
 4594TIP3   OH235272   4.926   5.708  11.802 -0.0047 -0.0628  0.4705
 4594TIP3    H135273   4.981   5.724  11.725  0.7804  0.5587  1.1426
 4594TIP3    H235274   4.846   5.757  11.785 -0.5393 -1.2576 -0.6769
 4595TIP3   OH235275   5.115   1.958   1.068  0.2237  0.3100 -0.5915
 4595TIP3    H135276   5.206   1.954   1.037  0.5131  0.6924  0.2027
 4595TIP3    H235277   5.067   1.995   0.994  0.2104 -2.3479 -2.0750
 4596TIP3   OH235278   3.203   1.873  16.570 -1.0799  0.6222 -0.5982
 4596TIP3    H135279   3.144   1.812  16.615  0.8928 -0.8245  0.1654
 4596TIP3    H235280   3.204   1.841  16.479 -0.2131 -0.4132 -0.2458
 4597TIP3   OH235281   6.407   4.504   4.508  0.2842 -0.2323 -0.7811
 4597TIP3    H135282   6.455   4.505   4.425  0.0872 -0.8472 -0.9037
 4597TIP3    H235283   6.318   4.530   4.484  0.2632 -0.2636 -0.7364
 4598TIP3   OH235284   4.760   3.998  16.115  0.2346 -0.6378  0.6969
 4598TIP3    H135285   4.755   3.916  16.164  0.4988 -1.5151 -0.6835
 4598TIP3    H235286   4.677   4.043  16.135 -0.6981 -2.0449  0.1355
 4599TIP3   OH235287   6.089   0.633  11.273 -0.4917  0.9787 -0.1599
 4599TIP3    H135288   6.105   0.727  11.270 -0.1616  0.9439  0.4172
 4599TIP3    H235289   6.003   0.625  11.315 -1.0521  1.0619 -1.2372
 4600TIP3   OH235290   5.397   3.191   6.728  0.9870 -0.4551 -0.4790
 4600TIP3    H135291   5.493   3.185   6.735  0.8575 -1.1212  1.0476
 4600TIP3    H235292   5.366   3.103   6.748  0.0861 -0.5889 -2.2902
 4601TIP3   OH235293   2.349   4.918   3.733  0.0767  0.0282  0.3103
 4601TIP3    H135294   2.428   4.947   3.688 -0.0140 -0.8645 -0.4708
 4601TIP3    H235295   2.363   4.824   3.747 -0.5182  0.0130  0.8639
 4602TIP3   OH235296   5.510   3.080  12.329 -0.4036 -0.2310  0.0689
 4602TIP3    H135297   5.572   3.152  12.316 -0.2742 -0.2730  0.4398
 4602TIP3    H235298   5.527   3.019  12.257 -0.1615 -0.1406  0.0506
 4603TIP3   OH235299   6.509   2.391   3.412 -0.0222  0.1947  0.5266
 4603TIP3    H135300   6.556   2.372   3.494  0.7542 -0.5114 -0.0683
 4603TIP3    H235301   6.568   2.360   3.343 -0.8600  0.3871 -0.2883
 4604TIP3   OH235302   5.433   0.430   2.448  0.2487  0.4623 -0.1461
 4604TIP3    H135303   5.490   0.506   2.433 -1.2605  1.4144 -1.3194
 4604TIP3    H235304   5.422   0.391   2.361 -1.2370  0.5738 -0.0329
 4605TIP3   OH235305   2.806   0.797   1.959  0.0624 -0.3626 -0.1495
 4605TIP3    H135306   2.823   0.751   1.877  3.5921  0.1776  0.1188
 4605TIP3    H235307   2.813   0.890   1.935  2.0908 -0.2175  0.8726
 4606TIP3   OH235308   4.610   5.487   0.238 -0.4517 -0.4065 -0.4523
 4606TIP3    H135309   4.639   5.397   0.247 -0.6431 -0.3075  1.5433
 4606TIP3    H235310   4.597   5.499   0.144  0.2736 -2.2185 -0.8185
 4607TIP3   OH235311   0.584   5.868  13.599 -0.6017  0.6108  0.5131
 4607TIP3    H135312   0.553   5.807  13.532  0.6179  0.4122  0.1047
 4607TIP3    H235313   0.519   5.937  13.601 -0.4523  0.8306 -1.1932
 4608TIP3   OH235314   5.585   3.070  13.702 -0.3223  0.2536  0.5964
 4608TIP3    H135315   5.602   3.163  13.711 -0.2653  0.1659  1.4738
 4608TIP3    H235316   5.663   3.028  13.738  0.1929 -0.1468 -0.8924
 4609TIP3   OH235317   4.890   3.980   4.525 -0.0456  0.3262 -0.0970
 4609TIP3    H135318   4.912   4.070   4.503 -0.0106  0.2101 -0.5376
 4609TIP3    H235319   4.931   3.927   4.457 -3.5348  0.2210 -2.3656
 4610TIP3   OH235320   1.257   0.574   3.469  0.4060 -0.1661 -0.3530
 4610TIP3    H135321   1.263   0.481   3.490 -0.8795  0.4295  3.4603
 4610TIP3    H235322   1.168   0.598   3.491  0.7367  2.0359 -1.1370
 4611TIP3   OH235323   4.122   6.340   4.025 -0.0090 -0.0799  0.2533
 4611TIP3    H135324   4.086   6.260   3.984  2.4224 -0.5156 -1.2240
 4611TIP3    H235325   4.164   6.309   4.105  2.4750 -0.6889 -1.1885
 4612TIP3   OH235326   6.097   6.019  11.280 -0.5759  0.4580  0.1495
 4612TIP3    H135327   6.009   6.055  11.265 -1.1124 -0.5267  0.8968
 4612TIP3    H235328   6.140   6.027  11.194 -0.7780  2.5236  0.1732
 4613TIP3   OH235329   2.575   1.686   5.015  0.0539 -0.1324 -0.5893
 4613TIP3    H135330   2.614   1.760   4.968  1.1209 -1.2885 -1.5854
 4613TIP3    H235331   2.611   1.693   5.104  0.0547  0.6038 -0.6389
 4614TIP3   OH235332   2.567   5.532  15.367  0.0674  0.5502 -0.2419
 4614TIP3    H135333   2.473   5.541  15.352 -0.2904 -0.0681  1.4023
 4614TIP3    H235334   2.606   5.608  15.323 -1.2831  1.3274 -0.1541
 4615TIP3   OH235335   5.364   5.851  15.744 -0.3160  0.4101  0.4362
 4615TIP3    H135336   5.305   5.778  15.727  0.1675  0.2368 -0.5822
 4615TIP3    H235337   5.356   5.868  15.838 -3.8695  2.0336 -0.0084
 4616TIP3   OH235338   0.401   0.602   2.185  0.5881  0.3152 -0.2260
 4616TIP3    H135339   0.396   0.521   2.135 -0.3267  0.9434 -1.1873
 4616TIP3    H235340   0.377   0.670   2.123 -0.0044  1.1797  0.9175
 4617TIP3   OH235341   0.270   4.600   3.717 -0.3756  0.2277  0.1417
 4617TIP3    H135342   0.233   4.632   3.635  0.3818 -1.7496 -1.0610
 4617TIP3    H235343   0.328   4.670   3.747 -1.7704  1.5763 -0.1996
 4618TIP3   OH235344   5.434   4.856  12.578 -0.3748  0.0800 -0.1817
 4618TIP3    H135345   5.358   4.806  12.606 -1.0111  1.0011 -0.2214
 4618TIP3    H235346   5.492   4.791  12.538 -1.4618 -0.5217 -0.8213
 4619TIP3   OH235347   5.129   4.750  13.629  0.1761  0.0628  0.2450
 4619TIP3    H135348   5.222   4.726  13.631  0.0687 -0.3010  0.9464
 4619TIP3    H235349   5.083   4.673  13.662 -0.5759 -0.6078 -2.1349
 4620TIP3   OH235350   6.415   5.788   5.095 -0.2813  0.3108  0.5664
 4620TIP3    H135351   6.457   5.870   5.120 -0.0577  0.5815 -0.6500
 4620TIP3    H235352   6.485   5.723   5.102 -0.6132  0.0717  2.1579
 4621TIP3   OH235353   3.802   0.594   5.131  0.4866 -0.1279 -0.1136
 4621TIP3    H135354   3.840   0.524   5.185 -2.3653 -0.0699  2.2524
 4621TIP3    H235355   3.787   0.666   5.192 -3.2842 -0.2025 -0.7097
 4622TIP3   OH235356   3.749   6.706   4.128 -0.0965  0.1554  0.6439
 4622TIP3    H135357   3.699   6.626   4.144 -0.1505 -0.1085 -0.7231
 4622TIP3    H235358   3.837   6.686   4.162 -0.3298 -0.1712  1.0673
 4623TIP3   OH235359   2.688   4.014  16.512  0.1765 -0.0570  0.1569
 4623TIP3    H135360   2.776   3.989  16.539  0.8204  1.0483 -0.8458
 4623TIP3    H235361   2.642   4.033  16.594  0.6294 -1.3048  0.7344
 4624TIP3   OH235362   4.683   3.139  11.310  0.2746 -0.3128 -0.2110
 4624TIP3    H135363   4.592   3.113  11.324 -0.3974  1.9947  0.1212
 4624TIP3    H235364   4.690   3.152  11.215 -0.3633  1.4584 -0.0452
 4625TIP3   OH235365   3.197   3.373  13.375  0.1694 -0.4243  0.0982
 4625TIP3    H135366   3.275   3.320  13.389  1.5714  0.9528 -1.8392
 4625TIP3    H235367   3.126   3.310  13.362  1.1633 -1.7290  0.8351
 4626TIP3   OH235368   2.926   6.553   2.927 -0.4500 -0.2955 -0.0982
 4626TIP3    H135369   2.863   6.492   2.890  0.2026 -2.0939  1.5522
 4626TIP3    H235370   2.942   6.618   2.858 -1.6475 -1.6398 -1.6955
 4627TIP3   OH235371   0.972   1.715   3.014  0.2784  0.2614 -0.1875
 4627TIP3    H135372   0.883   1.732   2.984  0.0476  0.3122  0.5192
 4627TIP3    H235373   1.026   1.779   2.966  0.1695 -0.8235 -1.8392
 4628TIP3   OH235374   6.272   1.678   0.394  0.0237  0.2535 -0.2716
 4628TIP3    H135375   6.297   1.660   0.485  1.1285 -1.4854 -0.8727
 4628TIP3    H235376   6.211   1.751   0.400  0.1601  0.2516  1.8595
 4629TIP3   OH235377   2.749   4.787   3.953  0.0854 -0.3615  0.2548
 4629TIP3    H135378   2.788   4.834   3.880 -0.7909  2.1254  1.2629
 4629TIP3    H235379   2.697   4.853   3.999 -1.5543 -2.4367  1.6007
 4630TIP3   OH235380   6.176   0.970   3.681  0.5331  1.0163 -0.4620
 4630TIP3    H135381   6.081   0.962   3.671  0.6627 -0.5328 -0.6253
 4630TIP3    H235382   6.212   0.945   3.597  1.1208  1.0269 -0.2206
 4631TIP3   OH235383   0.342   1.293  16.321 -0.2391  0.2382 -0.4243
 4631TIP3    H135384   0.370   1.310  16.231 -0.8490 -4.5536 -1.8139
 4631TIP3    H235385   0.257   1.249  16.311 -1.1671  1.0934  2.6761
 4632TIP3   OH235386   0.109   6.580  15.808  0.0742 -0.3353 -0.0551
 4632TIP3    H135387   0.184   6.588  15.867  0.3169 -0.3804 -0.3558
 4632TIP3    H235388   0.034   6.606  15.862  0.4942  1.3218 -0.1984
 4633TIP3   OH235389   2.369   6.674   0.037  0.4581 -0.3478 -0.6562
 4633TIP3    H135390   2.330   6.755   0.071  1.8314  0.5051 -1.0518
 4633TIP3    H235391   2.306   6.644  -0.028 -1.2025 -0.8932  1.0872
 4634TIP3   OH235392   3.088   3.358   2.332 -0.1742 -0.1517  0.3673
 4634TIP3    H135393   3.035   3.279   2.328 -0.6714  0.1749  0.4968
 4634TIP3    H235394   3.067   3.397   2.417  1.3313 -0.7560  1.0507
 4635TIP3   OH235395   5.110   5.861  16.390 -0.1513  0.2162  0.2521
 4635TIP3    H135396   5.065   5.780  16.366  0.3213 -0.2771  0.9898
 4635TIP3    H235397   5.091   5.921  16.318 -0.8111 -0.4288 -0.1302
 4636TIP3   OH235398   4.895   1.861   4.347 -0.2171 -0.0596 -0.0162
 4636TIP3    H135399   4.972   1.915   4.332 -0.7747  1.0637  1.0202
 4636TIP3    H235400   4.835   1.917   4.397 -1.1693 -1.3456  0.3451
 4637TIP3   OH235401   5.977   5.834   2.176 -0.4937 -0.3243 -0.4705
 4637TIP3    H135402   5.903   5.894   2.190 -0.5464 -0.2305 -1.1400
 4637TIP3    H235403   5.937   5.747   2.177 -0.3236 -0.4318  1.2215
 4638TIP3   OH235404   1.710   0.712  12.180 -1.0670  0.7011 -0.2554
 4638TIP3    H135405   1.677   0.774  12.115  1.1381  0.2617 -1.9328
 4638TIP3    H235406   1.773   0.762  12.231  0.0076  0.1355 -0.9851
 4639TIP3   OH235407   2.147   2.767   2.378 -1.1834 -0.2229 -0.2578
 4639TIP3    H135408   2.056   2.790   2.399 -1.3523  0.5462 -1.6938
 4639TIP3    H235409   2.139   2.692   2.319 -0.9089  0.0682 -0.6687
 4640TIP3   OH235410   6.055   6.724   3.643  0.3011 -0.5738  0.3753
 4640TIP3    H135411   6.117   6.757   3.708 -2.5197 -0.7864  3.4260
 4640TIP3    H235412   6.055   6.791   3.574  1.6750  0.9278  1.7471
 4641TIP3   OH235413   0.793   3.545  14.473 -0.2435  0.1406 -0.0833
 4641TIP3    H135414   0.845   3.473  14.439 -0.8486  0.3523 -1.5092
 4641TIP3    H235415   0.740   3.574  14.399 -0.1819  1.9074  0.5140
 4642TIP3   OH235416   3.155   6.200  12.998 -0.1763  0.5358 -0.2188
 4642TIP3    H135417   3.169   6.117  12.953 -1.3122  0.0743  0.2528
 4642TIP3    H235418   3.229   6.208  13.058  1.4553  1.2282 -2.2039
 4643TIP3   OH235419   0.811   2.608  14.633 -0.1445  0.1028 -0.3538
 4643TIP3    H135420   0.794   2.544  14.702 -1.7622 -0.4848 -1.2539
 4643TIP3    H235421   0.782   2.565  14.552  0.8906  1.1078 -1.3034
 4644TIP3   OH235422   0.138   4.364   2.048 -0.0984 -0.2855  0.1411
 4644TIP3    H135423   0.109   4.397   2.133 -0.6127 -0.3319 -0.0153
 4644TIP3    H235424   0.218   4.413   2.030  0.2843 -0.6249  0.8772
 4645TIP3   OH235425   4.269   2.391   1.864  0.5440  0.7752 -0.0234
 4645TIP3    H135426   4.263   2.440   1.946  1.8055  1.8012 -0.5067
 4645TIP3    H235427   4.340   2.328   1.879 -0.5245 -0.4105  0.3083
 4646TIP3   OH235428   5.163   2.670  14.181 -0.3454 -0.9426 -0.4251
 4646TIP3    H135429   5.204   2.693  14.098 -0.6382 -2.1450 -0.9205
 4646TIP3    H235430   5.101   2.601  14.159 -1.0173 -0.7128  0.6713
 4647TIP3   OH235431   2.232   0.313  12.982 -0.1083 -0.6901  0.3158
 4647TIP3    H135432   2.263   0.223  12.971 -0.0875 -1.1681  3.5807
 4647TIP3    H235433   2.174   0.327  12.906  1.7166 -2.5467 -1.5663
 4648TIP3   OH235434   3.961   4.507   2.848 -0.2751  0.1107  0.1127
 4648TIP3    H135435   4.008   4.582   2.811 -0.5974  0.5870  0.6453
 4648TIP3    H235436   3.873   4.512   2.810 -0.1157 -0.3590 -0.3254
 4649TIP3   OH235437   0.071   4.169   1.886  0.0786  0.0755 -0.3433
 4649TIP3    H135438   0.095   4.237   1.949  0.1617 -0.3709  0.1145
 4649TIP3    H235439   0.070   4.088   1.937 -2.9774  0.1224 -0.1500
 4650TIP3   OH235440   5.911   4.273  16.331 -0.0129 -0.1439 -0.5384
 4650TIP3    H135441   5.880   4.205  16.271 -0.5400 -0.8940  0.5540
 4650TIP3    H235442   5.865   4.255  16.413  0.7397  0.8260  0.1113
 4651TIP3   OH235443   3.200   0.665  16.251  0.3124  0.6656 -0.1237
 4651TIP3    H135444   3.250   0.588  16.281 -0.4664 -0.7957 -2.3299
 4651TIP3    H235445   3.265   0.735  16.246  1.6152 -0.5318 -0.5277
 4652TIP3   OH235446   3.887   1.479  12.476 -0.0348 -0.0645  0.8915
 4652TIP3    H135447   3.836   1.398  12.476 -1.2446  0.5607 -2.3639
 4652TIP3    H235448   3.976   1.452  12.456 -0.1655 -0.6759  1.1231
 4653TIP3   OH235449   4.196   5.831   6.507 -0.0419 -0.7555 -0.5371
 4653TIP3    H135450   4.287   5.806   6.492 -0.0681 -1.5658  0.5675
 4653TIP3    H235451   4.148   5.790   6.435  0.5206  0.2720 -1.5491
 4654TIP3   OH235452   5.022   1.619   0.101 -0.0549 -0.0173 -0.3641
 4654TIP3    H135453   5.055   1.529   0.092 -0.3312 -0.2145  0.5461
 4654TIP3    H235454   4.972   1.619   0.183 -0.4097  0.8629 -0.5657
 4655TIP3   OH235455   6.655   2.886  15.837  0.5736  0.4208 -0.1860
 4655TIP3    H135456   6.658   2.905  15.744 -0.6959  2.2100  0.0831
 4655TIP3    H235457   6.607   2.803  15.844  1.3971 -0.1436 -1.1485
 4656TIP3   OH235458   2.799   2.404  11.638  0.5113 -0.0739 -0.0085
 4656TIP3    H135459   2.769   2.334  11.696  1.9502  0.1936  1.1134
 4656TIP3    H235460   2.889   2.421  11.666  0.9787  0.6083 -1.8280
 4657TIP3   OH235461   1.815   1.825  12.052  0.3319  0.0832 -0.0756
 4657TIP3    H135462   1.757   1.749  12.055 -1.1961  1.2121 -0.0790
 4657TIP3    H235463   1.800   1.863  11.965  1.1978  0.3157 -0.1315
 4658TIP3   OH235464   5.512   0.890   2.059 -0.8505 -0.3586 -0.2153
 4658TIP3    H135465   5.554   0.872   2.143 -0.7858 -1.5846 -0.4923
 4658TIP3    H235466   5.580   0.931   2.005 -0.6742 -0.2664  0.0776
 4659TIP3   OH235467   5.098   2.309  10.877 -0.7236 -0.1282  0.4554
 4659TIP3    H135468   5.065   2.224  10.907 -2.9494  1.1295  1.8221
 4659TIP3    H235469   5.020   2.359  10.856  0.4733  1.9336  0.6632
 4660TIP3   OH235470   0.618   3.570  12.820 -0.2653  0.5751 -0.2648
 4660TIP3    H135471   0.700   3.554  12.773 -0.2930  0.0973 -0.1567
 4660TIP3    H235472   0.623   3.662  12.847  1.1399  0.0492  1.4618
 4661TIP3   OH235473   3.188   0.697   4.779 -0.4911  0.0514 -0.2909
 4661TIP3    H135474   3.205   0.688   4.685  0.2216  2.1169 -0.4105
 4661TIP3    H235475   3.119   0.633   4.797 -1.9605  0.8286 -2.6236
 4662TIP3   OH235476   0.276   4.275   5.926 -0.0741 -0.4935  0.0986
 4662TIP3    H135477   0.355   4.327   5.941 -1.7521  1.6797  2.1577
 4662TIP3    H235478   0.236   4.267   6.012 -2.0701 -1.6520 -0.8661
 4663TIP3   OH235479   2.658   2.691  16.125 -0.0561  0.1696 -0.1280
 4663TIP3    H135480   2.634   2.707  16.216  0.7476 -0.0792  0.1325
 4663TIP3    H235481   2.581   2.650  16.087 -0.1367 -0.4071  0.6355
 4664TIP3   OH235482   1.415   3.031   1.555 -0.3578 -0.6239  0.1941
 4664TIP3    H135483   1.483   3.065   1.497  1.2978 -1.8860  1.2740
 4664TIP3    H235484   1.396   3.103   1.615 -1.4022  0.3725 -1.2739
 4665TIP3   OH235485   3.985   0.849  12.060  0.3714 -0.2850  0.2679
 4665TIP3    H135486   3.917   0.785  12.081  1.2355 -0.7619  1.8672
 4665TIP3    H235487   4.064   0.813  12.101  1.5414  0.3767 -1.2870
 4666TIP3   OH235488   4.029   1.289   1.273 -0.0779  0.1501  0.1313
 4666TIP3    H135489   4.051   1.372   1.230  1.2813  0.6718  1.6976
 4666TIP3    H235490   4.047   1.222   1.207 -3.2147  1.1229 -1.8973
 4667TIP3   OH235491   0.143   4.241  13.603  0.0230 -0.4153  0.2890
 4667TIP3    H135492   0.195   4.311  13.564  0.2660 -1.8197 -2.1240
 4667TIP3    H235493   0.207   4.184  13.645 -0.0432  0.0835  1.0873
 4668TIP3   OH235494   5.044   3.835   6.452 -0.4103  0.2282  0.2074
 4668TIP3    H135495   5.094   3.890   6.392 -1.9312  0.0718 -1.2670
 4668TIP3    H235496   5.020   3.894   6.524  1.6017  0.3607  0.8379
 4669TIP3   OH235497   1.671   6.170   2.334 -0.3638 -0.1227  0.0632
 4669TIP3    H135498   1.584   6.143   2.303  0.1601 -0.1707 -1.4541
 4669TIP3    H235499   1.675   6.264   2.316  0.7157 -0.5230 -2.0521
 4670TIP3   OH235500   2.607   1.608  13.894 -0.1257 -0.5323  0.0602
 4670TIP3    H135501   2.522   1.650  13.903  0.0876  0.0529 -0.6006
 4670TIP3    H235502   2.589   1.526  13.849 -0.4424 -0.8064  0.6727
 4671TIP3   OH235503   2.691   6.166  12.766 -0.5033 -0.4439  0.4153
 4671TIP3    H135504   2.778   6.130  12.747 -0.5398  0.0058 -0.6761
 4671TIP3    H235505   2.635   6.090  12.779  0.0142 -0.7388  0.9232
 4672TIP3   OH235506   1.181   6.641   3.291 -0.7085  0.0330  0.0087
 4672TIP3    H135507   1.275   6.622   3.295 -0.7115  0.1254  0.8875
 4672TIP3    H235508   1.161   6.679   3.377 -1.6071 -0.2739 -0.0474
 4673TIP3   OH235509   5.673   5.435  16.292  1.0624 -0.0642  0.1451
 4673TIP3    H135510   5.725   5.514  16.278  2.1522 -0.8654 -0.4525
 4673TIP3    H235511   5.622   5.454  16.370  2.6572  0.5454  1.0824
 4674TIP3   OH235512   5.182   4.892   3.546  0.3038  0.0638  0.0897
 4674TIP3    H135513   5.099   4.899   3.593  1.1151 -0.2902  1.6497
 4674TIP3    H235514   5.241   4.848   3.608  1.7526  0.6078 -0.8531
 4675TIP3   OH235515   5.320   6.535   0.781  0.5143  0.6093  0.5295
 4675TIP3    H135516   5.346   6.550   0.690  0.5372  1.1481  0.6210
 4675TIP3    H235517   5.397   6.494   0.821  0.7211  0.9221  0.4543
 4676TIP3   OH235518   3.890   3.617  14.773  0.2062 -0.0354 -0.4852
 4676TIP3    H135519   3.816   3.576  14.727 -0.9610  2.5209 -1.0520
 4676TIP3    H235520   3.916   3.688  14.715  0.4065  1.6694  1.6062
 4677TIP3   OH235521   2.749   2.235  16.751 -0.4298  0.0060 -0.7626
 4677TIP3    H135522   2.674   2.185  16.720  0.2932 -1.1495 -0.6858
 4677TIP3    H235523   2.820   2.212  16.691  0.3930 -0.5136  0.3715
 4678TIP3   OH235524   0.153   4.425   3.915  0.5138 -0.3114 -0.2930
 4678TIP3    H135525   0.061   4.421   3.889  0.6039 -1.8308 -0.4535
 4678TIP3    H235526   0.194   4.482   3.849  0.0642 -1.2529 -1.4162
 4679TIP3   OH235527   0.858   4.480   1.163  0.0209 -0.0024  0.3366
 4679TIP3    H135528   0.927   4.438   1.111 -0.6443 -0.8987  0.1403
 4679TIP3    H235529   0.777   4.454   1.119 -0.5050 -0.0511  1.3204
 4680TIP3   OH235530   0.068   3.005  11.857  0.1117  0.7087  0.4321
 4680TIP3    H135531   0.045   3.027  11.948  1.9166 -0.4694  1.2244
 4680TIP3    H235532   0.010   3.059  11.804 -1.2767  1.1309  2.2862
 4681TIP3   OH235533   4.366   2.255  13.060  0.0493  0.9524 -0.3908
 4681TIP3    H135534   4.415   2.191  13.009  0.4852  1.2266 -0.3167
 4681TIP3    H235535   4.421   2.333  13.061  0.4603  0.6949  1.2021
 4682TIP3   OH235536   3.194   6.161  11.139  0.1717 -0.8439  0.1392
 4682TIP3    H135537   3.261   6.188  11.201  0.2608 -0.1513 -0.2485
 4682TIP3    H235538   3.230   6.181  11.053 -1.1449  1.0645 -0.0312
 4683TIP3   OH235539   5.516   2.135   1.721 -0.1622 -0.0519 -0.8941
 4683TIP3    H135540   5.523   2.112   1.814 -2.4992  0.0813 -0.6285
 4683TIP3    H235541   5.515   2.051   1.676  0.8265 -0.1221 -0.8014
 4684TIP3   OH235542   4.545   4.368   0.918  0.5430  0.3950  0.0576
 4684TIP3    H135543   4.467   4.322   0.887  0.4866 -0.9749  2.0923
 4684TIP3    H235544   4.607   4.360   0.846 -0.1828 -1.0752 -0.4438
 4685TIP3   OH235545   0.479   5.090  10.464 -0.3659 -0.2402  0.8742
 4685TIP3    H135546   0.483   5.060  10.555  0.2676  0.1001  0.9652
 4685TIP3    H235547   0.411   5.036  10.424  0.9682 -2.0943  0.9275
 4686TIP3   OH235548   2.516   5.497   6.049 -0.0758 -0.3799 -0.6115
 4686TIP3    H135549   2.474   5.415   6.077 -1.5270  0.2710 -0.8163
 4686TIP3    H235550   2.444   5.551   6.016  0.7362  1.3088  0.2729
 4687TIP3   OH235551   2.065   4.258   2.729  0.4045 -0.0999  0.7818
 4687TIP3    H135552   2.146   4.289   2.690  0.1627 -1.5206 -0.9954
 4687TIP3    H235553   2.013   4.337   2.743  1.6760  0.7199  1.0039
 4688TIP3   OH235554   1.671   2.355  11.791 -0.0591  0.0304  0.2114
 4688TIP3    H135555   1.611   2.301  11.843 -2.2884  2.1531  0.0142
 4688TIP3    H235556   1.698   2.424  11.851  3.1995 -1.4056  0.6279
 4689TIP3   OH235557   3.703   2.074  12.616  0.3166 -0.4534  0.0723
 4689TIP3    H135558   3.714   2.019  12.693  0.4361 -0.7678 -0.1699
 4689TIP3    H235559   3.776   2.136  12.620  1.1111 -1.3361 -0.5157
 4690TIP3   OH235560   5.447   5.649  13.670  0.1482 -0.6474  0.0631
 4690TIP3    H135561   5.386   5.575  13.673 -0.2990 -0.2610  1.1941
 4690TIP3    H235562   5.533   5.609  13.684 -0.0832 -0.9666  0.6240
 4691TIP3   OH235563   0.906   5.520   3.021 -0.1016 -0.3202  0.0628
 4691TIP3    H135564   0.987   5.548   3.065  0.2221 -0.9989 -0.0849
 4691TIP3    H235565   0.925   5.531   2.928  0.1456 -1.2987 -0.0134
 4692TIP3   OH235566   1.043   3.506  11.804  0.5168 -0.2886  0.4034
 4692TIP3    H135567   1.010   3.426  11.844  0.6286 -0.1047  0.8714
 4692TIP3    H235568   1.138   3.501  11.814  0.6063 -0.6244 -0.5760
 4693TIP3   OH235569   2.164   6.177   2.610  0.2969 -0.0049  0.0738
 4693TIP3    H135570   2.080   6.221   2.620 -0.1121 -0.8552  0.4215
 4693TIP3    H235571   2.168   6.155   2.517  1.0315  1.7682 -0.3684
 4694TIP3   OH235572   5.109   1.614  14.681 -0.5049  0.0640  0.4122
 4694TIP3    H135573   5.052   1.677  14.636 -0.9094 -1.1701 -0.8771
 4694TIP3    H235574   5.121   1.543  14.617  0.4156 -0.8932  1.6084
 4695TIP3   OH235575   6.174   3.236   2.009 -0.3829  0.2091 -0.0810
 4695TIP3    H135576   6.187   3.236   1.914 -0.3729  1.3251 -0.0982
 4695TIP3    H235577   6.263   3.243   2.045 -0.3481 -0.7176  0.0343
 4696TIP3   OH235578   5.358   4.956   3.177  0.6935  0.5211 -0.4409
 4696TIP3    H135579   5.361   4.872   3.221  1.8707  1.1816  0.8127
 4696TIP3    H235580   5.310   5.013   3.237 -0.3717  0.6842 -1.4193
 4697TIP3   OH235581   0.309   0.910   2.290  0.3380 -0.2491 -0.3354
 4697TIP3    H135582   0.375   0.912   2.359  1.3355  0.9337 -1.2611
 4697TIP3    H235583   0.280   0.819   2.286  2.1911 -0.8865 -0.1418
 4698TIP3   OH235584   2.013   5.598   1.789 -0.1343 -0.1023 -0.1534
 4698TIP3    H135585   2.061   5.597   1.706 -1.3041 -4.5203 -1.0449
 4698TIP3    H235586   1.952   5.670   1.780 -0.5059 -0.6700 -3.4068
 4699TIP3   OH235587   2.718   0.830   5.340  0.1276 -0.1227 -0.6814
 4699TIP3    H135588   2.683   0.802   5.256 -2.3145 -3.4718  1.2183
 4699TIP3    H235589   2.702   0.924   5.343 -0.2692 -0.0146 -3.6328
 4700TIP3   OH235590   5.812   3.003  11.943 -0.1510 -0.1864  0.0629
 4700TIP3    H135591   5.862   3.058  12.003 -1.2713  0.9787 -0.0385
 4700TIP3    H235592   5.827   3.041  11.856 -0.8364 -0.1158 -0.0262
 4701TIP3   OH235593   1.870   2.192   1.797 -0.4160 -0.7818 -0.1656
 4701TIP3    H135594   1.850   2.241   1.876 -0.9904 -0.1426 -0.6923
 4701TIP3    H235595   1.932   2.124   1.825  0.5740  0.3801  0.5280
 4702TIP3   OH235596   0.382   0.064  12.994  1.1193  0.2843  0.1804
 4702TIP3    H135597   0.344   0.135  13.045  1.3600 -0.2150  1.0660
 4702TIP3    H235598   0.329   0.061  12.914 -0.3574 -0.0354  1.1443
 4703TIP3   OH235599   0.890   4.931  16.143 -0.3979 -0.3762  0.8541
 4703TIP3    H135600   0.924   4.970  16.062 -0.3416 -0.3719  0.8802
 4703TIP3    H235601   0.894   4.837  16.127 -0.5404 -0.3707  0.7887
 4704TIP3   OH235602   3.332   5.724   4.265  0.7448  0.0404 -0.1783
 4704TIP3    H135603   3.239   5.747   4.266  0.2078 -1.9365 -0.2104
 4704TIP3    H235604   3.370   5.777   4.335 -0.5900  0.2537  0.4285
 4705TIP3   OH235605   3.298   6.273  13.228  0.1900  0.3126 -0.1811
 4705TIP3    H135606   3.338   6.199  13.274  0.5150  0.7249  0.2055
 4705TIP3    H235607   3.212   6.283  13.269 -1.1709 -1.7791 -2.2674
 4706TIP3   OH235608   1.525   6.676   3.292  0.1448  0.2866  0.0998
 4706TIP3    H135609   1.496   6.734   3.221 -0.3619 -0.3127 -0.1963
 4706TIP3    H235610   1.519   6.588   3.254 -0.2750 -0.0491  0.9333
 4707TIP3   OH235611   1.453   4.432   3.224  0.1632 -0.4768  0.2293
 4707TIP3    H135612   1.549   4.425   3.224  0.3504  1.5378  0.2697
 4707TIP3    H235613   1.435   4.517   3.263 -1.5450  0.2716 -1.9796
 4708TIP3   OH235614   3.512   4.295   3.309  0.0889  0.6310 -0.5138
 4708TIP3    H135615   3.572   4.288   3.383 -1.0150  0.9877  0.4551
 4708TIP3    H235616   3.450   4.363   3.335  0.4802  1.7733 -2.3652
 4709TIP3   OH235617   5.688   1.985   0.363  0.0542 -0.1603  0.3415
 4709TIP3    H135618   5.758   1.952   0.305 -0.9573  0.1818 -1.1342
 4709TIP3    H235619   5.648   2.056   0.313 -1.4041 -0.4160  1.1106
 4710TIP3   OH235620   3.065   6.130   3.279 -0.2841 -0.0036  0.0992
 4710TIP3    H135621   3.085   6.221   3.256 -1.1578 -0.0121 -0.7702
 4710TIP3    H235622   3.141   6.101   3.330  1.1622  0.4761 -1.6535
 4711TIP3   OH235623   2.627   5.963  15.920  0.7884  0.2315 -0.5979
 4711TIP3    H135624   2.671   5.981  16.003  0.4163 -0.9728 -0.1317
 4711TIP3    H235625   2.698   5.948  15.858  1.0605  0.8987 -0.4627
 4712TIP3   OH235626   1.114   0.721   2.054  0.1192  0.5291 -0.1711
 4712TIP3    H135627   1.058   0.758   2.121  1.6670  0.3699  1.2649
 4712TIP3    H235628   1.069   0.740   1.972 -3.5088 -2.0523  0.9778
 4713TIP3   OH235629   1.988   2.015  13.313  0.5856 -0.0055 -0.6244
 4713TIP3    H135630   2.075   2.035  13.347  0.6855  0.6110 -1.2004
 4713TIP3    H235631   1.992   2.044  13.221 -1.1983  3.1539  0.1423
 4714TIP3   OH235632   1.720   6.059  15.701  0.1586  0.2987  0.4732
 4714TIP3    H135633   1.644   6.054  15.643  1.9285 -0.1995 -1.9759
 4714TIP3    H235634   1.744   5.968  15.718  2.3502  0.3013 -1.9538
 4715TIP3   OH235635   1.727   5.498  12.417 -0.0240  0.0537 -0.7697
 4715TIP3    H135636   1.794   5.567  12.413 -0.3858  0.3883 -1.2539
 4715TIP3    H235637   1.722   5.475  12.510 -1.0510  1.8519 -0.3115
 4716TIP3   OH235638   5.912   0.915   3.625  0.4213 -0.2010  0.4094
 4716TIP3    H135639   5.835   0.971   3.632  0.4860 -0.1523  0.7719
 4716TIP3    H235640   5.901   0.850   3.694  0.6648 -0.2394  0.4138
 4717TIP3   OH235641   4.631   0.566  12.297 -0.5183 -0.1231  0.4792
 4717TIP3    H135642   4.608   0.495  12.356 -0.2635 -0.3599  0.2943
 4717TIP3    H235643   4.700   0.530  12.241  0.2498  0.5488  0.9685
 4718TIP3   OH235644   4.884   0.404   0.051  0.8216  0.0909  0.7789
 4718TIP3    H135645   4.882   0.499   0.061 -0.4763  0.0212  1.5158
 4718TIP3    H235646   4.937   0.373   0.124  1.0049  0.2404  0.7087
 4719TIP3   OH235647   0.970   3.024   5.754 -0.3095  0.0793 -0.7590
 4719TIP3    H135648   0.978   2.961   5.682 -1.2041  0.9033 -1.6148
 4719TIP3    H235649   0.887   3.001   5.796 -0.7522  0.7939 -1.2133
 4720TIP3   OH235650   3.983   1.093  12.399  0.1455  0.5271  0.0474
 4720TIP3    H135651   4.019   1.127  12.317 -0.4132  1.6304  0.2384
 4720TIP3    H235652   3.904   1.045  12.373  0.6790 -0.2551 -0.1756
 4721TIP3   OH235653   3.731   3.069   4.803  0.1033  0.0780  0.0061
 4721TIP3    H135654   3.824   3.094   4.810  0.0230  0.0473  1.4653
 4721TIP3    H235655   3.708   3.040   4.891 -1.0454 -0.8314 -0.5813
 4722TIP3   OH235656   0.338   5.954   5.869 -0.0897  0.4410  0.8026
 4722TIP3    H135657   0.328   5.996   5.955  0.1414 -1.4661  1.8055
 4722TIP3    H235658   0.250   5.957   5.831 -0.6478 -0.4829  1.9807
 4723TIP3   OH235659   6.345   1.361   2.888  0.2065  0.4514 -0.0009
 4723TIP3    H135660   6.358   1.445   2.931 -0.6081  0.6761 -0.1814
 4723TIP3    H235661   6.289   1.381   2.812  1.6411  0.0814 -1.2087
 4724TIP3   OH235662   0.405   1.184  13.295 -0.2923 -1.2495 -0.0586
 4724TIP3    H135663   0.391   1.233  13.376 -0.5571 -3.7936  1.5560
 4724TIP3    H235664   0.463   1.239  13.243  1.3674 -0.2583  2.6230
 4725TIP3   OH235665   6.550   1.561   3.251  0.1785 -0.1481  0.1307
 4725TIP3    H135666   6.591   1.623   3.190  0.6593  0.7713  1.3558
 4725TIP3    H235667   6.488   1.614   3.301 -1.1444 -1.1488 -0.3919
 4726TIP3   OH235668   1.441   3.989  11.428  0.7862  0.1968 -0.1986
 4726TIP3    H135669   1.410   3.909  11.471  0.7743  0.5893  0.5516
 4726TIP3    H235670   1.378   4.057  11.453  1.6777  0.7882  0.5421
 4727TIP3   OH235671   0.933   6.014  12.293 -0.5801  0.1941 -0.1001
 4727TIP3    H135672   0.879   6.015  12.371 -0.5812  0.1423 -0.1001
 4727TIP3    H235673   0.889   5.954  12.233 -0.2337 -0.2783  0.1111
 4728TIP3   OH235674   3.296   2.718  16.475 -0.3362  0.0189  0.2362
 4728TIP3    H135675   3.221   2.703  16.418  0.5381  0.0548 -0.9691
 4728TIP3    H235676   3.299   2.813  16.487  0.8071  0.2705 -1.6097
 4729TIP3   OH235677   2.750   3.326  13.626 -0.8253  0.6403 -0.0564
 4729TIP3    H135678   2.663   3.292  13.607 -0.3565 -0.7892  0.2175
 4729TIP3    H235679   2.810   3.263  13.586  0.0916  1.0616  0.6089
 4730TIP3   OH235680   5.251   3.345  15.771 -0.7556  0.4045  0.3680
 4730TIP3    H135681   5.180   3.391  15.816 -1.6280 -1.9956  1.6761
 4730TIP3    H235682   5.214   3.259  15.751  1.0677 -0.1120 -1.0567
 4731TIP3   OH235683   5.633   4.054  14.937  0.0365 -0.5432 -0.0182
 4731TIP3    H135684   5.618   4.093  15.023 -1.2536 -0.7802 -0.1277
 4731TIP3    H235685   5.680   3.972  14.956  0.2357 -0.3389  0.4072
 4732TIP3   OH235686   6.141   0.717  17.196  0.1363 -0.2581  0.1199
 4732TIP3    H135687   6.159   0.810  17.188 -0.0904  0.2183  3.5023
 4732TIP3    H235688   6.064   0.702  17.141 -0.5759  1.8370  0.4768
 4733TIP3   OH235689   2.222   3.892  12.850  0.4360  0.4088 -0.2169
 4733TIP3    H135690   2.165   3.962  12.817 -0.7642  0.5344  1.9698
 4733TIP3    H235691   2.161   3.824  12.878  1.5762 -1.5814 -2.2830
 4734TIP3   OH235692   2.480   3.860   2.422 -0.1487  0.4798  0.3064
 4734TIP3    H135693   2.437   3.881   2.339 -0.6141 -1.5830 -0.0169
 4734TIP3    H235694   2.574   3.864   2.402 -0.2505  0.4883 -0.1791
 4735TIP3   OH235695   0.091   5.938   2.398  0.0019  0.0448  0.0071
 4735TIP3    H135696   0.066   5.853   2.435  0.0499 -0.4312 -1.0345
 4735TIP3    H235697   0.177   5.955   2.436  0.6827 -1.1162 -0.9591
 4736TIP3   OH235698   6.435   2.875   1.466  0.0039  0.4909 -0.0412
 4736TIP3    H135699   6.380   2.800   1.487  0.3859 -0.3418 -1.8154
 4736TIP3    H235700   6.495   2.884   1.540 -1.5497  0.5191  1.2514
 4737TIP3   OH235701   2.797   5.441   5.059  1.2476  0.7697  0.3503
 4737TIP3    H135702   2.835   5.488   5.133  0.0596 -0.6442  1.9463
 4737TIP3    H235703   2.719   5.493   5.036 -0.8617 -0.9410  3.0144
 4738TIP3   OH235704   6.002   1.854  16.900 -0.3363  0.1279 -0.0819
 4738TIP3    H135705   6.036   1.872  16.988  2.1285  0.1133 -0.9432
 4738TIP3    H235706   5.951   1.932  16.877 -1.5086 -0.1172  1.5388
 4739TIP3   OH235707   1.420   6.260  11.003  0.2457 -0.0374 -0.2944
 4739TIP3    H135708   1.511   6.281  10.979  0.7540 -1.9107 -0.1287
 4739TIP3    H235709   1.379   6.238  10.919  0.1069  0.2156 -0.2927
 4740TIP3   OH235710   0.907   0.635  16.213  0.0134 -0.2633 -0.1671
 4740TIP3    H135711   0.870   0.722  16.210  2.1285  0.7149 -0.0548
 4740TIP3    H235712   0.920   0.611  16.121  1.4277  0.5091 -0.2005
 4741TIP3   OH235713   5.737   4.912  14.798 -0.5511 -0.2133  0.2905
 4741TIP3    H135714   5.825   4.934  14.829 -0.5642 -1.7575  1.4968
 4741TIP3    H235715   5.751   4.875  14.711 -0.1154  0.4233  0.0822
 4742TIP3   OH235716   5.294   2.932   0.814 -0.8013 -0.7298 -0.1478
 4742TIP3    H135717   5.248   2.967   0.891  1.1260  0.2886  0.6170
 4742TIP3    H235718   5.308   2.840   0.835  0.0699 -0.3730  0.9636
 4743TIP3   OH235719   5.884   6.132   3.254 -0.0004  0.0887 -0.1244
 4743TIP3    H135720   5.801   6.174   3.279  0.9413  2.8403 -1.3065
 4743TIP3    H235721   5.910   6.175   3.173  2.8399 -0.3278  0.4574
 4744TIP3   OH235722   2.635   5.936  14.168  0.2007 -0.5380  0.3109
 4744TIP3    H135723   2.596   6.021  14.146 -0.1732 -0.3330  1.6572
 4744TIP3    H235724   2.726   5.943  14.140  0.0333  0.1058 -0.0961
 4745TIP3   OH235725   5.464   1.636   2.941  0.2712 -0.2016 -0.1217
 4745TIP3    H135726   5.497   1.553   2.907  0.8608 -0.1619  0.3502
 4745TIP3    H235727   5.454   1.621   3.035  1.3949  0.5838  0.1372
 4746TIP3   OH235728   1.153   3.121   4.184 -0.5001  0.9301  0.5684
 4746TIP3    H135729   1.223   3.055   4.183 -0.6189  0.7709  1.5413
 4746TIP3    H235730   1.197   3.201   4.213 -0.1065  1.6215 -1.7047
 4747TIP3   OH235731   4.768   4.458   3.616 -0.8327 -0.0570  0.2699
 4747TIP3    H135732   4.781   4.540   3.663  0.9181 -1.2527  2.0819
 4747TIP3    H235733   4.834   4.399   3.653 -0.5268 -1.6575 -2.5270
 4748TIP3   OH235734   2.051   6.728  12.945  0.2728 -0.0681  0.1159
 4748TIP3    H135735   2.092   6.812  12.925 -0.9044  0.8200  1.2928
 4748TIP3    H235736   2.125   6.667  12.955  1.2219  1.1306  0.6219
 4749TIP3   OH235737   2.057   4.312  14.542 -0.2350 -0.3417  0.5445
 4749TIP3    H135738   2.079   4.220  14.556  0.9029  0.0285  1.2850
 4749TIP3    H235739   2.134   4.360  14.571 -1.2461  0.9109  1.2892
 4750TIP3   OH235740   4.899   1.273   5.060 -0.6200 -0.1343 -0.0612
 4750TIP3    H135741   4.956   1.318   4.998 -2.4596 -1.5570 -3.0618
 4750TIP3    H235742   4.855   1.343   5.108  1.0180  1.0440 -0.2166
 4751TIP3   OH235743   0.490   6.529  14.194 -0.1705  0.0651  0.2034
 4751TIP3    H135744   0.550   6.455  14.202  1.6555  1.3060 -1.0041
 4751TIP3    H235745   0.404   6.493  14.211  0.6365 -2.3824 -0.5383
 4752TIP3   OH235746   2.217   4.722  10.733  0.6171 -0.4334  0.2922
 4752TIP3    H135747   2.294   4.668  10.717  2.0436  1.4846  0.3643
 4752TIP3    H235748   2.183   4.691  10.818 -0.2274 -2.9438 -0.8650
 4753TIP3   OH235749   2.282   5.289  13.601 -0.0146  0.3177 -0.1374
 4753TIP3    H135750   2.271   5.374  13.558  0.2566  1.3944  1.7590
 4753TIP3    H235751   2.216   5.233  13.561 -2.0249  2.1982  0.3311
 4754TIP3   OH235752   3.885   1.969   1.132  0.2055 -0.9584  0.0356
 4754TIP3    H135753   3.812   1.949   1.191 -0.5064 -0.8471 -0.7807
 4754TIP3    H235754   3.913   1.884   1.099  0.6236 -1.0233  0.5441
 4755TIP3   OH235755   2.677   4.117   5.745 -0.2335  0.0673 -0.3379
 4755TIP3    H135756   2.749   4.176   5.723 -1.1815  1.7072  0.7826
 4755TIP3    H235757   2.666   4.064   5.666  0.8469  1.1726 -1.2871
 4756TIP3   OH235758   1.045   1.951   0.583 -0.0729 -0.1840  0.0611
 4756TIP3    H135759   1.020   1.952   0.676 -1.1543  0.8870 -0.2187
 4756TIP3    H235760   1.058   2.043   0.561  0.5196 -0.4590 -0.7681
 4757TIP3   OH235761   5.963   3.491  14.874 -0.0745  1.0390 -0.0258
 4757TIP3    H135762   5.919   3.414  14.909 -0.1138  0.1774 -1.8535
 4757TIP3    H235763   5.905   3.564  14.896 -0.9303  0.3089  0.1834
 4758TIP3   OH235764   3.260   2.263   4.517  0.3360 -0.6180 -0.7909
 4758TIP3    H135765   3.311   2.187   4.491  0.6923 -0.3569 -0.8538
 4758TIP3    H235766   3.322   2.336   4.516  0.7037 -0.7825  2.0355
 4759TIP3   OH235767   4.253   2.707   0.894  0.0445 -0.3397  0.4987
 4759TIP3    H135768   4.286   2.670   0.812 -0.4705  0.0738  0.0992
 4759TIP3    H235769   4.299   2.791   0.902 -1.9660  0.9870 -0.8594
 4760TIP3   OH235770   2.870   3.884   5.722 -0.4115  0.2612 -0.1693
 4760TIP3    H135771   2.849   3.932   5.802  0.3364 -1.0345  0.8481
 4760TIP3    H235772   2.827   3.799   5.733  0.8075 -0.4236 -0.5136
 4761TIP3   OH235773   2.017   4.504   0.128  1.0530 -0.1319  0.3706
 4761TIP3    H135774   1.924   4.516   0.145  0.6301 -3.1035  0.5974
 4761TIP3    H235775   2.031   4.541   0.041 -0.4875 -0.3309  0.0184
 4762TIP3   OH235776   3.850   5.368  14.963 -0.2406  0.0411  0.1840
 4762TIP3    H135777   3.792   5.393  14.891 -0.2479  0.4315  0.3232
 4762TIP3    H235778   3.819   5.282  14.990 -0.1887 -0.1437 -0.3294
 4763TIP3   OH235779   3.216   4.340  12.090 -0.2763 -0.3087 -0.3645
 4763TIP3    H135780   3.144   4.324  12.028  0.6189  1.8568 -2.0962
 4763TIP3    H235781   3.175   4.389  12.162 -0.3580  2.6162 -2.2298
 4764TIP3   OH235782   0.420   1.572  16.673  0.1277 -0.3093 -0.4781
 4764TIP3    H135783   0.456   1.532  16.594  1.9552 -1.0535  0.6752
 4764TIP3    H235784   0.478   1.646  16.692 -0.3718 -0.0510  0.0994
 4765TIP3   OH235785   5.221   2.237  16.108 -0.0880  0.3146 -0.4987
 4765TIP3    H135786   5.141   2.286  16.125 -0.0362  0.1327  0.3231
 4765TIP3    H235787   5.263   2.283  16.035 -0.8080  0.5614 -0.7613
 4766TIP3   OH235788   2.031   6.212  15.000  0.3185  0.6613 -0.0181
 4766TIP3    H135789   2.111   6.239  15.044  0.7342  0.9364 -0.9016
 4766TIP3    H235790   2.010   6.286  14.942 -0.0324  0.1961 -0.4978
 4767TIP3   OH235791   4.456   1.085   4.976 -0.0790 -0.3699 -0.0905
 4767TIP3    H135792   4.483   1.023   5.044  0.8820 -0.7102 -0.7565
 4767TIP3    H235793   4.499   1.053   4.896 -1.9182 -0.5204 -1.0818
 4768TIP3   OH235794   4.398   4.601  11.632 -0.3108 -0.0462 -0.0479
 4768TIP3    H135795   4.323   4.543  11.617 -0.6661 -0.1446  1.8563
 4768TIP3    H235796   4.472   4.555  11.593 -0.8617 -1.0280  0.0311
 4769TIP3   OH235797   4.600   0.586   2.918  0.2578 -0.2485  0.4504
 4769TIP3    H135798   4.584   0.679   2.936 -0.4087 -0.4750  1.0575
 4769TIP3    H235799   4.690   0.571   2.946  0.1422  0.0544  0.9979
 4770TIP3   OH235800   2.352   1.682  13.911 -0.0644 -0.3306 -0.5203
 4770TIP3    H135801   2.267   1.642  13.928 -0.9014  1.5747 -0.0384
 4770TIP3    H235802   2.344   1.721  13.825 -0.7439  2.3554  0.6647
 4771TIP3   OH235803   3.826   4.330  12.994  0.2604  0.7859  0.0256
 4771TIP3    H135804   3.751   4.366  12.948  1.4285 -0.2380 -2.9031
 4771TIP3    H235805   3.812   4.236  12.993 -0.3573  0.7486  3.1964
 4772TIP3   OH235806   0.281   5.198  16.219 -0.3341 -0.0440  0.1989
 4772TIP3    H135807   0.197   5.238  16.200 -0.3515 -0.1795 -0.0085
 4772TIP3    H235808   0.264   5.103  16.217 -0.3238 -0.0617  0.8278
 4773TIP3   OH235809   6.386   2.227  15.326  0.6893 -0.4642 -0.1158
 4773TIP3    H135810   6.336   2.291  15.274  1.0371 -1.1645 -1.3612
 4773TIP3    H235811   6.478   2.253  15.313  0.7778 -0.6311  0.1773
 4774TIP3   OH235812   0.486   1.815   5.440  0.6147  0.4199 -0.1899
 4774TIP3    H135813   0.553   1.747   5.428  0.4840  0.3450 -0.5015
 4774TIP3    H235814   0.414   1.769   5.484  0.9226  0.5940  0.5124
 4775TIP3   OH235815   2.177   4.251   5.888 -0.6546 -0.0522 -0.0528
 4775TIP3    H135816   2.125   4.319   5.845 -0.1081  1.3721  1.3972
 4775TIP3    H235817   2.267   4.271   5.864 -0.4056  0.3454  1.1262
 4776TIP3   OH235818   0.558   0.681   0.390 -0.5092 -0.6478  0.2500
 4776TIP3    H135819   0.561   0.699   0.484  0.3257  0.0599  0.0984
 4776TIP3    H235820   0.522   0.760   0.351  2.0870  0.3518 -0.3051
 4777TIP3   OH235821   2.833   5.161  12.223 -0.7576 -0.0311  0.1952
 4777TIP3    H135822   2.850   5.163  12.129 -1.4052 -1.5693  0.0233
 4777TIP3    H235823   2.887   5.089  12.256  1.8051  2.2652  1.5634
 4778TIP3   OH235824   4.157   1.355  12.133  0.0195  0.2245  0.6919
 4778TIP3    H135825   4.158   1.336  12.226 -0.6840 -1.9349  0.3171
 4778TIP3    H235826   4.116   1.278  12.093 -0.5277  1.4737 -1.3163
 4779TIP3   OH235827   6.010   4.732   5.460 -0.2023 -0.6054 -0.3562
 4779TIP3    H135828   5.974   4.751   5.373 -1.0673 -1.8254 -0.2990
 4779TIP3    H235829   5.950   4.667   5.496 -0.5040  0.7053  1.6202
 4780TIP3   OH235830   2.608   1.319   4.233 -0.0522  0.2830 -0.0099
 4780TIP3    H135831   2.587   1.274   4.315 -0.0303 -0.3903 -0.3595
 4780TIP3    H235832   2.572   1.261   4.165  1.1067  0.1468 -0.5329
 4781TIP3   OH235833   5.867   5.374   1.374 -0.4151  0.2862  0.2750
 4781TIP3    H135834   5.779   5.336   1.381 -0.8577  1.1283 -0.5061
 4781TIP3    H235835   5.896   5.382   1.465 -1.1111 -0.0584  0.5425
 4782TIP3   OH235836   6.687   0.505  16.459  0.8002 -0.8029 -0.7659
 4782TIP3    H135837   6.770   0.493  16.412  1.9706  0.3835  0.8747
 4782TIP3    H235838   6.643   0.576  16.413  2.5691  1.3192  0.5886
 4783TIP3   OH235839   2.587   0.568  10.276  0.1019  0.4101 -0.2002
 4783TIP3    H135840   2.512   0.515  10.250 -0.1580  0.4804  0.3944
 4783TIP3    H235841   2.661   0.531  10.227 -0.1360 -0.2833 -0.0494
 4784TIP3   OH235842   0.279   5.582  17.012  0.3909  0.7441  0.5475
 4784TIP3    H135843   0.219   5.571  17.086  1.3678  2.0377  1.6057
 4784TIP3    H235844   0.298   5.676  17.012  1.1510  0.5991 -0.7678
 4785TIP3   OH235845   0.445   0.077   3.022 -0.0883  0.0948 -0.1302
 4785TIP3    H135846   0.465   0.077   2.928 -1.1244 -0.4121 -0.3599
 4785TIP3    H235847   0.349   0.079   3.026 -0.1246 -1.8095  0.8943
 4786TIP3   OH235848   4.857   6.470   2.335 -0.3026  0.5917  0.5313
 4786TIP3    H135849   4.767   6.443   2.316 -0.0097 -0.6088  0.7376
 4786TIP3    H235850   4.903   6.387   2.352  0.8458  1.1876  0.3904
 4787TIP3   OH235851   5.995   2.890   2.008  0.4298 -0.2320 -0.0764
 4787TIP3    H135852   6.032   2.951   2.072  0.8964 -0.7396  0.1448
 4787TIP3    H235853   5.998   2.938   1.925 -0.6212  0.6107  0.3530
 4788TIP3   OH235854   3.691   1.125   0.048  0.3491  0.0180 -0.1977
 4788TIP3    H135855   3.778   1.151   0.019 -0.0279  0.4119 -0.9911
 4788TIP3    H235856   3.688   1.030   0.033  0.7445 -0.0413  0.1062
 4789TIP3   OH235857   3.200   5.231   0.938 -0.1816  0.4118  0.2937
 4789TIP3    H135858   3.164   5.310   0.978 -2.1715 -0.1242 -0.2876
 4789TIP3    H235859   3.203   5.251   0.844  2.0382  0.7690  0.4022
 4790TIP3   OH235860   6.450   5.326  14.434  0.0397 -0.5049  0.0100
 4790TIP3    H135861   6.458   5.414  14.472 -1.0692 -0.0679 -0.7043
 4790TIP3    H235862   6.514   5.325  14.362 -0.9721  0.2938 -0.9505
 4791TIP3   OH235863   4.063   4.526   1.159  0.1897  0.3027 -0.3564
 4791TIP3    H135864   4.129   4.520   1.091 -0.8220  1.3530 -1.4870
 4791TIP3    H235865   3.986   4.481   1.122 -0.8345  2.1149 -0.5585
 4792TIP3   OH235866   4.039   2.096  13.486 -0.4547  0.1366 -0.4137
 4792TIP3    H135867   4.013   2.176  13.532 -1.7634 -1.1415  1.1940
 4792TIP3    H235868   4.109   2.060  13.540 -1.9974 -1.3721  0.6806
 4793TIP3   OH235869   4.343   1.799   1.530  0.0339 -0.5433 -0.4231
 4793TIP3    H135870   4.429   1.772   1.564  1.7403 -0.6862 -4.3607
 4793TIP3    H235871   4.302   1.717   1.501 -0.4186 -0.2305 -0.6795
 4794TIP3   OH235872   6.550   0.883  14.525 -0.2493  0.4337 -0.0661
 4794TIP3    H135873   6.543   0.788  14.534  0.0339  0.5591  1.6843
 4794TIP3    H235874   6.497   0.904  14.448  1.2530 -1.3428 -1.6953
 4795TIP3   OH235875   6.117   5.348   0.217  0.0550  0.3969  0.0161
 4795TIP3    H135876   6.189   5.291   0.191  0.0604  1.2307 -2.0092
 4795TIP3    H235877   6.154   5.436   0.214 -1.0667  0.8533 -1.2414
 4796TIP3   OH235878   0.741   5.856   2.514 -0.0461  0.1679 -0.4747
 4796TIP3    H135879   0.780   5.799   2.448 -0.8029 -1.8910  0.7735
 4796TIP3    H235880   0.789   5.938   2.506 -0.4409  0.2236 -3.9302
 4797TIP3   OH235881   4.646   3.963  15.732  0.6020 -0.6756 -0.3776
 4797TIP3    H135882   4.687   4.042  15.767 -2.2996  0.5137  0.5902
 4797TIP3    H235883   4.574   3.945  15.792 -0.1017 -2.8710 -1.7745
 4798TIP3   OH235884   5.959   0.217  13.398 -0.5197 -0.2790  0.2598
 4798TIP3    H135885   5.894   0.159  13.439 -0.3625 -0.4464  0.2716
 4798TIP3    H235886   6.036   0.162  13.387 -1.0678 -0.7111 -1.7206
 4799TIP3   OH235887   6.512   5.165  15.924 -0.3882  0.3054  0.4722
 4799TIP3    H135888   6.554   5.096  15.976  0.9532  0.0053 -0.9544
 4799TIP3    H235889   6.563   5.169  15.843 -0.4067  2.9942  0.5041
 4800TIP3   OH235890   4.375   3.504   5.876 -0.1512 -0.2844 -0.2505
 4800TIP3    H135891   4.331   3.512   5.961 -0.1247  0.3805 -0.3006
 4800TIP3    H235892   4.340   3.575   5.823  0.8703  0.1728 -0.3409
 4801TIP3   OH235893   4.962   0.238   1.508  0.3687 -0.7466 -0.0023
 4801TIP3    H135894   4.979   0.329   1.532 -1.2206 -0.4378  0.0310
 4801TIP3    H235895   5.010   0.225   1.426  1.8524 -0.3568  0.7684
 4802TIP3   OH235896   0.358   3.865   4.605 -0.4962  0.4161  0.4721
 4802TIP3    H135897   0.304   3.944   4.599  1.2482  1.6391 -0.3600
 4802TIP3    H235898   0.320   3.805   4.541 -2.5240  0.0996  1.9086
 4803TIP3   OH235899   4.887   2.034  15.936 -0.5763  0.0178 -0.0650
 4803TIP3    H135900   4.839   1.969  15.886 -1.7025 -0.2665  1.2956
 4803TIP3    H235901   4.977   2.003  15.937 -0.8632 -0.8566 -0.4884
 4804TIP3   OH235902   5.147   3.094  16.843 -0.2300 -0.3967  0.5507
 4804TIP3    H135903   5.065   3.045  16.836 -0.3667 -0.0690 -0.3030
 4804TIP3    H235904   5.126   3.180  16.808  0.5097 -0.3563  0.1815
 4805TIP3   OH235905   0.767   3.143   3.347  0.3544  0.0102 -0.0055
 4805TIP3    H135906   0.676   3.124   3.326  0.4950  2.2328 -3.4736
 4805TIP3    H235907   0.770   3.238   3.358  2.0333 -0.1828  1.7566
 4806TIP3   OH235908   2.246   1.883  10.581  0.1034 -0.0807  0.0816
 4806TIP3    H135909   2.182   1.936  10.533  1.1447  1.2140  0.0844
 4806TIP3    H235910   2.194   1.812  10.619 -1.2058  0.5087 -0.5401
 4807TIP3   OH235911   5.890   4.185   1.920 -0.3612  0.0066 -0.5893
 4807TIP3    H135912   5.864   4.099   1.952  0.5028 -0.0719 -0.0697
 4807TIP3    H235913   5.837   4.198   1.841 -0.9232 -0.7408 -0.3517
 4808TIP3   OH235914   2.299   5.855  14.227 -0.1505 -0.2811  0.3544
 4808TIP3    H135915   2.297   5.782  14.288  0.8177 -1.1232 -0.5862
 4808TIP3    H235916   2.367   5.913  14.260 -0.3081 -0.2477  0.6183
 4809TIP3   OH235917   4.460   5.378  12.857 -0.2339  0.1036 -0.2030
 4809TIP3    H135918   4.385   5.400  12.801  0.5968  0.2037 -1.3143
 4809TIP3    H235919   4.456   5.283  12.866 -0.4853  0.1063 -0.2713
 4810TIP3   OH235920   3.796   6.166  14.728  0.1155 -0.1019 -0.0154
 4810TIP3    H135921   3.834   6.179  14.815 -0.9071  1.6601  0.2083
 4810TIP3    H235922   3.763   6.076  14.730  1.8760 -0.7799  0.6803
 4811TIP3   OH235923   6.326   6.402   1.058  0.1845  0.3989  0.7627
 4811TIP3    H135924   6.393   6.412   0.990 -0.7701 -0.0368 -0.2855
 4811TIP3    H235925   6.316   6.308   1.068 -1.4686  0.3976 -0.3850
 4812TIP3   OH235926   3.881   2.570  11.944  0.0533  0.3681 -0.4057
 4812TIP3    H135927   3.945   2.571  11.873  0.6810 -0.0083  0.1454
 4812TIP3    H235928   3.820   2.640  11.922  1.2972  1.4991 -0.3388
 4813TIP3   OH235929   0.589   4.082  12.140 -0.0041  0.0027 -0.0109
 4813TIP3    H135930   0.623   4.085  12.051 -1.0749  1.0471 -0.4204
 4813TIP3    H235931   0.596   3.990  12.166  0.1341 -0.3518 -1.2513
 4814TIP3   OH235932   4.842   5.976   3.647 -0.2915 -0.2638  0.9115
 4814TIP3    H135933   4.916   5.978   3.586  0.0442 -1.3923  1.2516
 4814TIP3    H235934   4.868   6.033   3.719  0.3315 -0.7872  1.1087
 4815TIP3   OH235935   5.990   3.581   1.842 -0.5265 -0.3265 -0.0366
 4815TIP3    H135936   5.934   3.651   1.810  0.1395  1.5818  2.6582
 4815TIP3    H235937   6.048   3.561   1.768 -2.0350  0.5100 -1.5120
 4816TIP3   OH235938   3.251   5.741   1.222  0.1415 -0.2699  0.1838
 4816TIP3    H135939   3.194   5.764   1.296  0.6023  1.1597  0.1345
 4816TIP3    H235940   3.238   5.812   1.159  0.4566 -0.9901 -0.6982
 4817TIP3   OH235941   2.424   5.093   1.821 -0.0305 -0.1718  0.4160
 4817TIP3    H135942   2.482   5.141   1.762  0.4285 -0.6799  0.4471
 4817TIP3    H235943   2.346   5.074   1.768  0.4917 -0.8658 -0.1215
 4818TIP3   OH235944   3.697   3.303  16.392 -0.6048 -0.4526  0.3831
 4818TIP3    H135945   3.606   3.287  16.418 -0.3513 -3.5780 -0.2676
 4818TIP3    H235946   3.746   3.305  16.474 -1.1090  0.3258  0.6777
 4819TIP3   OH235947   1.920   1.721  11.425  0.0627  0.4885 -0.5056
 4819TIP3    H135948   1.979   1.766  11.486  0.2277 -1.6482  1.0184
 4819TIP3    H235949   1.976   1.697  11.351  1.2248 -1.5512  0.9432
 4820TIP3   OH235950   4.207   1.185   5.555 -0.4373  0.0461  0.0847
 4820TIP3    H135951   4.281   1.246   5.552 -0.4120  0.1852  2.2870
 4820TIP3    H235952   4.152   1.212   5.482  1.3805  0.2835 -1.2887
 4821TIP3   OH235953   6.736   4.756  11.575 -0.2131 -0.4482  0.2642
 4821TIP3    H135954   6.672   4.795  11.635 -0.5304 -1.2538  0.4657
 4821TIP3    H235955   6.740   4.817  11.501 -0.4354  0.1361  0.7283
 4822TIP3   OH235956   5.606   5.806  14.541  0.7420 -0.0339  0.1112
 4822TIP3    H135957   5.669   5.856  14.592  0.7518  0.5109 -0.4246
 4822TIP3    H235958   5.657   5.766  14.471  0.5145  0.3185 -0.2605
 4823TIP3   OH235959   5.260   3.689  16.762 -0.6753  0.3152  0.0708
 4823TIP3    H135960   5.253   3.648  16.676 -1.3953 -1.0533  0.7550
 4823TIP3    H235961   5.171   3.686  16.798  0.0634 -1.6020  1.9369
 4824TIP3   OH235962   0.615   5.030   3.390  0.0319  0.5602  0.4912
 4824TIP3    H135963   0.649   5.106   3.437 -1.8276  2.4293 -0.9648
 4824TIP3    H235964   0.642   5.044   3.299 -0.0834 -0.7114  0.2433
 4825TIP3   OH235965   3.016   3.575  14.105 -0.3791  0.9941 -0.2004
 4825TIP3    H135966   3.079   3.509  14.136 -1.0528  0.7697  0.7508
 4825TIP3    H235967   3.067   3.656  14.100 -0.1143  0.9386  1.0847
 4826TIP3   OH235968   2.732   0.009  13.440 -0.2691 -0.0262  0.2703
 4826TIP3    H135969   2.685   0.091  13.428  0.6331  0.3263 -1.0297
 4826TIP3    H235970   2.813   0.020  13.390  1.1095 -0.6973  2.2347
 4827TIP3   OH235971   5.439   2.032  13.183  0.6264  0.0190 -0.2179
 4827TIP3    H135972   5.517   1.980  13.168  2.0612  1.4740  1.5962
 4827TIP3    H235973   5.457   2.116  13.140 -0.9563 -0.3444 -1.7259
 4828TIP3   OH235974   3.104   2.768   4.994 -0.0407 -0.2862  0.1517
 4828TIP3    H135975   3.135   2.690   4.949  1.4907  0.6810 -0.5483
 4828TIP3    H235976   3.040   2.807   4.935 -0.3263 -0.6533  0.2144
 4829TIP3   OH235977   0.468   5.606  15.686 -0.3103 -0.2217 -0.8981
 4829TIP3    H135978   0.450   5.696  15.711  0.0457 -0.6758  1.2156
 4829TIP3    H235979   0.539   5.578  15.744 -1.6590 -2.4112 -0.1638
 4830TIP3   OH235980   0.231   6.808  12.373  0.2239  0.3202 -0.0209
 4830TIP3    H135981   0.227   6.789  12.466  1.3432  1.9790  0.4196
 4830TIP3    H235982   0.192   6.732  12.330  0.8725 -1.0455  1.7288
 4831TIP3   OH235983   5.317   5.249  16.939  0.2855 -0.1495 -0.0068
 4831TIP3    H135984   5.380   5.290  16.880  0.1505 -0.6165 -0.4890
 4831TIP3    H235985   5.266   5.321  16.975  0.0647  0.1089 -0.8235
 4832TIP3   OH235986   6.418   4.090   5.698 -0.0234 -0.4205 -0.2346
 4832TIP3    H135987   6.385   4.004   5.724  0.8757 -0.5064  0.6708
 4832TIP3    H235988   6.511   4.076   5.680 -0.0445  0.2030 -0.8773
 4833TIP3   OH235989   2.036   5.912   5.918  0.1668 -0.3293  0.2736
 4833TIP3    H135990   2.106   5.859   5.881  0.7261 -0.4330  1.4578
 4833TIP3    H235991   1.964   5.903   5.855  0.4568 -1.9763  0.1385
 4834TIP3   OH235992   0.432   3.840  14.195 -0.2372 -0.6203  0.3885
 4834TIP3    H135993   0.396   3.790  14.121 -0.1938 -0.7199  0.4337
 4834TIP3    H235994   0.526   3.848  14.175 -0.2632 -0.4630  0.3281
 4835TIP3   OH235995   2.496   4.266   4.713 -0.2246  0.1584  0.5345
 4835TIP3    H135996   2.495   4.360   4.699 -0.8694  0.0427 -0.3146
 4835TIP3    H235997   2.539   4.254   4.797 -0.1542  1.2102  0.6563
 4836TIP3   OH235998   0.497   6.328  15.866 -0.4676  0.1396  0.6029
 4836TIP3    H135999   0.422   6.385  15.884  0.3623  0.8694  1.9809
 4836TIP3    H236000   0.511   6.335  15.772 -1.7405  0.4801  0.4218
 4837TIP3   OH236001   5.757   5.980   2.185  0.2586  0.2202  0.0543
 4837TIP3    H136002   5.723   6.017   2.267 -0.6965  0.7203 -0.5387
 4837TIP3    H236003   5.678   5.951   2.138  0.9264 -1.7202  0.0819
 4838TIP3   OH236004   4.142   3.687   6.288 -0.4691 -0.5012 -0.3393
 4838TIP3    H136005   4.083   3.697   6.213  0.7107  0.2922 -1.1969
 4838TIP3    H236006   4.225   3.724   6.258  0.0874 -0.3467  1.3000
 4839TIP3   OH236007   0.463   1.082   2.883 -0.6623  0.0758  0.2065
 4839TIP3    H136008   0.516   1.075   2.962  0.9332  1.1682 -0.7041
 4839TIP3    H236009   0.465   0.995   2.844  1.0269  0.2350 -0.1157
 4840TIP3   OH236010   0.803   0.913   0.389  0.2237  0.3817 -0.1204
 4840TIP3    H136011   0.763   0.939   0.472 -0.3940  0.2756 -0.3733
 4840TIP3    H236012   0.864   0.843   0.412  0.4009  0.6720  0.3001
 4841TIP3   OH236013   3.407   6.641   0.807  0.0890 -0.4040  0.2534
 4841TIP3    H136014   3.426   6.547   0.801  0.6276 -0.2676 -0.3085
 4841TIP3    H236015   3.457   6.680   0.735 -3.1721 -0.1358 -2.1287
 4842TIP3   OH236016   2.569   1.568   1.129 -0.3250 -0.2980 -0.4824
 4842TIP3    H136017   2.663   1.588   1.132  0.1038 -1.9450 -1.4935
 4842TIP3    H236018   2.526   1.649   1.155  1.3988  0.1862  1.0360
 4843TIP3   OH236019   3.482   5.482   2.195 -0.0469  0.0994  0.1331
 4843TIP3    H136020   3.398   5.472   2.152 -0.6125  1.4322  0.8773
 4843TIP3    H236021   3.478   5.567   2.238  1.0658 -0.4920  1.5191
 4844TIP3   OH236022   3.568   5.417   2.728 -0.0096  0.5327 -0.8407
 4844TIP3    H136023   3.544   5.381   2.814  0.0989 -1.6414 -1.6537
 4844TIP3    H236024   3.543   5.509   2.733 -3.4778 -0.3163  0.2670
 4845TIP3   OH236025   6.308   5.744   3.163  0.1089  0.0502  0.0655
 4845TIP3    H136026   6.287   5.702   3.246 -1.0430 -1.0165 -0.7347
 4845TIP3    H236027   6.393   5.786   3.178  1.3215 -2.5095  0.9372
 4846TIP3   OH236028   4.984   3.032   5.618 -0.1799  0.1543 -0.1800
 4846TIP3    H136029   4.904   3.008   5.664  0.2880 -0.2336  0.4476
 4846TIP3    H236030   5.038   2.953   5.620  1.0122  0.9431  1.1381
 4847TIP3   OH236031   6.798   1.821   1.206 -0.0491 -0.2455  0.0543
 4847TIP3    H136032   6.753   1.886   1.259  1.4203 -0.5017  1.7332
 4847TIP3    H236033   6.786   1.739   1.253 -0.2861 -0.8507 -1.0268
 4848TIP3   OH236034   2.877   3.783  16.601 -0.2462  0.4352  0.1032
 4848TIP3    H136035   2.941   3.714  16.619  0.5914  0.6998 -1.6490
 4848TIP3    H236036   2.793   3.745  16.626  0.4208 -0.4380  1.1230
 4849TIP3   OH236037   5.634   0.672  13.165 -0.4914  0.2883  0.1953
 4849TIP3    H136038   5.623   0.577  13.168 -0.3851  0.2677 -0.0406
 4849TIP3    H236039   5.728   0.684  13.153 -0.6082  0.4027 -0.7090
 4850TIP3   OH236040   5.234   6.618   6.098  0.0699  0.0091 -0.2407
 4850TIP3    H136041   5.218   6.711   6.116  0.9794 -0.0632  1.0553
 4850TIP3    H236042   5.147   6.578   6.105 -0.1123  0.5257  0.8267
 4851TIP3   OH236043   2.836   5.133  17.181  0.4865  0.5244 -0.1538
 4851TIP3    H136044   2.847   5.226  17.164 -0.4315  0.7001  0.1054
 4851TIP3    H236045   2.774   5.104  17.114  1.6643 -0.1724 -0.9687
 4852TIP3   OH236046   4.347   1.486   0.179 -0.6419  0.2160  0.3940
 4852TIP3    H136047   4.258   1.501   0.212 -0.7375  2.9366 -0.7921
 4852TIP3    H236048   4.353   1.542   0.102  1.8754 -0.5087 -0.0171
 4853TIP3   OH236049   4.021   3.379  13.068 -0.3815  0.9834  0.0962
 4853TIP3    H136050   4.075   3.380  12.989  1.6338  0.1205  1.3883
 4853TIP3    H236051   3.931   3.382  13.035  0.2563 -1.9941 -2.3888
 4854TIP3   OH236052   3.948   5.952   1.781 -0.1445  0.6832 -0.2621
 4854TIP3    H136053   4.043   5.953   1.768  0.0181  2.3090  0.8754
 4854TIP3    H236054   3.913   5.941   1.692  1.0580 -3.7566 -0.4306
 4855TIP3   OH236055   1.990   1.250  12.455 -0.2407 -0.1186  0.3720
 4855TIP3    H136056   1.926   1.321  12.448  0.1644  0.1905 -0.3064
 4855TIP3    H236057   1.979   1.200  12.375  2.0229  1.3767 -1.0091
 4856TIP3   OH236058   0.018   6.353   5.631 -0.3323 -0.3535  0.3216
 4856TIP3    H136059   0.104   6.339   5.670 -0.1399 -0.3678 -0.0984
 4856TIP3    H236060   0.030   6.430   5.574 -0.7991  0.1415  0.8772
 4857TIP3   OH236061   2.717   1.596   1.446 -0.0903  0.0413  0.6125
 4857TIP3    H136062   2.654   1.535   1.484 -0.9593  0.4593 -0.1306
 4857TIP3    H236063   2.743   1.555   1.363 -1.7160  1.2767 -0.5652
 4858TIP3   OH236064   6.788   5.476   3.847 -0.4485  0.7115  0.0148
 4858TIP3    H136065   6.695   5.472   3.867 -0.0977  2.4452  2.5616
 4858TIP3    H236066   6.799   5.559   3.801 -0.1575  0.6202 -0.0850
 4859TIP3   OH236067   5.905   5.696   4.077  0.1975  0.6279 -0.0134
 4859TIP3    H136068   5.952   5.732   4.002  1.7634 -0.2491  0.5075
 4859TIP3    H236069   5.908   5.765   4.143  0.6885  0.5982 -0.0057
 4860TIP3   OH236070   1.136   1.278   4.055  0.2104  0.1180 -0.1398
 4860TIP3    H136071   1.095   1.359   4.025 -0.4586 -0.9959 -2.5013
 4860TIP3    H236072   1.062   1.220   4.075  0.6778  0.0807  1.6432
 4861TIP3   OH236073   3.256   0.801  14.580  0.3323 -0.1132 -0.7746
 4861TIP3    H136074   3.288   0.873  14.634 -0.7912  0.1386 -0.3989
 4861TIP3    H236075   3.223   0.737  14.644  0.2036 -0.4088 -1.1367
 4862TIP3   OH236076   0.028   4.259   0.542 -0.0671 -0.1911  0.4732
 4862TIP3    H136077  -0.034   4.196   0.505  1.4008 -1.5623  0.2426
 4862TIP3    H236078  -0.027   4.327   0.580 -1.7121 -1.4148  0.3876
 4863TIP3   OH236079   6.460   1.616   5.202 -0.2919 -0.1689  0.2481
 4863TIP3    H136080   6.435   1.707   5.215 -1.5882 -0.4196 -0.3614
 4863TIP3    H236081   6.519   1.618   5.126 -0.9495  0.0768 -0.2623
 4864TIP3   OH236082   2.965   0.528   4.798 -0.2567 -0.0947  0.6606
 4864TIP3    H136083   2.931   0.550   4.884 -1.7129 -0.1089  0.1151
 4864TIP3    H236084   2.902   0.565   4.737  0.4153 -0.6359 -0.3869
 4865TIP3   OH236085   5.947   1.101   4.360 -0.6621  0.2870  0.3129
 4865TIP3    H136086   6.013   1.168   4.376 -1.0744  0.3967  1.7281
 4865TIP3    H236087   5.987   1.042   4.297  1.0060  0.0624  1.5151
 4866TIP3   OH236088   4.005   2.737  16.417 -0.4467  0.0177  0.2271
 4866TIP3    H136089   4.001   2.809  16.479 -1.4402  0.4109 -0.2620
 4866TIP3    H236090   3.933   2.679  16.442 -0.3373 -0.2425 -0.0458
 4867TIP3   OH236091   6.763   6.076  16.948  0.3617  0.3550  0.8788
 4867TIP3    H136092   6.800   6.028  16.874 -0.1053 -0.6628  1.2849
 4867TIP3    H236093   6.810   6.043  17.025  0.2923  0.8178  1.1261
 4868TIP3   OH236094   0.045   5.079   5.802 -0.1466  0.2860 -0.7938
 4868TIP3    H136095   0.085   4.996   5.827  0.3312  0.0307 -2.2831
 4868TIP3    H236096   0.014   5.117   5.884 -2.8271 -2.5733 -0.2784
 4869TIP3   OH236097   5.895   5.036  12.753  0.1824 -0.2546  0.2484
 4869TIP3    H136098   5.962   4.971  12.733 -0.2553 -0.9248  0.8844
 4869TIP3    H236099   5.863   5.065  12.668 -0.3470 -1.6620 -0.0640
 4870TIP3   OH236100   0.357   3.454  12.142 -0.1733  0.3951 -0.2565
 4870TIP3    H136101   0.303   3.485  12.215  0.9397  0.1264  0.7054
 4870TIP3    H236102   0.388   3.533  12.099  1.1087  0.6346  1.0372
 4871TIP3   OH236103   6.246   6.776  16.410 -0.2332  0.0013  0.6198
 4871TIP3    H136104   6.335   6.743  16.397 -0.2358 -0.0226  0.6607
 4871TIP3    H236105   6.225   6.819  16.327 -0.4183 -0.5444  0.3798
 4872TIP3   OH236106   5.959   5.937  12.908 -0.7426  0.0231  0.0891
 4872TIP3    H136107   5.873   5.904  12.883 -0.7034  0.0733 -0.1161
 4872TIP3    H236108   6.019   5.899  12.844 -0.8815  1.6407 -1.0581
 4873TIP3   OH236109   0.805   3.339   5.031  0.5899  0.5713 -0.2510
 4873TIP3    H136110   0.767   3.280   4.966  0.8497  0.8362 -0.6451
 4873TIP3    H236111   0.772   3.426   5.007 -2.1832  0.2907  2.0321
 4874TIP3   OH236112   0.662   6.813   0.944 -0.0914  0.0756  0.0486
 4874TIP3    H136113   0.660   6.782   1.034 -0.1847  3.2794  1.2595
 4874TIP3    H236114   0.725   6.885   0.944 -1.0839  1.0596 -2.1258
 4875TIP3   OH236115   5.775   4.429   4.914 -0.7540  0.3568  0.9020
 4875TIP3    H136116   5.786   4.511   4.866 -2.8535 -0.8807 -2.0878
 4875TIP3    H236117   5.829   4.366   4.866 -1.7482 -0.6278  1.0179
 4876TIP3   OH236118   1.625   1.675  10.204  0.1463  0.1526  0.2308
 4876TIP3    H136119   1.683   1.750  10.215  0.8192 -0.5760  2.0907
 4876TIP3    H236120   1.555   1.689  10.268  0.5445 -1.0064  0.9575
 4877TIP3   OH236121   2.898   3.853   1.127  0.3079  0.1738  0.8338
 4877TIP3    H136122   2.984   3.895   1.121  0.3385  0.0811  0.6407
 4877TIP3    H236123   2.917   3.760   1.140  0.2560 -0.2461 -1.6597
 4878TIP3   OH236124   5.307   0.021   0.703 -0.0986  0.1913 -0.1638
 4878TIP3    H136125   5.239  -0.043   0.723 -0.1128  0.1077 -0.4719
 4878TIP3    H236126   5.365   0.019   0.779  0.2232 -0.6144 -0.4196
 4879TIP3   OH236127   0.536   5.592  12.365  0.7158  0.1617  0.4709
 4879TIP3    H136128   0.502   5.572  12.277 -0.2826  0.9498  0.6605
 4879TIP3    H236129   0.630   5.606  12.352  0.8933 -1.4343 -0.1776
 4880TIP3   OH236130   0.954   1.377  15.802 -0.5354 -0.3765 -0.1875
 4880TIP3    H136131   0.895   1.334  15.864 -0.8654 -0.3371 -0.4722
 4880TIP3    H236132   1.024   1.414  15.857  0.8266 -2.9081 -0.0467
 4881TIP3   OH236133   3.121   4.339  14.686 -0.1993  0.0424 -0.4342
 4881TIP3    H136134   3.148   4.431  14.686  1.2724 -0.3577 -1.2112
 4881TIP3    H236135   3.163   4.301  14.763 -1.6593  0.2211  0.4873
 4882TIP3   OH236136   3.981   2.552   2.645 -0.2702  0.6596 -0.3579
 4882TIP3    H136137   3.975   2.537   2.550 -1.9502  0.0783 -0.2009
 4882TIP3    H236138   3.898   2.519   2.679  0.3114  0.8664  1.3299
 4883TIP3   OH236139   1.844   3.712   1.730 -0.1422 -0.0889  0.3900
 4883TIP3    H136140   1.802   3.669   1.805 -0.4944  3.3118  2.3512
 4883TIP3    H236141   1.773   3.731   1.669  0.1068 -2.6248 -0.8288
 4884TIP3   OH236142   0.852   4.860  11.298  0.1698 -0.6048  0.1599
 4884TIP3    H136143   0.807   4.881  11.380  0.8930 -0.4923  0.5362
 4884TIP3    H236144   0.897   4.778  11.315  0.1142 -0.7137 -0.2106
 4885TIP3   OH236145   1.406   5.217   0.829 -0.3610  0.5461  0.2081
 4885TIP3    H136146   1.318   5.253   0.820  0.6560  3.3993  0.5548
 4885TIP3    H236147   1.455   5.255   0.756  0.6072 -1.0276 -0.0062
 4886TIP3   OH236148   4.564   4.152   3.463  0.0046 -0.0566 -0.4442
 4886TIP3    H136149   4.571   4.231   3.517  2.2706 -0.3789 -0.1969
 4886TIP3    H236150   4.556   4.081   3.526 -0.1144 -0.2029 -0.6228
 4887TIP3   OH236151   2.780   5.838  14.633  0.0239  0.0775  0.0559
 4887TIP3    H136152   2.696   5.795  14.615  0.4103 -0.2161 -1.1486
 4887TIP3    H236153   2.761   5.932  14.624 -0.3108  0.0518  0.4463
 4888TIP3   OH236154   6.014   3.805   5.690  0.0076 -0.7359  0.0348
 4888TIP3    H136155   6.052   3.740   5.631 -0.3593  0.2880 -1.4008
 4888TIP3    H236156   5.931   3.830   5.648 -0.3663 -0.1167  1.0993
 4889TIP3   OH236157   4.913   4.411  15.134  0.1798 -0.4168 -0.1627
 4889TIP3    H136158   4.904   4.418  15.039  1.5134  1.0455 -0.2365
 4889TIP3    H236159   4.994   4.361  15.148 -0.8971 -2.1043  0.2544
 4890TIP3   OH236160   1.586   0.047  15.853 -0.4888 -0.1547 -0.3673
 4890TIP3    H136161   1.516  -0.017  15.840 -0.3514 -0.5549  0.7626
 4890TIP3    H236162   1.549   0.129  15.821 -1.9966 -0.0890  1.3584
 4891TIP3   OH236163   3.942   5.138  15.884 -0.1023  0.5275  0.5340
 4891TIP3    H136164   3.889   5.105  15.956 -1.1402  1.8318  0.3990
 4891TIP3    H236165   3.921   5.081  15.810  0.4147 -0.3615  1.0639
 4892TIP3   OH236166   0.497   2.003  16.529 -0.2288  0.2487  0.4512
 4892TIP3    H136167   0.404   2.025  16.537 -0.3930 -0.9000  2.2864
 4892TIP3    H236168   0.500   1.938  16.459 -1.2053 -1.6252  2.0802
 4893TIP3   OH236169   3.013   2.997   2.979  0.0374 -0.0817 -0.2407
 4893TIP3    H136170   2.934   2.993   2.924  0.1277 -0.8443 -0.3301
 4893TIP3    H236171   3.036   3.090   2.981 -1.3958  0.2921  0.5590
 4894TIP3   OH236172   0.397   0.896   0.480  0.4724  0.3971 -0.3048
 4894TIP3    H136173   0.344   0.817   0.487  0.7271  0.2245 -0.2878
 4894TIP3    H236174   0.411   0.924   0.570 -1.5269  1.7715 -0.3618
 4895TIP3   OH236175   1.608   0.023   1.564 -0.0179 -0.3266 -0.1850
 4895TIP3    H136176   1.696   0.059   1.578  0.5324 -0.1818 -3.3474
 4895TIP3    H236177   1.622  -0.056   1.512 -1.7313 -0.7413 -0.0843
 4896TIP3   OH236178   3.147   1.671  12.637  0.4426  0.1305  0.2899
 4896TIP3    H136179   3.058   1.640  12.621  0.3844 -0.9888  2.4515
 4896TIP3    H236180   3.158   1.743  12.576 -1.5435 -0.4153 -0.8137
 4897TIP3   OH236181   6.364   4.083   5.994  0.7675 -0.1402 -0.4303
 4897TIP3    H136182   6.341   4.076   6.087  1.1610  1.0676 -0.2225
 4897TIP3    H236183   6.444   4.031   5.985  1.8642  1.3095  0.3704
 4898TIP3   OH236184   5.931   4.473   5.591 -0.1507  0.2096 -0.6938
 4898TIP3    H136185   5.847   4.467   5.546 -0.6213 -0.6490  0.2604
 4898TIP3    H236186   5.909   4.486   5.683  0.7369 -0.4101 -0.3761
 4899TIP3   OH236187   4.698   3.516  12.062 -0.1254  0.1236  0.3171
 4899TIP3    H136188   4.628   3.451  12.067  0.6943 -1.0794 -2.1027
 4899TIP3    H236189   4.652   3.599  12.052 -1.2103 -0.4015  0.7500
 4900TIP3   OH236190   3.416   1.495   4.963  0.4512  0.5074 -0.5119
 4900TIP3    H136191   3.487   1.439   4.993  0.9110  0.5166 -1.5472
 4900TIP3    H236192   3.416   1.569   5.024 -0.1639 -0.5845  0.8613
 4901TIP3   OH236193   4.691   1.476  15.494 -0.7140 -0.1498 -0.0659
 4901TIP3    H136194   4.682   1.440  15.583 -2.2805 -1.4180 -0.6871
 4901TIP3    H236195   4.605   1.514  15.476 -0.1637  0.7991 -0.7787
 4902TIP3   OH236196   2.718   3.704  12.507  0.1966 -0.2349 -0.0821
 4902TIP3    H136197   2.625   3.693  12.487  0.1995 -0.3456 -0.0366
 4902TIP3    H236198   2.755   3.739  12.426  0.1256 -0.2448 -0.1195
 4903TIP3   OH236199   1.653   6.476   0.932  0.1022  0.1900 -0.5012
 4903TIP3    H136200   1.603   6.524   0.867 -0.2994 -1.0577 -1.1615
 4903TIP3    H236201   1.659   6.387   0.896  3.5496  0.4484 -0.9160
 4904TIP3   OH236202   4.104   3.488   6.517  0.1038  0.2269 -0.1849
 4904TIP3    H136203   4.049   3.521   6.588  1.3533  0.9767  0.4541
 4904TIP3    H236204   4.081   3.542   6.441  0.0743  0.6448  0.1214
 4905TIP3   OH236205   1.708   4.293   4.373  0.5056 -0.5966  0.0533
 4905TIP3    H136206   1.708   4.385   4.346 -3.2505  0.2546  2.1747
 4905TIP3    H236207   1.632   4.255   4.328  0.9650 -2.2009  0.5601
 4906TIP3   OH236208   4.119   2.856   1.997  0.0858 -0.1394  0.0161
 4906TIP3    H136209   4.089   2.804   2.072  1.9003 -1.8010 -0.3140
 4906TIP3    H236210   4.059   2.833   1.927 -0.5191 -0.0019  0.4833
 4907TIP3   OH236211   4.130   1.807  14.921 -0.6608  0.3619  0.2961
 4907TIP3    H136212   4.130   1.750  14.844  1.3856  0.2202  0.3386
 4907TIP3    H236213   4.070   1.764  14.982 -0.3769 -0.9136 -0.2812
 4908TIP3   OH236214   0.589   0.269  11.147 -0.4984 -0.1549  0.3366
 4908TIP3    H136215   0.503   0.309  11.130 -0.2301  0.2625 -0.0629
 4908TIP3    H236216   0.589   0.189  11.096 -1.1152 -0.7839  1.2870
 4909TIP3   OH236217   6.383   1.038  15.544 -0.3539  0.9052  0.3460
 4909TIP3    H136218   6.360   0.981  15.470  3.1355  1.1397 -1.1162
 4909TIP3    H236219   6.420   0.979  15.609 -0.0071  1.0907  0.3210
 4910TIP3   OH236220   0.039   2.992   5.959  0.1874  0.5180 -0.6543
 4910TIP3    H136221   0.016   3.025   6.046  0.6821  0.4883 -0.5097
 4910TIP3    H236222  -0.045   2.972   5.918 -0.0587  0.7460 -0.2664
 4911TIP3   OH236223   4.417   5.057   1.688 -0.3752  0.1244  0.2187
 4911TIP3    H136224   4.494   5.003   1.668 -0.7206 -0.1281 -0.4333
 4911TIP3    H236225   4.400   5.039   1.781  0.0325 -0.2286  0.2320
 4912TIP3   OH236226   1.957   6.355   4.260  0.2044  0.3995 -0.0867
 4912TIP3    H136227   2.050   6.373   4.249  0.5563  0.1325  2.0356
 4912TIP3    H236228   1.953   6.291   4.331 -1.6337  0.9133  0.3299
 4913TIP3   OH236229   3.684   0.044   4.397  0.1012 -0.1138  0.3492
 4913TIP3    H136230   3.744   0.119   4.394 -2.8557  2.4427 -1.1364
 4913TIP3    H236231   3.697  -0.001   4.313 -1.4384  1.7855 -1.0086
 4914TIP3   OH236232   2.229   1.578  16.457 -0.3433  0.2344  0.4304
 4914TIP3    H136233   2.179   1.586  16.375  0.7187 -0.1531 -0.2810
 4914TIP3    H236234   2.252   1.485  16.461 -1.2603  0.0316  1.7279
 4915TIP3   OH236235   4.501   1.808  10.978 -0.3622 -0.9789  0.1520
 4915TIP3    H136236   4.452   1.875  11.026 -0.0720 -0.0205 -0.8720
 4915TIP3    H236237   4.436   1.742  10.955 -0.7397 -0.8145  0.7300
 4916TIP3   OH236238   3.869   1.199  16.226 -0.0353 -0.7218  0.3676
 4916TIP3    H136239   3.876   1.292  16.207  1.0961 -1.2973 -2.4235
 4916TIP3    H236240   3.830   1.196  16.314 -0.9074  2.3245  0.2060
 4917TIP3   OH236241   6.726   1.647  13.486 -0.7584  0.3806 -0.6881
 4917TIP3    H136242   6.820   1.662  13.488 -0.7605  0.5463  1.9667
 4917TIP3    H236243   6.710   1.605  13.402  1.8870 -0.9622 -0.6266
 4918TIP3   OH236244   3.007   4.278  11.945 -0.4326 -0.2457  0.0518
 4918TIP3    H136245   2.955   4.356  11.924 -1.4018 -0.7270  0.5600
 4918TIP3    H236246   2.979   4.212  11.882  0.2822 -0.2299 -0.2887
 4919TIP3   OH236247   5.592   5.910  13.610 -0.4714  0.1786  0.8139
 4919TIP3    H136248   5.515   5.853  13.605 -0.1825 -0.2764  1.3114
 4919TIP3    H236249   5.659   5.863  13.559 -0.9745  1.3728 -1.0351
 4920TIP3   OH236250   4.947   5.227  12.749  0.0301  0.9788  0.4267
 4920TIP3    H136251   5.006   5.173  12.698 -2.2003 -1.4743  0.2383
 4920TIP3    H236252   4.908   5.287  12.685 -2.5333 -1.8800 -0.9321
 4921TIP3   OH236253   2.380   5.690  16.807 -0.3028  0.3752  0.2477
 4921TIP3    H136254   2.297   5.720  16.771 -0.0319  0.2793 -0.4609
 4921TIP3    H236255   2.430   5.770  16.823 -0.9821  0.5269  1.8460
 4922TIP3   OH236256   3.199   4.966  13.678 -0.4578 -0.7400  0.4350
 4922TIP3    H136257   3.147   4.956  13.758 -0.6385  0.8916  0.5558
 4922TIP3    H236258   3.162   4.902  13.617 -0.8786 -1.4074  1.3798
 4923TIP3   OH236259   0.627   3.307  11.751  0.1019  0.3596 -0.1981
 4923TIP3    H136260   0.684   3.234  11.729  0.7584  1.0539 -0.8817
 4923TIP3    H236261   0.678   3.359  11.813  0.4478  1.2514 -1.1971
 4924TIP3   OH236262   0.897   2.476   4.300  0.2867 -0.2817 -0.3015
 4924TIP3    H136263   0.891   2.478   4.396  1.2033 -2.0798 -0.1626
 4924TIP3    H236264   0.950   2.552   4.278 -1.8370  1.4861  0.3865
 4925TIP3   OH236265   5.989   4.904  16.962 -0.0186 -0.3675 -0.1385
 4925TIP3    H136266   5.999   4.998  16.952  0.3586 -0.2237  1.4412
 4925TIP3    H236267   6.039   4.867  16.889  1.8195  0.6195  0.5593
 4926TIP3   OH236268   4.159   2.653  13.044 -0.5109 -0.2628 -0.9137
 4926TIP3    H136269   4.206   2.688  13.120  1.1060 -1.8734 -1.1010
 4926TIP3    H236270   4.067   2.670  13.063 -0.3083 -1.8039  2.1271
 4927TIP3   OH236271   1.617   3.307  14.443 -0.6150  0.3807  0.4259
 4927TIP3    H136272   1.707   3.305  14.475 -0.5309  2.5436  0.4920
 4927TIP3    H236273   1.587   3.217  14.450  1.2085 -0.2092  1.3515
 4928TIP3   OH236274   0.655   5.590  16.505 -0.2034  0.4344 -0.1862
 4928TIP3    H136275   0.654   5.540  16.423  1.2671 -0.5427  0.3635
 4928TIP3    H236276   0.570   5.571  16.545 -0.8072  0.6685 -1.3026
 4929TIP3   OH236277   4.143   5.630  16.047  0.1236  0.1061 -0.5367
 4929TIP3    H136278   4.234   5.617  16.073  0.5088  1.0966 -1.3244
 4929TIP3    H236279   4.118   5.713  16.088  0.0674  0.5988 -1.5385
 4930TIP3   OH236280   4.848   1.559   3.887  0.2399 -0.0485 -0.3045
 4930TIP3    H136281   4.815   1.471   3.869  2.2438 -1.1856  1.2185
 4930TIP3    H236282   4.922   1.570   3.826  0.8572  0.0095  0.4439
 4931TIP3   OH236283   1.692   4.955  11.093 -0.1879  0.6142  0.1274
 4931TIP3    H136284   1.644   5.028  11.056 -1.2635 -0.1054  0.0639
 4931TIP3    H236285   1.632   4.880  11.085  0.9492 -0.3194 -0.0081
 4932TIP3   OH236286   1.973   5.912   3.849  0.0639  0.5507  0.1938
 4932TIP3    H136287   2.001   6.003   3.844 -0.4871  0.7180  0.0547
 4932TIP3    H236288   1.890   5.915   3.896 -0.8722  0.3379 -1.3802
 4933TIP3   OH236289   0.638   1.512  10.460 -0.2813 -0.1341 -0.1121
 4933TIP3    H136290   0.657   1.434  10.511 -1.6304 -0.6181 -0.3145
 4933TIP3    H236291   0.684   1.498  10.377  1.9473  0.6742  0.9026
 4934TIP3   OH236292   6.330   1.403  13.562 -0.4094 -0.5044  0.2759
 4934TIP3    H136293   6.241   1.382  13.591 -0.0785 -0.9388  0.9959
 4934TIP3    H236294   6.374   1.435  13.640 -0.2588  0.8662 -0.3271
 4935TIP3   OH236295   2.391   4.045   6.209  0.1818 -0.3279 -0.2980
 4935TIP3    H136296   2.315   4.084   6.253 -0.3652 -0.7325 -0.8610
 4935TIP3    H236297   2.397   3.957   6.246  2.4957  0.7638  2.3046
 4936TIP3   OH236298   5.691   2.413  14.371 -0.0350 -0.1973  0.3097
 4936TIP3    H136299   5.714   2.325  14.401 -0.1782 -0.3914 -0.1351
 4936TIP3    H236300   5.775   2.458  14.361  0.0656 -0.4412  0.0648
 4937TIP3   OH236301   0.645   5.853  14.770  0.1467  0.2636 -0.5457
 4937TIP3    H136302   0.681   5.938  14.745 -1.1536  1.3515  1.0520
 4937TIP3    H236303   0.698   5.825  14.844 -0.9071  0.8882  0.4858
 4938TIP3   OH236304   1.328   1.433  12.945  0.3704 -0.3777  0.3952
 4938TIP3    H136305   1.309   1.475  13.029 -0.1629 -0.0930  0.1334
 4938TIP3    H236306   1.374   1.352  12.968 -0.6120 -0.7719  0.9996
 4939TIP3   OH236307   4.652   6.634   1.406  0.1778 -0.4117 -0.0873
 4939TIP3    H136308   4.690   6.670   1.486 -0.3415 -1.1393  0.5095
 4939TIP3    H236309   4.727   6.610   1.352  0.5355  0.7490 -0.1460
 4940TIP3   OH236310   4.534   5.122   0.995  0.1092 -0.0653  0.5705
 4940TIP3    H136311   4.494   5.077   0.921 -0.3833 -1.6537  1.7423
 4940TIP3    H236312   4.486   5.205   1.001 -2.2586 -1.3817  1.1627
 4941TIP3   OH236313   2.660   5.535   0.805  0.6350  0.3810  0.1315
 4941TIP3    H136314   2.617   5.452   0.788  1.4895 -0.2231  0.8534
 4941TIP3    H236315   2.685   5.567   0.718 -1.9000  1.1460 -0.3997
 4942TIP3   OH236316   1.741   4.997   2.389  0.1834 -0.1219  0.6152
 4942TIP3    H136317   1.678   5.064   2.417 -0.4102 -0.6304  0.5098
 4942TIP3    H236318   1.710   4.969   2.304  1.4342  0.7207 -0.1622
 4943TIP3   OH236319   3.564   1.488   0.896  0.1780  0.3661 -0.0623
 4943TIP3    H136320   3.576   1.448   0.810  1.3827  0.4812  0.0413
 4943TIP3    H236321   3.502   1.559   0.881 -1.2025 -0.8482 -0.4446
 4944TIP3   OH236322   3.360   1.272  12.408 -0.1982 -0.2047  0.2078
 4944TIP3    H136323   3.359   1.321  12.326 -2.6131 -1.2972 -0.4877
 4944TIP3    H236324   3.397   1.334  12.472  2.8286  0.2887 -1.8066
 4945TIP3   OH236325   6.027   3.585   3.440 -0.2267  0.3503  0.8083
 4945TIP3    H136326   5.969   3.652   3.404 -0.1071 -0.1043 -0.2810
 4945TIP3    H236327   5.979   3.550   3.515 -0.4489  1.3881  1.1674
 4946TIP3   OH236328   5.100   3.212  14.340  0.0823 -0.1785 -0.2439
 4946TIP3    H136329   5.148   3.132  14.320 -0.1040 -0.5296  0.6360
 4946TIP3    H236330   5.042   3.226  14.265  1.5459  0.2636 -1.3331
 4947TIP3   OH236331   2.016   0.998   0.467  0.3383 -0.0094  0.7123
 4947TIP3    H136332   2.009   1.023   0.559  0.9669 -1.1483  1.0875
 4947TIP3    H236333   2.070   1.066   0.428  2.1298 -0.7644  1.7442
 4948TIP3   OH236334   4.887   0.512  13.129  0.1879  0.6719 -0.0860
 4948TIP3    H136335   4.904   0.483  13.039  0.7474 -1.1910  0.5671
 4948TIP3    H236336   4.792   0.507  13.139  0.1995 -0.1266 -0.2818
 4949TIP3   OH236337   5.588   3.883  13.295 -0.1947  0.0946 -0.0367
 4949TIP3    H136338   5.626   3.870  13.208 -2.6974  1.5377 -1.4542
 4949TIP3    H236339   5.593   3.978  13.309 -1.5665  0.0993  0.5359
 4950TIP3   OH236340   1.986   6.397  13.732 -0.8224  1.0853  0.5357
 4950TIP3    H136341   1.970   6.417  13.825 -3.5545 -0.0012  0.4142
 4950TIP3    H236342   2.054   6.330  13.733  0.5150  2.3938  1.5960
 4951TIP3   OH236343   2.867   5.195  11.421  0.0365 -0.0975  0.0622
 4951TIP3    H136344   2.810   5.247  11.477 -0.2441  0.4844 -0.7305
 4951TIP3    H236345   2.945   5.250  11.407 -0.6050  0.4951 -1.4291
 4952TIP3   OH236346   0.649   5.684   4.733 -0.6141 -0.3417  0.4449
 4952TIP3    H136347   0.684   5.681   4.822  0.6879  2.1487  0.0969
 4952TIP3    H236348   0.676   5.602   4.694  1.5955 -0.1303  1.3935
 4953TIP3   OH236349   6.574   4.561   5.408  0.3499  0.0937 -0.1506
 4953TIP3    H136350   6.570   4.550   5.313  0.8751 -0.8222 -0.0728
 4953TIP3    H236351   6.521   4.639   5.424  0.0846  0.1482 -1.1713
 4954TIP3   OH236352   3.523   4.015  11.148 -0.4162  0.0085  0.8224
 4954TIP3    H136353   3.481   4.051  11.226  0.3612 -1.2205  1.8535
 4954TIP3    H236354   3.516   4.084  11.082 -1.3499  0.9631  1.8858
 4955TIP3   OH236355   0.897   5.468  10.463 -0.6887 -0.0627 -0.4973
 4955TIP3    H136356   0.915   5.393  10.407  1.8365 -1.0135  1.3653
 4955TIP3    H236357   0.941   5.541  10.419 -0.0970 -0.4585 -0.5809
 4956TIP3   OH236358   2.643   6.451   2.614  0.5538  0.0059  0.3044
 4956TIP3    H136359   2.708   6.393   2.656 -1.3825 -1.8123  0.9623
 4956TIP3    H236360   2.576   6.391   2.582 -0.8709  1.8386 -0.2602
 4957TIP3   OH236361   1.664   6.200  12.553  0.3286 -0.4022 -0.2533
 4957TIP3    H136362   1.696   6.177  12.465  1.9636 -1.3028  0.5192
 4957TIP3    H236363   1.596   6.136  12.571  1.3251 -1.4605 -0.1331
 4958TIP3   OH236364   6.111   2.953  11.574  0.2451 -0.3706 -0.0748
 4958TIP3    H136365   6.089   3.034  11.528 -1.8151  0.0029  1.4262
 4958TIP3    H236366   6.183   2.977  11.632 -0.8458  0.6746  0.9262
 4959TIP3   OH236367   4.532   0.890   0.566 -0.7218  0.0509 -0.1759
 4959TIP3    H136368   4.473   0.955   0.605  0.2020  0.6517  0.2540
 4959TIP3    H236369   4.525   0.906   0.472 -0.0744  1.1823 -0.0517
 4960TIP3   OH236370   4.705   5.975   5.336 -0.2964  0.1424 -0.3276
 4960TIP3    H136371   4.646   6.049   5.344  1.1057  1.3009 -0.1383
 4960TIP3    H236372   4.666   5.906   5.389 -0.5299  1.5119  1.3590
 4961TIP3   OH236373   5.967   3.799  16.685  0.3230  0.0603 -0.9450
 4961TIP3    H136374   5.884   3.843  16.702  0.8979  0.7199  0.2839
 4961TIP3    H236375   5.963   3.775  16.592 -0.7731  1.0526 -1.1779
 4962TIP3   OH236376   5.448   1.647   4.890  0.2888 -0.1690  0.5358
 4962TIP3    H136377   5.470   1.738   4.909 -0.6443  0.3914 -0.8567
 4962TIP3    H236378   5.421   1.648   4.798  3.1018 -2.3880 -0.4463
 4963TIP3   OH236379   5.929   6.570   1.452 -0.0220  0.5534 -0.4105
 4963TIP3    H136380   5.944   6.563   1.546  0.1523 -1.0500 -0.5429
 4963TIP3    H236381   5.971   6.653   1.428 -0.7410  1.3951  1.0333
 4964TIP3   OH236382   2.033   3.180  15.671  0.0363  0.3224 -0.7381
 4964TIP3    H136383   1.988   3.243  15.726 -0.3442  0.7502 -1.5332
 4964TIP3    H236384   2.124   3.181  15.703 -0.5039 -0.6846  0.9940
 4965TIP3   OH236385   2.641   3.944  15.709  0.6372 -0.3265 -0.0915
 4965TIP3    H136386   2.600   4.029  15.729 -0.1321 -0.2575 -1.7724
 4965TIP3    H236387   2.698   3.927  15.784  2.3477  2.6249 -0.5614
 4966TIP3   OH236388   1.120   4.860   6.627 -0.2716 -0.1499  0.4544
 4966TIP3    H136389   1.069   4.927   6.580  0.0126  0.1785  0.6053
 4966TIP3    H236390   1.187   4.910   6.673  1.6849 -0.7178 -1.5897
 4967TIP3   OH236391   2.916   5.054  16.161 -0.1802  0.5276  0.1091
 4967TIP3    H136392   3.000   5.020  16.192  2.4133  1.2922 -4.9811
 4967TIP3    H236393   2.919   5.148  16.183  1.8728  1.1822 -2.4228
 4968TIP3   OH236394   6.647   5.698   1.290  0.2313  0.0557 -0.3834
 4968TIP3    H136395   6.725   5.751   1.275  0.3056  0.2856  0.6823
 4968TIP3    H236396   6.611   5.682   1.203  1.9503 -0.8288 -0.9807
 4969TIP3   OH236397   2.417   2.829  12.303 -0.0869  0.2662  0.1608
 4969TIP3    H136398   2.337   2.868  12.338  0.6877  0.0559  2.3553
 4969TIP3    H236399   2.412   2.737  12.330  1.6424  0.6147  1.9007
 4970TIP3   OH236400   1.255   5.661   2.382  0.9810 -0.2823 -0.1122
 4970TIP3    H136401   1.280   5.652   2.290  0.3521  1.1721 -0.4531
 4970TIP3    H236402   1.314   5.728   2.417 -0.7290  1.4283 -0.3041
 4971TIP3   OH236403   2.811   6.520   2.387  0.6938 -0.6215  0.1168
 4971TIP3    H136404   2.754   6.452   2.354  2.5441 -2.1179 -0.1660
 4971TIP3    H236405   2.791   6.526   2.481  0.6236 -1.6926  0.1746
 4972TIP3   OH236406   5.353   0.212  15.494 -0.1015  0.4034 -0.8495
 4972TIP3    H136407   5.289   0.282  15.481 -1.2394 -0.1098  1.4642
 4972TIP3    H236408   5.319   0.139  15.442  0.1702  0.9994 -1.8962
 4973TIP3   OH236409   2.320   5.466   5.238  0.5595 -0.2090 -0.4841
 4973TIP3    H136410   2.298   5.520   5.163  1.3083 -0.3510 -0.8189
 4973TIP3    H236411   2.260   5.494   5.307  0.6400  0.7330 -0.7891
 4974TIP3   OH236412   4.909   6.008  11.629 -0.1538 -0.5483  0.6306
 4974TIP3    H136413   4.943   6.005  11.540  1.0267  0.6048  0.9986
 4974TIP3    H236414   4.852   5.932  11.636  0.0892 -0.9130 -0.9549
 4975TIP3   OH236415   4.366   2.785   3.049 -0.2844 -0.4432  0.5436
 4975TIP3    H136416   4.336   2.697   3.072 -0.1587 -0.0323  2.4408
 4975TIP3    H236417   4.316   2.843   3.106  1.2261  0.5442  0.9101
 4976TIP3   OH236418   1.307   4.359  16.468  0.1432 -0.0327 -0.3382
 4976TIP3    H136419   1.372   4.294  16.494 -0.9294 -0.8278  0.4052
 4976TIP3    H236420   1.351   4.443  16.482  1.0441 -0.5486  0.0380
 4977TIP3   OH236421   2.830   6.152   0.640  0.0405 -0.4555 -0.2234
 4977TIP3    H136422   2.921   6.158   0.668  0.3309 -0.0655 -1.2317
 4977TIP3    H236423   2.825   6.207   0.562 -0.9066 -0.9884 -0.5513
 4978TIP3   OH236424   4.479   1.934  12.416 -0.0697 -0.0813  0.3681
 4978TIP3    H136425   4.445   1.942  12.327 -0.5874 -1.4784  0.4215
 4978TIP3    H236426   4.559   1.882  12.406  0.8065  1.1580  0.5456
 4979TIP3   OH236427   1.520   1.736  12.887 -0.6494 -0.4427  0.6410
 4979TIP3    H136428   1.527   1.641  12.875  1.1927 -0.6710  2.8518
 4979TIP3    H236429   1.433   1.758  12.853 -1.0261 -2.8601 -0.1743
 4980TIP3   OH236430   1.415   1.425   0.380 -0.2970  0.6210 -0.5202
 4980TIP3    H136431   1.336   1.410   0.329 -0.3923  2.1713 -0.8831
 4980TIP3    H236432   1.444   1.337   0.406 -1.4703 -0.0465 -1.3647
 4981TIP3   OH236433   0.320   4.422  12.845  1.1494  0.1001 -0.2357
 4981TIP3    H136434   0.347   4.502  12.801 -0.7748  1.3224  0.6491
 4981TIP3    H236435   0.308   4.448  12.937  1.8501 -1.5701  0.3787
 4982TIP3   OH236436   1.629   3.357   4.629  0.6029 -0.0159 -0.0898
 4982TIP3    H136437   1.567   3.287   4.610 -0.4250  1.1179 -0.9925
 4982TIP3    H236438   1.715   3.319   4.607  0.0301 -0.8633 -0.9454
 4983TIP3   OH236439   0.822   3.885   2.307 -0.0247 -0.5396 -0.4351
 4983TIP3    H136440   0.871   3.807   2.282  0.4936 -1.0507  1.9383
 4983TIP3    H236441   0.873   3.958   2.270  2.4204 -1.0705  1.5700
 4984TIP3   OH236442   5.147   2.672   3.307 -0.2711  0.5874  0.0180
 4984TIP3    H136443   5.100   2.727   3.243 -1.3854  0.1467  0.4341
 4984TIP3    H236444   5.107   2.695   3.391 -0.7158 -0.8080  0.2037
 4985TIP3   OH236445   1.610   5.568   3.273 -0.0608 -0.0910 -0.2158
 4985TIP3    H136446   1.591   5.644   3.218  1.4170  0.5651  0.1458
 4985TIP3    H236447   1.691   5.532   3.237 -0.4069 -1.1299  0.0114
 4986TIP3   OH236448   1.604   4.047   5.977  0.0990 -0.3097 -0.0558
 4986TIP3    H136449   1.682   4.092   5.946  0.4883 -0.3965  0.7694
 4986TIP3    H236450   1.637   3.973   6.027 -0.5224 -0.7729 -0.3118
 4987TIP3   OH236451   4.443   6.413   3.012  0.0577  0.3005  0.1242
 4987TIP3    H136452   4.509   6.375   2.954 -2.0162 -0.9873 -1.5322
 4987TIP3    H236453   4.395   6.475   2.956  0.5030  2.0451  1.5842
 4988TIP3   OH236454   2.342   4.908   2.342  0.3196  0.1419 -0.0150
 4988TIP3    H136455   2.317   4.940   2.256 -0.2135 -1.9096 -0.6752
 4988TIP3    H236456   2.438   4.911   2.342  0.5221 -2.6692 -1.9355
 4989TIP3   OH236457   1.871   6.061   2.604 -0.6626 -0.2134  0.6278
 4989TIP3    H136458   1.890   6.034   2.515 -1.3236  0.2877  0.3224
 4989TIP3    H236459   1.868   6.157   2.600 -0.2093 -0.1644  1.2919
 4990TIP3   OH236460   3.999   0.972   2.468  0.5809  0.4082  0.0584
 4990TIP3    H136461   4.033   1.031   2.536  1.3892  0.3339 -0.2797
 4990TIP3    H236462   3.904   0.974   2.481  0.7302  0.2466  1.3146
 4991TIP3   OH236463   3.894   3.618  13.354 -0.7167 -0.4904 -0.0904
 4991TIP3    H136464   3.832   3.683  13.388 -1.3656 -0.8060 -0.6329
 4991TIP3    H236465   3.862   3.598  13.266  1.0849  0.5106 -1.0180
 4992TIP3   OH236466   5.370   1.653   6.300 -0.3415  0.3363  0.5206
 4992TIP3    H136467   5.429   1.688   6.233 -1.0790  1.1690  0.2916
 4992TIP3    H236468   5.375   1.558   6.288  3.5066  0.0756  2.6740
 4993TIP3   OH236469   5.788   6.432   1.813  0.0562 -0.1092 -0.5822
 4993TIP3    H136470   5.697   6.443   1.788 -0.1487 -1.5503 -0.5575
 4993TIP3    H236471   5.809   6.510   1.864 -0.8835  0.6618 -1.3534
 4994TIP3   OH236472   2.568   4.284   2.574  0.0834  0.2676  0.0551
 4994TIP3    H136473   2.640   4.225   2.550  2.2052  1.7091  2.2958
 4994TIP3    H236474   2.499   4.227   2.607  0.8258 -1.0986 -0.6602
 4995TIP3   OH236475   0.396   4.478   2.008  0.1438  0.1334 -0.4698
 4995TIP3    H136476   0.387   4.556   2.062 -1.2116  0.8850 -1.7129
 4995TIP3    H236477   0.482   4.487   1.966  0.0070  0.9606 -0.5846
 4996TIP3   OH236478   4.206   4.681   4.428  0.1540  0.1614  0.0789
 4996TIP3    H136479   4.256   4.600   4.414 -0.2589 -0.1238  0.2422
 4996TIP3    H236480   4.139   4.657   4.492  0.8146  0.9642  1.1047
 4997TIP3   OH236481   3.167   0.608  14.751  0.6341  0.1722 -0.3239
 4997TIP3    H136482   3.246   0.569  14.712  0.7761 -0.3915  0.4756
 4997TIP3    H236483   3.162   0.566  14.838 -1.1945 -0.6808 -0.8018
 4998TIP3   OH236484   5.840   1.338   2.977  0.2954  0.1426 -0.4831
 4998TIP3    H136485   5.856   1.400   2.906 -0.5417 -0.0211 -0.8292
 4998TIP3    H236486   5.867   1.253   2.942  3.0330  0.4714  0.5577
 4999TIP3   OH236487   1.640   0.853  15.310 -0.1251 -0.2792  0.1593
 4999TIP3    H136488   1.676   0.873  15.397 -0.5150  1.6681 -0.0746
 4999TIP3    H236489   1.705   0.888  15.249 -0.6225 -0.1558 -0.3070
 5000TIP3   OH236490   6.561   6.283   1.361  0.4510 -0.3080  0.2010
 5000TIP3    H136491   6.493   6.349   1.347  2.7132  2.2206  0.2816
 5000TIP3    H236492   6.599   6.270   1.275 -0.0283 -1.6442  0.1742
 5001TIP3   OH236493   0.072   0.673  12.434 -0.0081  0.4625  0.8849
 5001TIP3    H136494   0.053   0.633  12.519  0.8686  1.5876  1.6452
 5001TIP3    H236495  -0.006   0.656  12.381 -0.2358 -0.9727  1.6347
 5002TIP3   OH236496   0.460   5.815  13.005  0.3107 -0.3263  0.3783
 5002TIP3    H136497   0.411   5.898  13.005 -0.1514 -0.6004  0.9396
 5002TIP3    H236498   0.530   5.830  12.941 -1.0816 -0.2762 -1.2078
 5003TIP3   OH236499   5.647   6.753  15.194 -0.5137  0.1798  0.7575
 5003TIP3    H136500   5.741   6.769  15.207 -0.9322  2.3937  1.6155
 5003TIP3    H236501   5.629   6.788  15.107 -0.7882  1.1614  1.1951
 5004TIP3   OH236502   1.388   0.525  10.701 -0.6950 -0.1676  0.2812
 5004TIP3    H136503   1.448   0.599  10.707  0.4218 -1.0603  0.7002
 5004TIP3    H236504   1.361   0.509  10.792  0.2418 -1.1521  0.4187
 5005TIP3   OH236505   1.713   4.302   3.855  0.5052 -0.3274 -0.1615
 5005TIP3    H136506   1.765   4.380   3.877 -0.1761 -0.1658  0.9640
 5005TIP3    H236507   1.768   4.252   3.796  2.3391 -0.6065  1.6790
 5006TIP3   OH236508   6.515   2.718  11.467 -0.5610 -0.1522  0.2936
 5006TIP3    H136509   6.605   2.702  11.496 -0.6750 -0.0262  0.7283
 5006TIP3    H236510   6.505   2.813  11.471 -0.4409 -0.0956 -0.5963
 5007TIP3   OH236511   1.186   4.594   3.098 -0.5872 -0.3495 -0.0084
 5007TIP3    H136512   1.184   4.652   3.023 -0.4948 -1.6148 -1.0185
 5007TIP3    H236513   1.231   4.515   3.067 -1.0700 -1.1283  1.1851
 5008TIP3   OH236514   6.367   0.878  16.311  0.4110  0.0786  0.2155
 5008TIP3    H136515   6.388   0.904  16.400 -0.7082  1.7559  0.0313
 5008TIP3    H236516   6.419   0.799  16.296  2.0377  0.7954  1.7059
 5009TIP3   OH236517   2.020   0.498  11.290  0.6784  0.2853 -0.2291
 5009TIP3    H136518   1.978   0.414  11.305  0.2149  0.9363  2.6720
 5009TIP3    H236519   1.959   0.546  11.235  0.3862 -0.8214 -0.8942
 5010TIP3   OH236520   1.009   6.266   0.509  0.5800 -0.3090 -0.3729
 5010TIP3    H136521   0.919   6.285   0.483  0.0357 -0.7766  1.0845
 5010TIP3    H236522   1.017   6.304   0.597  0.9260 -2.6418  0.6798
 5011TIP3   OH236523   6.782   2.603   6.597  0.4810 -0.3553 -0.5135
 5011TIP3    H136524   6.839   2.680   6.596  0.5736 -0.3773  0.9356
 5011TIP3    H236525   6.768   2.585   6.690 -1.6313 -0.5428 -0.8270
 5012TIP3   OH236526   5.341   5.526  15.274 -0.0728 -0.5887  0.0197
 5012TIP3    H136527   5.271   5.526  15.209 -0.2016  0.0556  0.1480
 5012TIP3    H236528   5.300   5.561  15.354  0.5741  0.5771 -0.1267
 5013TIP3   OH236529   4.270   5.966   5.549 -0.0484 -0.5869  0.4694
 5013TIP3    H136530   4.364   5.985   5.551  0.0053 -0.8958  1.2492
 5013TIP3    H236531   4.228   6.052   5.559  0.1802 -0.6459  2.2676
 5014TIP3   OH236532   1.713   0.835   0.940 -0.9469 -0.3005  0.7141
 5014TIP3    H136533   1.660   0.759   0.964  0.6846 -1.9680 -0.6914
 5014TIP3    H236534   1.707   0.839   0.844  0.9667 -0.2370  0.5480
 5015TIP3   OH236535   5.899   3.029   5.426 -0.6954 -0.2121  0.1711
 5015TIP3    H136536   5.951   2.964   5.473  2.3842  1.8500 -0.0766
 5015TIP3    H236537   5.841   3.066   5.492 -1.8714 -2.4909  0.5053
 5016TIP3   OH236538   4.913   1.238   3.775 -0.3361  0.0224 -0.4030
 5016TIP3    H136539   4.888   1.200   3.690  1.3321 -1.6038 -0.2120
 5016TIP3    H236540   4.830   1.262   3.816 -1.2451 -0.4107 -1.9214
 5017TIP3   OH236541   4.454   2.173   1.196 -0.1595  0.2718  0.8188
 5017TIP3    H136542   4.460   2.250   1.253 -0.1132 -0.5633  1.9686
 5017TIP3    H236543   4.417   2.105   1.252 -5.1986  0.7057 -1.4039
 5018TIP3   OH236544   5.321   4.333   6.796  0.6402 -0.0299 -0.3055
 5018TIP3    H136545   5.289   4.274   6.864  0.4115  1.0795  0.5696
 5018TIP3    H236546   5.382   4.392   6.840 -0.5489  1.6009 -0.7155
 5019TIP3   OH236547   1.916   2.541  13.954 -0.1879  0.0070 -0.1093
 5019TIP3    H136548   1.885   2.516  14.041 -1.0390 -1.3079 -0.7661
 5019TIP3    H236549   2.010   2.526  13.957 -0.1598  0.2889  0.6841
 5020TIP3   OH236550   2.436   0.422   1.291 -0.8937  0.3910  0.5302
 5020TIP3    H136551   2.347   0.395   1.310 -0.5612 -1.2407 -0.0743
 5020TIP3    H236552   2.488   0.342   1.298  0.5673  1.3336  1.0439
 5021TIP3   OH236553   4.375   6.161   5.269  0.3577  0.2952 -0.4300
 5021TIP3    H136554   4.430   6.187   5.344  0.8537 -0.3367 -0.5673
 5021TIP3    H236555   4.415   6.080   5.238 -0.3209  0.1395 -0.8941
 5022TIP3   OH236556   5.283   1.434  13.613 -0.4836 -0.4176 -0.3001
 5022TIP3    H136557   5.352   1.380  13.652 -0.2627  0.2312  0.2231
 5022TIP3    H236558   5.325   1.518  13.595 -0.6123 -0.6476 -1.8451
 5023TIP3   OH236559   3.525   4.549   0.592  0.3451  0.0096 -0.0431
 5023TIP3    H136560   3.464   4.505   0.533 -0.7855  1.6018 -0.1149
 5023TIP3    H236561   3.507   4.513   0.678 -1.0203  0.7744  0.0052
 5024TIP3   OH236562   5.854   0.333  16.802 -0.0009  0.0004  0.0660
 5024TIP3    H136563   5.948   0.333  16.819  0.1422  0.0886 -0.7193
 5024TIP3    H236564   5.838   0.413  16.752 -0.7254  0.7421  1.3944
 5025TIP3   OH236565   5.688   2.834   2.825 -0.2761  0.1633 -0.3829
 5025TIP3    H136566   5.780   2.828   2.799 -0.8478 -3.3946 -2.1467
 5025TIP3    H236567   5.664   2.746   2.852 -3.3294  0.8041 -0.6044
 5026TIP3   OH236568   6.107   0.707  16.020 -0.2629 -0.1805  0.0765
 5026TIP3    H136569   6.093   0.620  15.982 -0.0369 -0.4677  0.6387
 5026TIP3    H236570   6.145   0.690  16.106  0.5394  0.4897 -0.1216
 5027TIP3   OH236571   4.746   2.812  15.263 -0.4666 -0.1111  0.6700
 5027TIP3    H136572   4.732   2.756  15.186  3.4168 -1.2678  0.6048
 5027TIP3    H236573   4.698   2.893  15.243 -3.0779 -1.8880 -0.9636
 5028TIP3   OH236574   3.551   5.721   0.831 -0.4475 -0.1940 -0.0549
 5028TIP3    H136575   3.488   5.649   0.825  0.9189 -1.5984  1.3933
 5028TIP3    H236576   3.532   5.763   0.915  0.1396 -0.2445  0.1092
 5029TIP3   OH236577   1.461   2.354  16.752 -0.3538 -0.2454 -0.0179
 5029TIP3    H136578   1.448   2.323  16.662 -3.9849  0.3333  0.1593
 5029TIP3    H236579   1.464   2.449  16.744 -0.2150 -0.2132  0.4306
 5030TIP3   OH236580   4.396   3.982   1.989  0.2348  0.2033  0.4140
 5030TIP3    H136581   4.385   4.060   2.044 -0.3309  0.5892 -0.2367
 5030TIP3    H236582   4.366   3.910   2.045  0.7972  0.4344  1.0330
 5031TIP3   OH236583   2.018   2.369  12.847  0.1900  0.1075  0.6802
 5031TIP3    H136584   2.095   2.418  12.875 -0.3316  2.7610 -1.9780
 5031TIP3    H236585   2.049   2.318  12.772 -0.2120 -0.3146  0.7987
 5032TIP3   OH236586   4.317   1.845  15.593 -0.4407  0.1556  0.0398
 5032TIP3    H136587   4.349   1.855  15.504 -0.1541 -0.7064  0.0444
 5032TIP3    H236588   4.253   1.775  15.588 -1.5212  1.0910  0.2469
 5033TIP3   OH236589   4.156   1.578   4.474 -0.2147 -0.3192 -0.9350
 5033TIP3    H136590   4.201   1.662   4.474  0.2150 -0.5444 -1.2366
 5033TIP3    H236591   4.073   1.595   4.429 -0.8218  0.2906  0.3659
 5034TIP3   OH236592   5.449   6.488   5.956  0.4051  0.3221  0.4968
 5034TIP3    H136593   5.361   6.506   5.988 -0.6636  2.2980 -3.0641
 5034TIP3    H236594   5.492   6.573   5.954  1.3776 -0.1565 -0.5158
 5035TIP3   OH236595   5.458   0.440   4.929 -0.1808 -0.1212  0.1131
 5035TIP3    H136596   5.422   0.385   4.860 -0.0576  1.0684 -0.9401
 5035TIP3    H236597   5.434   0.530   4.903 -1.2997  0.2948  2.2941
 5036TIP3   OH236598   3.074   4.472   3.554  0.7044 -0.3253 -0.0373
 5036TIP3    H136599   3.157   4.513   3.580  0.9673 -1.2955  0.7220
 5036TIP3    H236600   3.092   4.378   3.559  0.2203 -0.5627 -2.0626
 5037TIP3   OH236601   4.115   4.419  15.431 -0.7052  0.0099 -0.0627
 5037TIP3    H136602   4.171   4.349  15.396  1.8174  0.7191  2.1682
 5037TIP3    H236603   4.089   4.387  15.517  0.2683  1.6152  0.8770
 5038TIP3   OH236604   3.616   5.166  16.445 -0.4146 -0.2415 -0.2275
 5038TIP3    H136605   3.692   5.172  16.503 -0.9784  1.5620  0.4092
 5038TIP3    H236606   3.647   5.116  16.369  0.9956 -0.6947  0.6034
 5039TIP3   OH236607   1.589   4.418  14.020  0.4234 -0.3173  0.0656
 5039TIP3    H136608   1.630   4.336  13.991 -0.3583 -0.8447  0.3881
 5039TIP3    H236609   1.576   4.468  13.940 -1.3755 -1.5929 -0.5182
 5040TIP3   OH236610   5.823   3.269   0.250  0.6503 -0.0066  0.4617
 5040TIP3    H136611   5.810   3.181   0.284 -1.0371 -0.1123 -0.3364
 5040TIP3    H236612   5.740   3.314   0.267  0.6769  0.7099 -1.1175
 5041TIP3   OH236613   4.374   2.625  16.766  0.2308 -0.2032 -0.1114
 5041TIP3    H136614   4.392   2.545  16.816 -0.0594 -0.8961 -1.0863
 5041TIP3    H236615   4.283   2.646  16.786  0.4922  0.2480  0.6335
 5042TIP3   OH236616   5.059   1.706  15.840  0.2505  0.1047 -0.2126
 5042TIP3    H136617   4.970   1.726  15.870  0.1297 -0.4969 -0.1548
 5042TIP3    H236618   5.091   1.643  15.904  0.8087  0.4984 -0.1003
 5043TIP3   OH236619   2.112   4.707  15.153 -0.2434  0.2185  0.1943
 5043TIP3    H136620   2.189   4.741  15.198 -1.2846  1.3602  1.1997
 5043TIP3    H236621   2.138   4.699  15.062  0.8673  1.2093  0.4044
 5044TIP3   OH236622   6.606   5.034   2.357 -0.3902  0.0736 -0.0438
 5044TIP3    H136623   6.616   5.091   2.433  2.2553  0.9853 -0.9686
 5044TIP3    H236624   6.693   5.030   2.318 -1.4615 -1.0835 -2.5374
 5045TIP3   OH236625   0.642   3.686  15.070  0.4530 -0.5167  0.6770
 5045TIP3    H136626   0.721   3.731  15.039 -0.8072  0.6863 -0.9385
 5045TIP3    H236627   0.590   3.754  15.112 -1.4946 -0.3511 -1.8029
 5046TIP3   OH236628   6.011   6.225   5.589  0.3700 -0.1336 -0.1171
 5046TIP3    H136629   5.949   6.267   5.530 -0.0771  0.7984  0.9772
 5046TIP3    H236630   6.025   6.138   5.552 -0.9362 -0.0519 -0.8462
 5047TIP3   OH236631   4.259   5.647  10.690 -0.4940  0.2234 -0.6250
 5047TIP3    H136632   4.348   5.655  10.655 -0.5749 -0.2831 -0.9646
 5047TIP3    H236633   4.203   5.677  10.618 -0.6953 -1.4218 -1.1992
 5048TIP3   OH236634   3.133   0.366   0.454  0.1314  0.5549  0.4743
 5048TIP3    H136635   3.121   0.340   0.363 -0.7790  1.8391  0.1832
 5048TIP3    H236636   3.141   0.284   0.502 -2.5758 -0.3184 -0.3591
 5049TIP3   OH236637   0.832   6.434   0.857  0.2722 -0.1607 -0.2488
 5049TIP3    H136638   0.767   6.500   0.882 -0.8579 -0.3258 -2.4171
 5049TIP3    H236639   0.779   6.358   0.832  1.3157 -0.4703 -1.6071
 5050TIP3   OH236640   1.619   5.133  15.529  0.4888 -0.2350 -0.2971
 5050TIP3    H136641   1.525   5.124  15.547  0.2017  1.2368 -0.9487
 5050TIP3    H236642   1.661   5.120  15.614 -0.2089 -1.9359 -0.1740
 5051TIP3   OH236643   1.080   2.824   2.847 -0.1902  0.5571 -0.1903
 5051TIP3    H136644   1.068   2.765   2.921  0.4469  1.5003  0.6910
 5051TIP3    H236645   1.000   2.877   2.846 -0.3183  0.3604 -0.3469
 5052TIP3   OH236646   1.999   2.833  12.020  0.4166 -0.9769  0.3033
 5052TIP3    H136647   2.048   2.751  12.012  0.8731 -1.0277  2.7377
 5052TIP3    H236648   2.067   2.900  12.022  0.5625 -1.0360  3.5621
 5053TIP3   OH236649   6.472   6.582   2.643  0.3703  0.1211 -0.4027
 5053TIP3    H136650   6.392   6.579   2.696  0.9740 -1.0364  0.4914
 5053TIP3    H236651   6.466   6.665   2.596  0.3812  1.8371  2.3849
 5054TIP3   OH236652   0.443   5.001  14.160 -0.3061  0.5779  0.0501
 5054TIP3    H136653   0.391   5.057  14.218 -0.3996  0.6036 -0.0595
 5054TIP3    H236654   0.530   5.000  14.200 -0.3974  0.5132  0.2478
 5055TIP3   OH236655   6.323   1.751   6.180 -0.3130 -0.0732 -0.0907
 5055TIP3    H136656   6.309   1.810   6.253  0.2103 -1.2652  1.0102
 5055TIP3    H236657   6.300   1.664   6.214 -3.8513 -0.2767 -2.4398
 5056TIP3   OH236658   3.214   1.246  12.712  0.0996  0.1268 -0.2301
 5056TIP3    H136659   3.285   1.306  12.688 -1.8307  2.5307 -0.3243
 5056TIP3    H236660   3.236   1.217  12.801 -0.0330  2.9174  0.8174
 5057TIP3   OH236661   3.561   5.135   3.260  0.1374  0.5291 -0.0752
 5057TIP3    H136662   3.566   5.085   3.342  2.2804  0.5999 -0.1143
 5057TIP3    H236663   3.492   5.200   3.276 -0.2034 -0.1325  1.2805
 5058TIP3   OH236664   2.851   2.694   2.783 -0.0466 -0.1043 -0.5291
 5058TIP3    H136665   2.889   2.618   2.738 -0.7415 -0.3087 -0.7745
 5058TIP3    H236666   2.879   2.768   2.730  0.6821 -0.1723 -0.2584
 5059TIP3   OH236667   0.558   2.385  14.267 -0.1005 -0.2015  0.1157
 5059TIP3    H136668   0.505   2.447  14.218 -0.6997 -0.2067  0.7463
 5059TIP3    H236669   0.560   2.306  14.212 -0.8088 -0.2258  0.1204
 5060TIP3   OH236670   3.647   3.572   6.753 -0.1665 -0.1512  0.2769
 5060TIP3    H136671   3.552   3.577   6.737  0.1585  0.7404 -1.7648
 5060TIP3    H236672   3.667   3.479   6.745 -0.5114 -0.0854 -2.1499
 5061TIP3   OH236673   4.641   6.141  13.827 -0.4778  0.0976  0.1956
 5061TIP3    H136674   4.654   6.046  13.819 -1.4496  0.0788 -2.4080
 5061TIP3    H236675   4.669   6.176  13.742 -2.6429  1.7791  0.0798
 5062TIP3   OH236676   4.395   4.038   4.857  0.1920  0.4918  0.0964
 5062TIP3    H136677   4.344   4.109   4.896  1.2043  1.4315 -0.2563
 5062TIP3    H236678   4.330   3.971   4.837 -0.7346  1.1505  0.7894
 5063TIP3   OH236679   0.606   6.776  14.122  0.4633  0.0280  0.4973
 5063TIP3    H136680   0.549   6.713  14.166  0.5637  0.3305  1.0655
 5063TIP3    H236681   0.684   6.725  14.099  0.5251 -0.0691  0.9112
 5064TIP3   OH236682   1.577   1.458   1.816  0.4566  0.2188 -0.1127
 5064TIP3    H136683   1.614   1.432   1.732  0.1825 -0.0997 -0.1371
 5064TIP3    H236684   1.609   1.392   1.878 -0.2960 -0.2317 -0.1874
 5065TIP3   OH236685   6.732   1.767   1.583  0.6269  0.2392  0.3068
 5065TIP3    H136686   6.719   1.792   1.674  0.2899  0.6262  0.1559
 5065TIP3    H236687   6.646   1.774   1.543  0.5600 -0.9564  0.1942
 5066TIP3   OH236688   4.734   5.120  11.608 -1.0357  0.0467  0.2932
 5066TIP3    H136689   4.825   5.128  11.637 -1.0782 -1.0214  0.7595
 5066TIP3    H236690   4.684   5.169  11.673 -1.0490 -1.6640  1.6133
 5067TIP3   OH236691   3.222   1.332   0.037  0.2478 -0.6306 -0.1165
 5067TIP3    H136692   3.246   1.425   0.042  0.9698 -0.8519  0.9095
 5067TIP3    H236693   3.141   1.325   0.088  2.0078 -1.0888  2.8748
 5068TIP3   OH236694   5.501   5.657  14.938  0.6683  0.5520  0.2720
 5068TIP3    H136695   5.477   5.736  14.889  2.1061  1.2105  0.5552
 5068TIP3    H236696   5.479   5.677  15.029 -1.3720 -0.4085  0.0316
 5069TIP3   OH236697   3.238   5.908   6.030 -0.7229 -0.7353  0.3999
 5069TIP3    H136698   3.297   5.924   6.104 -0.6614  0.1204  0.1719
 5069TIP3    H236699   3.161   5.866   6.070 -0.1813 -1.4085  0.7659
 5070TIP3   OH236700   4.788   2.700   0.445 -0.4208 -0.1543 -0.2035
 5070TIP3    H136701   4.751   2.700   0.533  0.2971 -0.1668  0.1092
 5070TIP3    H236702   4.846   2.624   0.444  1.4455  1.1970  0.1453
 5071TIP3   OH236703   2.856   6.593  13.089 -0.7354  0.2158 -0.3477
 5071TIP3    H136704   2.850   6.542  13.169  0.3534 -0.2492 -0.5446
 5071TIP3    H236705   2.831   6.532  13.019 -2.2012  0.7624 -0.3426
 5072TIP3   OH236706   0.189   1.249   4.647 -0.6296 -0.0684  0.2245
 5072TIP3    H136707   0.151   1.310   4.583  0.2622  0.2953  0.0248
 5072TIP3    H236708   0.239   1.305   4.707 -0.1930 -0.5600  0.3254
 5073TIP3   OH236709   5.130   6.063   5.645  0.0410  0.0725  0.1682
 5073TIP3    H136710   5.170   6.105   5.722  0.6353 -1.7743  0.9101
 5073TIP3    H236711   5.092   6.136   5.596  1.9795  1.6189  0.8140
 5074TIP3   OH236712   1.471   0.445  15.473  0.3611  0.5139  0.2391
 5074TIP3    H136713   1.409   0.500  15.521 -1.6698 -1.2370 -0.2724
 5074TIP3    H236714   1.435   0.439  15.385  1.8937  0.3559 -0.4064
 5075TIP3   OH236715   2.724   1.788  14.418 -0.1940 -0.1240 -0.0143
 5075TIP3    H136716   2.752   1.697  14.408  1.1740 -0.0152  2.0346
 5075TIP3    H236717   2.636   1.791  14.381 -1.4541 -3.0079  2.3480
 5076TIP3   OH236718   6.551   6.187  12.944  0.6097 -0.2092  0.2970
 5076TIP3    H136719   6.613   6.190  12.871 -0.2152 -3.3683 -0.7352
 5076TIP3    H236720   6.528   6.278  12.960  1.9290  0.7255 -2.4375
 5077TIP3   OH236721   3.789   3.242  11.349  0.3090  0.7791 -0.4099
 5077TIP3    H136722   3.730   3.233  11.273  0.6823 -0.9924 -0.5366
 5077TIP3    H236723   3.857   3.177  11.333 -0.1109 -0.3018  1.9105
 5078TIP3   OH236724   1.065   6.214   0.077 -0.1506 -0.5109  0.5693
 5078TIP3    H136725   1.150   6.208   0.120 -0.1153 -0.5825  0.4917
 5078TIP3    H236726   1.020   6.286   0.121  1.1826  1.7535 -1.5120
 5079TIP3   OH236727   1.413   3.973  16.686  0.4977  0.3482  0.2764
 5079TIP3    H136728   1.422   3.936  16.598  0.9502  0.1781  0.3898
 5079TIP3    H236729   1.320   3.967  16.705  0.4131  0.2715 -0.1443
 5080TIP3   OH236730   1.424   3.400  10.790  0.4046 -0.5454 -0.3986
 5080TIP3    H136731   1.406   3.459  10.717 -0.8742  0.2475  0.5228
 5080TIP3    H236732   1.469   3.326  10.750  1.7262  0.8561 -1.6503
 5081TIP3   OH236733   5.285   5.160   1.599  0.2706  0.6618  0.1460
 5081TIP3    H136734   5.295   5.085   1.540 -0.4317  0.4133  0.3300
 5081TIP3    H236735   5.262   5.233   1.541  0.9354  0.7328 -0.0314
 5082TIP3   OH236736   0.617   2.847   2.595 -0.2477  0.0428  0.3921
 5082TIP3    H136737   0.697   2.884   2.558  0.0224 -1.2348 -0.3932
 5082TIP3    H236738   0.615   2.757   2.561 -1.8037 -0.0772  0.7326
 5083TIP3   OH236739   5.080   0.043   3.565 -0.6745 -0.0053  0.0576
 5083TIP3    H136740   5.019   0.110   3.596 -1.2983  0.0829 -1.3091
 5083TIP3    H236741   5.165   0.088   3.565 -0.8162  0.2846  0.6704
 5084TIP3   OH236742   1.846   3.300  16.880 -0.6046 -0.5661  0.3640
 5084TIP3    H136743   1.868   3.208  16.890 -0.3852 -0.5478  0.0642
 5084TIP3    H236744   1.751   3.304  16.888 -1.0784 -1.3342 -3.2130
 5085TIP3   OH236745   0.227   1.812  14.042 -0.0422 -0.5396 -0.4215
 5085TIP3    H136746   0.230   1.759  14.122 -0.9885  0.7694  0.5295
 5085TIP3    H236747   0.316   1.845  14.031  0.0684 -0.6464  0.1386
 5086TIP3   OH236748   5.895   4.040  15.176  0.5486 -0.4114  0.0946
 5086TIP3    H136749   5.833   4.112  15.188 -0.7006 -1.5594  0.8570
 5086TIP3    H236750   5.929   4.051  15.087 -0.6652  0.3078 -0.2979
 5087TIP3   OH236751   1.084   4.565  14.721  0.3090  0.4463  0.0939
 5087TIP3    H136752   1.015   4.625  14.749 -0.3116 -0.2414  0.0839
 5087TIP3    H236753   1.039   4.481  14.709  0.4747  0.7008 -3.1262
 5088TIP3   OH236754   0.216   0.355   2.913  0.1198  0.0081 -0.4365
 5088TIP3    H136755   0.252   0.364   3.001  1.2748 -0.9743 -0.7776
 5088TIP3    H236756   0.292   0.333   2.858 -0.8236 -1.0070 -1.3795
 5089TIP3   OH236757   2.373   1.951   5.545 -0.0541  0.0316 -0.3824
 5089TIP3    H136758   2.308   1.986   5.606 -0.9194 -0.7262 -0.8483
 5089TIP3    H236759   2.399   2.027   5.492 -1.4616  0.1291 -0.9911
 5090TIP3   OH236760   1.006   5.940  13.885  0.7435  0.5782 -0.3414
 5090TIP3    H136761   1.020   5.947  13.979 -0.9499  1.8466 -0.1453
 5090TIP3    H236762   0.927   5.887  13.876 -0.1337  1.9355 -0.9432
 5091TIP3   OH236763   2.392   0.989   5.399  0.4087  0.2483 -0.5793
 5091TIP3    H136764   2.480   0.974   5.434  0.8610 -0.1990 -1.8144
 5091TIP3    H236765   2.374   1.081   5.416  0.5054  0.0074  0.9656
 5092TIP3   OH236766   2.808   6.717  16.863  0.3985  0.1487  0.1916
 5092TIP3    H136767   2.886   6.769  16.884  0.6670  0.9229 -2.3908
 5092TIP3    H236768   2.775   6.755  16.782 -0.9884 -2.0038 -0.3377
 5093TIP3   OH236769   5.294   5.171   5.973 -0.2346  0.7791 -0.1015
 5093TIP3    H136770   5.205   5.195   5.947 -0.4508  1.5796  1.2438
 5093TIP3    H236771   5.284   5.133   6.061  0.5365 -1.0068 -0.7361
 5094TIP3   OH236772   3.937   0.537  13.141 -0.3795 -0.0499 -0.4931
 5094TIP3    H136773   3.979   0.550  13.056 -1.4332 -1.4581 -1.2630
 5094TIP3    H236774   3.999   0.482  13.189 -0.2698 -0.1348 -0.7298
 5095TIP3   OH236775   0.566   0.608  16.627 -0.0743 -0.1847  0.0712
 5095TIP3    H136776   0.524   0.545  16.686 -1.4810  1.6371  1.1492
 5095TIP3    H236777   0.656   0.578  16.619 -0.0938 -1.0529  2.4053
 5096TIP3   OH236778   1.260   0.862  11.295 -0.7878  0.0874  0.1490
 5096TIP3    H136779   1.352   0.870  11.318 -0.9461  1.7191  0.3884
 5096TIP3    H236780   1.238   0.947  11.255 -2.1123 -0.3752 -0.1722
 5097TIP3   OH236781   3.678   1.003  14.746 -0.3006 -0.0326  0.0442
 5097TIP3    H136782   3.723   0.945  14.807  0.8329  1.1470  0.3813
 5097TIP3    H236783   3.585   0.993  14.766 -0.0331 -0.7627  0.9521
 5098TIP3   OH236784   6.249   5.547   3.336 -0.5001  0.4017 -0.1886
 5098TIP3    H136785   6.313   5.475   3.330 -0.1735  0.7748 -1.4535
 5098TIP3    H236786   6.176   5.518   3.281 -1.6503 -0.2038  1.5741
 5099TIP3   OH236787   4.493   5.312  17.201 -0.2931 -0.7775  0.5456
 5099TIP3    H136788   4.490   5.221  17.231  0.7718 -0.2681  2.3026
 5099TIP3    H236789   4.426   5.316  17.132 -1.2428 -2.5788  1.2901
 5100TIP3   OH236790   6.759   0.381  15.080 -0.3077  0.0039  0.5352
 5100TIP3    H136791   6.681   0.326  15.084  0.0732 -0.4657  1.9937
 5100TIP3    H236792   6.819   0.343  15.144  0.7355  0.9564  0.1611
 5101TIP3   OH236793   3.088   1.254  16.311  0.5216 -0.2704 -0.1110
 5101TIP3    H136794   3.071   1.160  16.307  0.2608 -0.2190 -0.2050
 5101TIP3    H236795   3.085   1.282  16.219 -0.3014 -0.0068 -0.0085
 5102TIP3   OH236796   4.161   5.276  15.996 -0.1792  0.0056  0.6177
 5102TIP3    H136797   4.122   5.336  16.059 -1.0489 -1.9044  1.9886
 5102TIP3    H236798   4.087   5.241  15.946  0.3622  0.4271 -0.5243
 5103TIP3   OH236799   3.258   6.641  14.945  0.4644 -0.1467 -0.1590
 5103TIP3    H136800   3.328   6.634  15.010  0.8438 -0.2603 -0.5758
 5103TIP3    H236801   3.214   6.723  14.965  0.1967 -0.4660  0.6182
 5104TIP3   OH236802   1.237   1.902  15.863 -0.1944 -0.3883  0.6127
 5104TIP3    H136803   1.187   1.975  15.898  0.2319  0.1606  0.0988
 5104TIP3    H236804   1.289   1.940  15.792  1.2539 -0.8502  1.3815
 5105TIP3   OH236805   5.485   1.213   2.560  0.4147  0.6756  0.2242
 5105TIP3    H136806   5.542   1.143   2.592  1.2198  2.0683  2.0145
 5105TIP3    H236807   5.544   1.271   2.510  0.1176  0.9648  0.2057
 5106TIP3   OH236808   5.416   2.565  14.829  0.1148 -0.6869 -0.4044
 5106TIP3    H136809   5.455   2.545  14.743 -0.9346 -0.3021 -0.9860
 5106TIP3    H236810   5.475   2.523  14.892  0.2808 -1.9846 -1.3724
 5107TIP3   OH236811   5.377   3.772  17.016  0.0729  0.9447  0.2670
 5107TIP3    H136812   5.361   3.679  17.031 -0.7525  1.1661  0.8141
 5107TIP3    H236813   5.397   3.778  16.922  1.3153  0.0721  0.4503
 5108TIP3   OH236814   4.469   4.935   0.779 -0.2254 -0.3371 -0.3736
 5108TIP3    H136815   4.509   4.854   0.745 -1.8400 -0.8362 -1.1777
 5108TIP3    H236816   4.378   4.911   0.795 -1.3062  1.8485 -2.6303
 5109TIP3   OH236817   3.936   6.725   5.035  0.0184 -0.4138 -0.4299
 5109TIP3    H136818   3.918   6.819   5.037  1.4743 -0.0417 -2.0258
 5109TIP3    H236819   3.885   6.689   5.107 -0.5705  1.5948  0.2229
 5110TIP3   OH236820   4.586   1.716   3.713 -0.1056  0.0933 -0.2747
 5110TIP3    H136821   4.597   1.648   3.780 -0.5040  0.5095  0.2260
 5110TIP3    H236822   4.541   1.671   3.641 -0.4502 -0.1562  0.0886
 5111TIP3   OH236823   4.783   1.640  16.521  0.2279 -0.0074 -0.3188
 5111TIP3    H136824   4.844   1.599  16.461  0.6157  0.3189 -0.1505
 5111TIP3    H236825   4.716   1.679  16.465 -0.7417 -1.7685 -0.4479
 5112TIP3   OH236826   5.478   5.327   2.443 -0.2818  0.1259  0.1157
 5112TIP3    H136827   5.458   5.235   2.463  1.3040 -0.5823 -1.3228
 5112TIP3    H236828   5.394   5.372   2.450 -1.6099 -1.9052 -1.5007
 5113TIP3   OH236829   0.233   6.552  17.067  0.3160  0.2638 -0.3195
 5113TIP3    H136830   0.287   6.616  17.021  1.4171 -0.2911  0.1807
 5113TIP3    H236831   0.202   6.493  16.998  3.1439 -1.4381 -0.2723
 5114TIP3   OH236832   5.061   3.727  13.237 -0.1580 -0.5373 -0.0579
 5114TIP3    H136833   5.014   3.647  13.262  0.4758  0.0105  3.5160
 5114TIP3    H236834   4.993   3.784  13.201 -1.2414 -1.5900  0.2359
 5115TIP3   OH236835   1.337   3.657  12.300 -0.5964  0.0830 -0.3785
 5115TIP3    H136836   1.333   3.563  12.318  0.0757 -0.0960 -1.0970
 5115TIP3    H236837   1.277   3.669  12.227 -0.7087  0.2133 -0.2630
 5116TIP3   OH236838   2.624   3.156  14.171 -0.8885  0.3516 -0.2597
 5116TIP3    H136839   2.567   3.205  14.111 -0.5215  0.7451 -0.2940
 5116TIP3    H236840   2.710   3.158  14.129 -0.3931  1.4824  0.7230
 5117TIP3   OH236841   1.583   3.024   5.265  0.2784 -0.1428  0.1833
 5117TIP3    H136842   1.672   2.990   5.259  0.5321  0.6370 -0.7690
 5117TIP3    H236843   1.577   3.089   5.196  0.1994  2.6228  2.5920
 5118TIP3   OH236844   4.408   6.140  15.314 -0.0021 -0.2378 -0.5753
 5118TIP3    H136845   4.500   6.125  15.336  0.2622 -0.1641 -1.6049
 5118TIP3    H236846   4.370   6.174  15.395  1.5129  2.4182 -0.8718
 5119TIP3   OH236847   5.344   2.709  14.366  0.1254  0.2504 -0.7800
 5119TIP3    H136848   5.390   2.628  14.389  1.5310  1.0996 -0.5011
 5119TIP3    H236849   5.273   2.680  14.308  1.3945 -1.0514 -1.7578
 5120TIP3   OH236850   1.764   0.674   1.475 -0.6882  0.1319  0.0323
 5120TIP3    H136851   1.857   0.667   1.494 -1.0666  0.0439  1.9765
 5120TIP3    H236852   1.742   0.592   1.431  0.4364  0.8135 -1.9297
 5121TIP3   OH236853   1.357   4.229  10.948  0.4954  0.3345 -0.6161
 5121TIP3    H136854   1.371   4.317  10.983 -1.8261  0.0474  1.2660
 5121TIP3    H236855   1.393   4.170  11.014 -1.4729 -0.1654  0.0686
 5122TIP3   OH236856   5.654   3.456  16.588  0.2934  0.5954  0.4481
 5122TIP3    H136857   5.648   3.378  16.532 -1.4927  0.9837  0.0339
 5122TIP3    H236858   5.676   3.527  16.528  0.1405  0.7118  0.5291
 5123TIP3   OH236859   4.838   1.049   2.300 -0.0292  0.0082  0.4424
 5123TIP3    H136860   4.861   0.956   2.291  0.1350  0.0714  0.2015
 5123TIP3    H236861   4.760   1.060   2.247  0.3311  0.1502 -0.0659
 5124TIP3   OH236862   2.814   5.659   3.946  0.1009 -0.5029  0.0679
 5124TIP3    H136863   2.885   5.664   3.883 -1.1981 -0.4055 -1.4543
 5124TIP3    H236864   2.852   5.691   4.028  2.4709 -2.7374 -0.0257
 5125TIP3   OH236865   6.069   5.107  13.264 -0.4828 -0.0375  0.3672
 5125TIP3    H136866   6.135   5.079  13.328  0.6740 -0.3923 -0.9358
 5125TIP3    H236867   6.009   5.032  13.257 -0.0143 -0.4067  0.2692
 5126TIP3   OH236868   0.156   0.519  13.292  0.0658  0.0337  0.7759
 5126TIP3    H136869   0.240   0.508  13.336  0.2040  2.2831  1.1942
 5126TIP3    H236870   0.139   0.613  13.296 -1.4493 -0.0933 -1.1935
 5127TIP3   OH236871   6.496   2.390   3.761 -0.2179  0.1921  0.2249
 5127TIP3    H136872   6.407   2.411   3.788 -1.1159 -1.3196 -1.3311
 5127TIP3    H236873   6.529   2.470   3.721 -0.6361  0.9550  1.3741
 5128TIP3   OH236874   1.375   6.255  12.671 -0.3287  0.4656 -0.4356
 5128TIP3    H136875   1.339   6.236  12.584 -0.3984  1.3055 -0.5964
 5128TIP3    H236876   1.432   6.330  12.658 -0.0108  0.3369  0.1767
 5129TIP3   OH236877   4.045   6.622   3.566  0.4294 -0.5618 -0.1571
 5129TIP3    H136878   4.063   6.712   3.593 -0.8315 -0.3535  0.0427
 5129TIP3    H236879   3.950   6.616   3.564  0.4990 -1.7234 -0.7599
 5130TIP3   OH236880   5.114   5.645   0.556  0.1834  0.2054  0.2438
 5130TIP3    H136881   5.036   5.663   0.609  0.5847 -0.2387  0.9987
 5130TIP3    H236882   5.174   5.717   0.578 -0.4957  1.3353 -1.3734
 5131TIP3   OH236883   5.610   2.437  11.320  0.5737 -0.1736  0.3933
 5131TIP3    H136884   5.699   2.427  11.285  0.7597  3.2177 -0.4648
 5131TIP3    H236885   5.563   2.485  11.251 -2.2794 -2.6461  0.4209
 5132TIP3   OH236886   0.871   0.460   9.946 -0.5122 -0.4847 -0.2561
 5132TIP3    H136887   0.799   0.522   9.938  0.2575  0.3031 -1.3891
 5132TIP3    H236888   0.890   0.458  10.040 -1.9370 -0.6394  0.0446
 5133TIP3   OH236889   5.042   0.157  15.452  0.3837 -0.9380  0.3317
 5133TIP3    H136890   5.071   0.247  15.470 -0.7767 -0.3489 -0.5805
 5133TIP3    H236891   5.043   0.151  15.356 -0.6147 -1.5164  0.3488
 5134TIP3   OH236892   6.731   1.262   3.639  0.2661  0.8673 -0.0717
 5134TIP3    H136893   6.754   1.269   3.732  1.9040 -1.1292 -0.2607
 5134TIP3    H236894   6.814   1.275   3.593 -0.1970  0.0427 -1.1587
 5135TIP3   OH236895   0.203   6.144  14.497  0.7120 -0.5200  0.1145
 5135TIP3    H136896   0.292   6.108  14.494  1.2271  0.7129  0.0698
 5135TIP3    H236897   0.180   6.144  14.590  0.5234 -1.3795  0.0733
 5136TIP3   OH236898   2.800   4.989   4.162 -0.0189  0.2189 -0.2461
 5136TIP3    H136899   2.889   4.963   4.137 -0.0004  0.9877 -1.0453
 5136TIP3    H236900   2.770   5.044   4.090 -1.2086 -0.1426 -0.0565
 5137TIP3   OH236901   1.655   1.487   5.340  0.0194 -0.2497  0.2184
 5137TIP3    H136902   1.665   1.457   5.430  1.8813 -2.2295 -0.5796
 5137TIP3    H236903   1.744   1.500   5.308 -0.6039  3.2235 -0.5543
 5138TIP3   OH236904   4.120   4.120   5.889 -0.5735  0.0486  0.5663
 5138TIP3    H136905   4.205   4.162   5.873  0.0101 -0.7496  1.4589
 5138TIP3    H236906   4.075   4.180   5.948  0.0205 -0.2844  1.3698
 5139TIP3   OH236907   0.091   5.736  10.923  0.0490 -0.1069 -0.4239
 5139TIP3    H136908   0.066   5.822  10.890  0.8043  0.1707 -0.3112
 5139TIP3    H236909   0.011   5.699  10.959 -0.3663  0.3850 -0.8292
 5140TIP3   OH236910   2.485   0.926  13.331  0.9969  0.0871  0.0859
 5140TIP3    H136911   2.425   0.943  13.404  0.4981 -0.2634 -0.2322
 5140TIP3    H236912   2.452   0.844  13.292 -0.3667  1.5942 -2.1435
 5141TIP3   OH236913   5.835   0.111   1.955  0.3877  0.3942  0.3807
 5141TIP3    H136914   5.766   0.144   2.013  1.5428  1.1278  1.3891
 5141TIP3    H236915   5.850   0.182   1.893 -0.3589 -0.1176 -0.4112
 5142TIP3   OH236916   4.565   4.641  12.307  0.0860  0.1992  0.2698
 5142TIP3    H136917   4.496   4.618  12.370 -0.5918 -1.7066 -1.0649
 5142TIP3    H236918   4.528   4.712  12.255 -1.3115 -1.3309 -0.9670
 5143TIP3   OH236919   4.174   3.522   1.442 -0.1398 -0.2008 -0.0821
 5143TIP3    H136920   4.251   3.513   1.498  0.2146 -0.2572 -0.5724
 5143TIP3    H236921   4.109   3.463   1.480  0.0352 -0.0939  0.3799
 5144TIP3   OH236922   5.874   6.739  11.331 -0.3444  0.2173  0.2394
 5144TIP3    H136923   5.840   6.814  11.381 -0.6570  1.2565 -1.4381
 5144TIP3    H236924   5.814   6.732  11.256  2.7359  1.8574 -2.6557
 5145TIP3   OH236925   1.230   2.052   3.664  0.6438  0.0709 -0.3262
 5145TIP3    H136926   1.162   2.040   3.597  0.4016 -1.0198  0.0849
 5145TIP3    H236927   1.230   2.146   3.682 -1.5067 -0.0055  0.4225
 5146TIP3   OH236928   3.396   2.227  11.997  0.5638  0.0514  0.0731
 5146TIP3    H136929   3.321   2.267  12.041  0.7520  1.1082 -0.5434
 5146TIP3    H236930   3.461   2.216  12.067  0.1220 -0.1470  0.4552
 5147TIP3   OH236931   5.026   3.272  15.129 -0.4559 -0.2487 -0.0272
 5147TIP3    H136932   5.002   3.255  15.220  1.2115 -0.0935  0.4714
 5147TIP3    H236933   4.946   3.251  15.080 -1.6336  0.3614  1.5090
 5148TIP3   OH236934   1.373   0.647  12.994  0.2136  0.6631  0.4909
 5148TIP3    H136935   1.327   0.705  13.054  0.0279  0.2795  0.7244
 5148TIP3    H236936   1.444   0.609  13.045  0.2579  0.5885  0.3758
 5149TIP3   OH236937   0.762   6.132  16.079 -0.6705  0.5882 -0.5845
 5149TIP3    H136938   0.792   6.209  16.030  0.1683  0.2062 -0.6906
 5149TIP3    H236939   0.778   6.154  16.170  0.3060  0.2508 -0.6607
 5150TIP3   OH236940   6.633   4.511   3.258 -0.1946  0.3484  0.1320
 5150TIP3    H136941   6.617   4.418   3.273  0.4016  0.4747  1.6797
 5150TIP3    H236942   6.551   4.554   3.281 -0.8866  0.1509 -1.7437
 5151TIP3   OH236943   4.702   3.233   3.505  0.1312  0.6880  0.2937
 5151TIP3    H136944   4.700   3.178   3.427  1.5841 -1.9906  1.9902
 5151TIP3    H236945   4.612   3.263   3.516 -0.5109 -0.5303 -1.2959
 5152TIP3   OH236946   6.790   3.818  16.206 -0.3518  0.3264 -0.1802
 5152TIP3    H136947   6.718   3.779  16.255  0.1878 -1.4593 -0.7304
 5152TIP3    H236948   6.767   3.803  16.114  0.1774  0.7703 -0.3915
 5153TIP3   OH236949   4.364   2.378  13.699  0.5932  0.0591 -0.2337
 5153TIP3    H136950   4.348   2.472  13.711 -1.7483 -0.3271  0.0449
 5153TIP3    H236951   4.351   2.364  13.605  1.3539  0.0556 -0.3476
 5154TIP3   OH236952   5.123   1.545   5.392 -0.6163 -1.0473  0.2064
 5154TIP3    H136953   5.053   1.610   5.404  0.0423  0.0771 -1.7262
 5154TIP3    H236954   5.081   1.472   5.347 -0.4620 -0.0628 -1.6351
 5155TIP3   OH236955   3.650   5.537   1.931 -0.2891  0.2614 -0.3071
 5155TIP3    H136956   3.557   5.530   1.909 -0.4304  0.4192  0.2361
 5155TIP3    H236957   3.662   5.477   2.004  0.0720  0.1225 -0.4798
 5156TIP3   OH236958   4.260   1.589  11.156 -0.3061 -0.0776 -0.2119
 5156TIP3    H136959   4.181   1.636  11.180  0.4896  0.6498  1.1537
 5156TIP3    H236960   4.247   1.500  11.191  0.4327  0.7059  2.2936
 5157TIP3   OH236961   5.672   5.162   5.563 -0.1527  0.1657  0.2888
 5157TIP3    H136962   5.703   5.228   5.502 -1.4465  0.7816  0.2496
 5157TIP3    H236963   5.649   5.212   5.642 -3.2821  0.1719 -0.5062
 5158TIP3   OH236964   5.502   1.924   4.981 -0.1938  0.3066  0.0783
 5158TIP3    H136965   5.587   1.893   4.951 -1.8877 -1.8774 -2.9900
 5158TIP3    H236966   5.498   2.016   4.953  0.7387  0.1057 -0.7278
 5159TIP3   OH236967   4.620   4.258   2.059  1.0370  0.1795 -0.2057
 5159TIP3    H136968   4.611   4.352   2.069  0.0536  0.2925 -1.9491
 5159TIP3    H236969   4.553   4.233   1.995 -0.8573 -2.1711  2.4397
 5160TIP3   OH236970   2.285   0.601   3.480 -0.1181 -0.1526  0.0698
 5160TIP3    H136971   2.371   0.618   3.518  0.2137  1.3471 -1.2550
 5160TIP3    H236972   2.229   0.670   3.517 -0.9876 -1.6031  1.5616
 5161TIP3   OH236973   2.704   4.231   5.986  0.1271  0.1628 -0.1061
 5161TIP3    H136974   2.677   4.318   5.957 -3.3930 -0.2799  1.4048
 5161TIP3    H236975   2.678   4.172   5.916 -1.5691 -0.0830  0.6801
 5162TIP3   OH236976   4.472   1.633   6.434  0.2492  0.2689 -0.2349
 5162TIP3    H136977   4.534   1.572   6.395  0.0899  0.5701 -0.9634
 5162TIP3    H236978   4.476   1.711   6.379  1.2131  1.3408  1.2889
 5163TIP3   OH236979   3.025   5.165   2.300 -0.1231  0.0395 -0.2022
 5163TIP3    H136980   2.940   5.193   2.334  0.2640  1.3011 -0.2506
 5163TIP3    H236981   3.017   5.069   2.294 -1.6800  0.1552 -0.5872
 5164TIP3   OH236982   3.191   2.097   2.559  0.1372  0.4484  0.1646
 5164TIP3    H136983   3.196   2.061   2.470 -0.0014 -0.0173  0.3411
 5164TIP3    H236984   3.103   2.132   2.565 -0.0387 -0.0057  0.2956
 5165TIP3   OH236985   0.452   0.905  13.337 -0.0734  0.6726 -0.5105
 5165TIP3    H136986   0.462   0.993  13.300 -0.5230  0.7388 -0.4887
 5165TIP3    H236987   0.435   0.921  13.430  0.0715  0.5531 -0.4636
 5166TIP3   OH236988   5.465   2.549  15.973 -0.5217  0.3916 -0.3709
 5166TIP3    H136989   5.399   2.614  15.950 -0.1550  0.9489  0.1288
 5166TIP3    H236990   5.543   2.577  15.925 -0.6933 -0.3807 -1.1255
 5167TIP3   OH236991   1.656   4.158   0.575  0.0479  0.8230 -0.3638
 5167TIP3    H136992   1.641   4.105   0.497 -0.4980  0.0459  0.2649
 5167TIP3    H236993   1.679   4.095   0.643 -0.2675  1.4252  0.3097
 5168TIP3   OH236994   2.429   5.952   4.657 -0.4519  0.7668  0.2206
 5168TIP3    H136995   2.337   5.938   4.638 -0.5008  0.3118  0.7589
 5168TIP3    H236996   2.471   5.869   4.633 -0.4607  0.3155  1.6777
 5169TIP3   OH236997   3.579   0.815   2.108  1.0101 -0.6827 -0.3600
 5169TIP3    H136998   3.673   0.794   2.106  1.2993  0.4471  0.3479
 5169TIP3    H236999   3.566   0.874   2.035  0.7493 -1.1970 -0.7335
 5170TIP3   OH237000   1.236   5.176  11.943 -0.1087  0.7685 -0.3179
 5170TIP3    H137001   1.163   5.215  11.992  0.3794  1.2302  0.0543
 5170TIP3    H237002   1.221   5.082  11.949 -0.4272  0.8421  0.1411
 5171TIP3   OH237003   3.230   4.472   0.174 -0.6316 -1.1413 -0.2663
 5171TIP3    H137004   3.179   4.413   0.230  0.0394 -0.6060  0.9433
 5171TIP3    H237005   3.176   4.551   0.167 -0.0365 -0.5839  0.9948
 5172TIP3   OH237006   6.664   2.994  16.089  0.0508  0.4643 -0.3470
 5172TIP3    H137007   6.650   2.922  16.150  0.4372  1.8241  1.4203
 5172TIP3    H237008   6.660   2.953  16.002 -2.1609 -1.2664  0.4783
 5173TIP3   OH237009   6.281   1.245  11.183 -0.4647  0.3291  0.1264
 5173TIP3    H137010   6.202   1.278  11.225 -1.7683 -0.8399 -1.2757
 5173TIP3    H237011   6.249   1.182  11.119  1.6950 -1.2077  0.4492
 5174TIP3   OH237012   3.081   0.479   2.983 -0.2165 -0.8064  0.2941
 5174TIP3    H137013   3.081   0.574   2.971  0.1883 -0.6735  1.2378
 5174TIP3    H237014   3.030   0.446   2.910 -2.2798  0.3108  1.1367
 5175TIP3   OH237015   1.771   1.027  15.831  0.5663  1.2497 -0.0256
 5175TIP3    H137016   1.781   1.099  15.893 -0.9725 -0.0068  1.7890
 5175TIP3    H237017   1.861   0.998  15.815  1.0069  0.9847  2.4572
 5176TIP3   OH237018   3.081   1.003   3.398 -0.0103  0.8055 -0.3488
 5176TIP3    H137019   3.112   0.916   3.374 -0.2041  0.6762 -0.1377
 5176TIP3    H237020   3.052   0.994   3.488  0.9395  1.3468  0.0248
 5177TIP3   OH237021   5.014   4.073  16.368  0.2814  0.7991 -0.2809
 5177TIP3    H137022   5.026   3.988  16.325  0.7394  0.4074  0.5933
 5177TIP3    H237023   5.069   4.133  16.317  0.1886  0.5179 -0.7257
 5178TIP3   OH237024   2.987   1.251   4.295  0.2216  0.5579  0.1010
 5178TIP3    H137025   2.961   1.161   4.315 -2.5032  0.5537 -2.6097
 5178TIP3    H237026   2.958   1.302   4.370  2.4863 -0.8212  2.0295
 5179TIP3   OH237027   0.226   5.096   4.976 -0.2162 -0.3340  0.2290
 5179TIP3    H137028   0.302   5.048   5.008  0.8133  0.9126 -0.2556
 5179TIP3    H237029   0.196   5.147   5.052  1.0190  1.1045 -0.1831
 5180TIP3   OH237030   3.752   5.635  14.119  0.0189 -0.0972 -0.5306
 5180TIP3    H137031   3.803   5.716  14.130 -0.0436 -0.0739 -0.4063
 5180TIP3    H237032   3.705   5.648  14.037 -1.6062  0.8901  0.4848
 5181TIP3   OH237033   6.480   0.285  15.431 -0.0510 -0.0174  0.3757
 5181TIP3    H137034   6.493   0.362  15.486 -0.0614 -0.1945  0.6240
 5181TIP3    H237035   6.542   0.220  15.464  0.1489 -0.0270 -0.0069
 5182TIP3   OH237036   6.574   4.246  10.716  0.1716  0.0385 -0.0340
 5182TIP3    H137037   6.509   4.273  10.782 -1.1955 -0.0385 -1.3028
 5182TIP3    H237038   6.529   4.178  10.665  0.0886  2.0639 -2.8694
 5183TIP3   OH237039   3.701   4.451  12.339 -0.0050  0.1869 -0.3074
 5183TIP3    H137040   3.679   4.524  12.281  1.1147 -0.5056 -1.6518
 5183TIP3    H237041   3.627   4.391  12.332  1.2669 -1.2407 -3.3414
 5184TIP3   OH237042   0.145   6.049   5.210 -0.0631 -0.4243 -0.0935
 5184TIP3    H137043   0.232   6.089   5.213  0.5511 -1.7709  1.9353
 5184TIP3    H237044   0.085   6.123   5.203  1.1296  0.7314  1.3189
 5185TIP3   OH237045   6.754   0.921   0.267  0.0884  0.6011  0.1326
 5185TIP3    H137046   6.764   0.904   0.361 -2.9737 -0.6480  0.3508
 5185TIP3    H237047   6.722   1.011   0.263  0.5491  0.7726  0.2491
 5186TIP3   OH237048   4.878   2.924   2.325  0.6201  0.7809 -0.6295
 5186TIP3    H137049   4.942   2.993   2.309 -0.4139  2.6350  2.3488
 5186TIP3    H237050   4.901   2.889   2.411 -0.2929 -1.0227 -1.0585
 5187TIP3   OH237051   5.353   3.580  11.379 -0.1627  0.6137 -0.2887
 5187TIP3    H137052   5.275   3.546  11.336  0.7684 -1.9944 -0.1470
 5187TIP3    H237053   5.324   3.602  11.468 -0.7026 -0.6890 -0.1153
 5188TIP3   OH237054   1.512   2.331  13.935  0.1139 -0.7545  0.0743
 5188TIP3    H137055   1.437   2.384  13.906  1.0873 -0.2923 -1.7794
 5188TIP3    H237056   1.548   2.378  14.010 -1.2833 -0.8606  0.8467
 5189TIP3   OH237057   1.247   2.516   3.393  0.5615  0.3010 -0.2550
 5189TIP3    H137058   1.169   2.500   3.338 -0.2661  2.4556  0.1945
 5189TIP3    H237059   1.295   2.585   3.346  1.3104  0.1982  0.3471
 5190TIP3   OH237060   2.889   1.611  14.837 -0.1591 -0.0986 -0.0810
 5190TIP3    H137061   2.896   1.700  14.801  0.9254  0.0410  0.4612
 5190TIP3    H237062   2.830   1.621  14.912 -0.6603  0.0104 -0.4796
 5191TIP3   OH237063   4.949   2.694   2.636 -0.6665 -0.6209 -0.0207
 5191TIP3    H137064   5.002   2.748   2.695  0.3897 -1.0737 -0.5233
 5191TIP3    H237065   4.861   2.730   2.642 -0.2808  0.2163  0.7701
 5192TIP3   OH237066   4.205   2.053   0.380 -0.5573  0.4763 -0.0183
 5192TIP3    H137067   4.214   2.139   0.339 -0.9804  0.5232 -0.0123
 5192TIP3    H237068   4.268   2.055   0.452 -0.8029  0.9082  0.1899
 5193TIP3   OH237069   1.525   6.317  17.020  0.2867 -0.2826  0.3198
 5193TIP3    H137070   1.619   6.328  17.010  0.1723  0.0468 -0.4420
 5193TIP3    H237071   1.507   6.231  16.983  0.5371 -1.1832  2.1745
 5194TIP3   OH237072   5.041   0.176   0.606  0.3379 -0.0197 -0.1474
 5194TIP3    H137073   5.057   0.110   0.674 -1.1785  0.4769  0.7343
 5194TIP3    H237074   5.011   0.125   0.530  0.0903 -0.4292  0.2190
 5195TIP3   OH237075   4.054   1.402  10.573  0.0008 -0.2500 -0.5974
 5195TIP3    H137076   4.142   1.438  10.585  0.0902 -0.5900 -0.1979
 5195TIP3    H237077   4.066   1.307  10.571 -0.4849 -0.3716  0.7916
 5196TIP3   OH237078   5.901   3.248  14.983 -0.5881 -0.1438  0.0704
 5196TIP3    H137079   5.829   3.189  15.004 -0.9278 -0.2291 -1.2485
 5196TIP3    H237080   5.978   3.191  14.978 -0.8685 -0.4360 -0.9390
 5197TIP3   OH237081   4.213   4.254  11.743 -0.5339 -0.5651 -0.1878
 5197TIP3    H137082   4.257   4.291  11.667 -1.7053  1.3990  0.0084
 5197TIP3    H237083   4.214   4.159  11.729 -0.8854 -0.2444 -2.7488
 5198TIP3   OH237084   2.788   0.247   5.143 -0.1946  0.2522 -0.2217
 5198TIP3    H137085   2.696   0.219   5.138  0.0647 -0.6677  0.0366
 5198TIP3    H237086   2.837   0.166   5.155  0.8038  0.5527 -1.9409
 5199TIP3   OH237087   5.519   3.035  16.425 -0.1845 -0.4428 -0.1483
 5199TIP3    H137088   5.540   2.942  16.411  1.8101  0.0069 -0.3480
 5199TIP3    H237089   5.543   3.051  16.516  2.0424  0.4673 -0.8261
 5200TIP3   OH237090   0.730   0.901  16.093 -0.1997 -0.4578 -0.4819
 5200TIP3    H137091   0.767   0.921  16.179 -2.0622  0.7045  0.0803
 5200TIP3    H237092   0.805   0.909  16.033  0.6829  0.8534  0.7342
 5201TIP3   OH237093   5.202   4.239  11.018  0.0728 -1.0070 -0.4365
 5201TIP3    H137094   5.211   4.145  11.036 -1.2702 -1.1730 -0.5470
 5201TIP3    H237095   5.109   4.256  11.026  0.3195  0.3691 -0.2391
 5202TIP3   OH237096   2.006   1.259  13.456  0.2154  0.3336  0.1982
 5202TIP3    H137097   1.914   1.287  13.458  0.5464  1.4109  1.1323
 5202TIP3    H237098   2.054   1.333  13.492  1.4610 -0.2378 -0.2427
 5203TIP3   OH237099   3.170   4.913   2.682 -0.1419  0.4048  0.1586
 5203TIP3    H137100   3.187   4.866   2.764  0.9067 -0.0623 -0.3055
 5203TIP3    H237101   3.208   4.858   2.614 -0.9090  0.8381 -0.6447
 5204TIP3   OH237102   2.195   3.175   2.804  0.1266  0.1551  0.1596
 5204TIP3    H137103   2.126   3.108   2.803  1.0534 -0.8285  0.3597
 5204TIP3    H237104   2.197   3.209   2.715 -1.4401  1.0838  0.4381
 5205TIP3   OH237105   5.140   1.065  15.086 -0.0285 -0.9258  0.0466
 5205TIP3    H137106   5.103   1.095  15.169 -1.7142 -0.4981 -0.8284
 5205TIP3    H237107   5.228   1.103  15.085 -0.8156  1.0700  0.6072
 5206TIP3   OH237108   0.938   6.505  11.513 -0.2358 -0.6876 -0.4639
 5206TIP3    H137109   0.921   6.547  11.429 -4.1074  1.2956  1.0453
 5206TIP3    H237110   0.883   6.427  11.513  0.5819 -1.2894 -0.1022
 5207TIP3   OH237111   1.868   3.652  11.571 -0.1699  0.5698 -0.2138
 5207TIP3    H137112   1.811   3.696  11.634  0.5263  0.5992  0.4118
 5207TIP3    H237113   1.956   3.685  11.592  0.3343 -0.9195  0.0969
 5208TIP3   OH237114   0.844   0.258   4.815 -0.0195 -0.0756  0.6613
 5208TIP3    H137115   0.758   0.278   4.854 -0.0936 -0.7059  0.8358
 5208TIP3    H237116   0.843   0.163   4.803  0.9909 -0.2080  1.4903
 5209TIP3   OH237117   1.548   1.019  13.387  0.0039 -0.2993  0.2216
 5209TIP3    H137118   1.618   0.960  13.358  1.0278  0.1677  1.6081
 5209TIP3    H237119   1.481   0.961  13.424  0.1096 -0.6961 -0.2019
 5210TIP3   OH237120   2.023   1.666   4.194  0.1710 -0.3674  0.0230
 5210TIP3    H137121   2.092   1.704   4.248 -1.1050  0.8317  0.8893
 5210TIP3    H237122   2.044   1.693   4.105  0.6647  0.2154  0.3095
 5211TIP3   OH237123   2.954   6.488   6.226 -0.1218 -0.2541 -0.3031
 5211TIP3    H137124   2.863   6.503   6.200  0.0872  0.1762 -0.8131
 5211TIP3    H237125   2.987   6.574   6.253  0.0817 -0.4408  0.0587
 5212TIP3   OH237126   6.666   0.141  14.714 -0.2892  0.5321 -0.3356
 5212TIP3    H137127   6.676   0.046  14.708  2.0766  0.7314 -0.3865
 5212TIP3    H237128   6.593   0.154  14.775  0.5336 -1.3046  1.1277
 5213TIP3   OH237129   1.970   6.647   4.155  0.8333 -0.0823 -0.1960
 5213TIP3    H137130   1.943   6.576   4.097  0.4379 -0.4073  0.3730
 5213TIP3    H237131   1.975   6.606   4.242  1.1907  0.4473  0.0350
 5214TIP3   OH237132   6.579   0.582  12.757 -0.3426  0.6385 -0.1252
 5214TIP3    H137133   6.501   0.621  12.797 -0.8194  0.8307 -1.1990
 5214TIP3    H237134   6.555   0.571  12.664 -0.2471 -2.2179  0.0902
 5215TIP3   OH237135   6.185   3.033   4.757 -0.4314 -0.1674  0.6750
 5215TIP3    H137136   6.206   3.063   4.845 -1.3710 -0.6542  1.0938
 5215TIP3    H237137   6.093   3.007   4.763 -0.1932 -1.2759 -0.1506
 5216TIP3   OH237138   4.065   0.573   0.977 -0.1383  0.5758 -0.0215
 5216TIP3    H137139   4.111   0.515   1.037 -1.7680 -1.4516 -0.6273
 5216TIP3    H237140   3.999   0.616   1.032 -0.0582  0.5613  0.0876
 5217TIP3   OH237141   5.314   6.302  12.427  0.2849  0.3654  0.3275
 5217TIP3    H137142   5.320   6.358  12.350 -0.3607  0.3860  0.2840
 5217TIP3    H237143   5.220   6.287  12.438  0.3016  1.0735  1.6110
 5218TIP3   OH237144   2.973   3.137  12.675 -0.0310 -0.5154 -0.2510
 5218TIP3    H137145   2.955   3.051  12.638 -1.9290  0.3032 -1.3602
 5218TIP3    H237146   3.015   3.118  12.759 -1.3279 -2.5508  0.0183
 5219TIP3   OH237147   6.559   1.351  13.829  0.1456 -0.0831 -0.4703
 5219TIP3    H137148   6.633   1.291  13.841  0.4525  0.4428  0.3850
 5219TIP3    H237149   6.599   1.432  13.798  0.5206  1.4801  3.4856
 5220TIP3   OH237150   6.772   6.254  15.948 -0.1803  0.1651  0.1023
 5220TIP3    H137151   6.744   6.166  15.974  0.3776 -0.3209 -0.9231
 5220TIP3    H237152   6.736   6.266  15.860  0.4017  0.6553 -0.0744
 5221TIP3   OH237153   0.476   4.890  11.782  0.2991 -0.1508 -0.4945
 5221TIP3    H137154   0.414   4.940  11.730 -0.5008 -0.2008  0.3836
 5221TIP3    H237155   0.457   4.798  11.760 -1.6180 -0.3090  1.5310
 5222TIP3   OH237156   1.414   3.941  11.837  0.4208 -0.3663  0.2456
 5222TIP3    H137157   1.381   3.898  11.915  1.9297  0.2587  1.2597
 5222TIP3    H237158   1.337   3.949  11.780 -0.8392 -0.3252  1.8866
 5223TIP3   OH237159   6.290   2.533  11.966  0.6231  0.5053  0.2547
 5223TIP3    H137160   6.212   2.579  11.935 -0.9003 -0.9168  1.7647
 5223TIP3    H237161   6.359   2.599  11.963 -0.6285  1.8530 -1.0193
 5224TIP3   OH237162   4.811   4.744  12.756 -0.4012 -0.6968  0.2123
 5224TIP3    H137163   4.840   4.766  12.845 -1.1758 -0.3348  0.3870
 5224TIP3    H237164   4.758   4.820  12.729  1.3161  0.0433 -1.2812
 5225TIP3   OH237165   5.347   4.133  14.972 -0.1769  0.2704  0.1163
 5225TIP3    H137166   5.427   4.087  14.945  0.3938  0.4226  1.4627
 5225TIP3    H237167   5.331   4.196  14.901  1.3348  0.7505  0.1600
 5226TIP3   OH237168   5.743   3.399   1.778  0.7772 -0.7106  0.2939
 5226TIP3    H137169   5.834   3.424   1.760  0.9638 -0.8948  0.9588
 5226TIP3    H237170   5.704   3.478   1.816  0.8875 -0.8852  0.7722
 5227TIP3   OH237171   5.984   3.967  16.935 -0.2974  0.7622 -0.1579
 5227TIP3    H137172   6.041   3.892  16.954  1.2153  1.7606 -0.5969
 5227TIP3    H237173   5.999   3.986  16.843 -0.7611  1.5365 -0.0860
 5228TIP3   OH237174   1.586   1.189  15.563  0.3070 -0.3392  0.5662
 5228TIP3    H137175   1.548   1.162  15.480  0.4467  0.3358  0.2769
 5228TIP3    H237176   1.515   1.183  15.626  0.2866 -1.1905  0.4759
 5229TIP3   OH237177   1.168   6.817   3.030  0.0792 -0.0028  0.0310
 5229TIP3    H137178   1.261   6.823   3.054 -0.0215  0.2718  0.3724
 5229TIP3    H237179   1.127   6.779   3.107 -0.1220  0.0764 -0.0377
 5230TIP3   OH237180   3.005   5.977   6.404  0.1730 -0.1713 -0.3573
 5230TIP3    H137181   3.041   6.031   6.474 -0.1280  1.0523 -1.1083
 5230TIP3    H237182   2.923   6.019   6.380 -0.7267 -1.7292 -0.0988
 5231TIP3   OH237183   3.404   2.815   4.770  0.0403  0.1547 -0.0581
 5231TIP3    H137184   3.381   2.824   4.678  1.6478 -1.6841 -0.7097
 5231TIP3    H237185   3.372   2.895   4.811 -0.6095  1.0650 -2.2210
 5232TIP3   OH237186   2.675   5.881   2.211 -0.1669 -0.2845 -0.0428
 5232TIP3    H137187   2.745   5.824   2.242  0.1596  0.4373  0.5869
 5232TIP3    H237188   2.680   5.958   2.268  0.8244  1.3784 -2.2028
 5233TIP3   OH237189   2.698   1.861  14.685 -0.4810 -0.2290 -0.5864
 5233TIP3    H137190   2.690   1.866  14.590  1.5221  1.4508 -0.7436
 5233TIP3    H237191   2.790   1.882  14.702 -0.4825 -1.7976  1.6597
 5234TIP3   OH237192   2.887   2.410  16.952  0.2576  0.3086 -0.0212
 5234TIP3    H137193   2.820   2.354  16.989 -3.2711  2.5012 -2.4487
 5234TIP3    H237194   2.901   2.376  16.863  1.3618  0.7121 -0.0282
 5235TIP3   OH237195   5.451   3.380   1.659  0.0689 -0.2654 -0.0337
 5235TIP3    H137196   5.535   3.388   1.704  0.1486 -0.7862 -0.0896
 5235TIP3    H237197   5.463   3.310   1.595 -0.3821 -0.2917 -0.0976
 5236TIP3   OH237198   2.438   0.957  12.166 -0.4933 -0.5579 -0.3451
 5236TIP3    H137199   2.463   1.048  12.182  0.3736 -0.5186 -1.7245
 5236TIP3    H237200   2.507   0.906  12.208 -0.8126 -0.5834  0.1585
 5237TIP3   OH237201   4.631   0.780   0.072  0.5480  0.0206 -0.1457
 5237TIP3    H137202   4.706   0.826   0.033  0.5007  0.7034  0.5355
 5237TIP3    H237203   4.668   0.698   0.104  0.6027 -0.5182 -1.5294
 5238TIP3   OH237204   4.368   4.565  13.972  0.1613 -0.0568 -0.8737
 5238TIP3    H137205   4.348   4.584  13.880 -1.2822  1.0186 -0.3753
 5238TIP3    H237206   4.459   4.535  13.971 -0.5463 -2.5523 -2.9634
 5239TIP3   OH237207   1.707   3.118   3.754  0.3757  0.5621  0.3964
 5239TIP3    H137208   1.655   3.193   3.782 -0.5410  0.1210 -0.0928
 5239TIP3    H237209   1.696   3.114   3.659  0.5583 -0.0774  0.3931
 5240TIP3   OH237210   3.191   4.542   2.533 -0.3868 -0.1324  0.0372
 5240TIP3    H137211   3.189   4.626   2.487 -0.7963  0.2071  0.6700
 5240TIP3    H237212   3.169   4.478   2.466  1.8034  0.0285 -0.9353
 5241TIP3   OH237213   4.454   0.012  16.027 -0.0959  0.4373 -0.0920
 5241TIP3    H137214   4.416   0.048  15.947 -0.6266  1.3441  0.5374
 5241TIP3    H237215   4.407   0.058  16.097  1.3317  0.6974  0.7196
 5242TIP3   OH237216   4.234   2.473  15.586  0.5144  0.3391 -0.9320
 5242TIP3    H137217   4.228   2.380  15.566  0.3522  0.6960 -2.6884
 5242TIP3    H237218   4.318   2.500  15.549 -0.2381  1.2369 -2.0564
 5243TIP3   OH237219   5.799   2.154  15.186 -0.4267 -0.1765  0.2673
 5243TIP3    H137220   5.750   2.209  15.125 -0.0713 -0.4743 -0.2955
 5243TIP3    H237221   5.746   2.152  15.266 -0.7618  0.4380  0.0595
 5244TIP3   OH237222   6.114   3.493  17.092 -0.4604  0.0731  0.3202
 5244TIP3    H137223   6.189   3.434  17.103 -1.5335 -1.1458  1.6297
 5244TIP3    H237224   6.046   3.439  17.052 -1.0600  0.7951  0.3342
 5245TIP3   OH237225   5.036   1.345  12.988 -0.2124  0.1187 -0.1640
 5245TIP3    H137226   5.125   1.313  12.973 -0.7356 -2.6910  2.0430
 5245TIP3    H237227   5.046   1.415  13.051  0.4399 -0.1699  0.0614
 5246TIP3   OH237228   0.055   2.549   4.791 -0.3986 -0.1694  0.0039
 5246TIP3    H137229   0.087   2.639   4.799  0.5337 -0.5973  1.5523
 5246TIP3    H237230  -0.012   2.541   4.860 -1.5459 -0.2493 -1.0889
 5247TIP3   OH237231   4.631   2.194  16.679  0.5343  0.1914  0.0863
 5247TIP3    H137232   4.654   2.284  16.655 -2.0907  0.7902 -0.4419
 5247TIP3    H237233   4.538   2.198  16.700 -0.3455 -2.8553 -2.4983
 5248TIP3   OH237234   2.872   3.667   3.228 -0.2080 -0.0059 -0.4522
 5248TIP3    H137235   2.804   3.677   3.161  0.7273  0.4723 -1.3470
 5248TIP3    H237236   2.865   3.748   3.280 -0.8039 -0.2914 -0.0697
 5249TIP3   OH237237   5.559   4.429   1.318  0.6143  0.0413 -0.1015
 5249TIP3    H137238   5.634   4.479   1.286  0.3790 -0.0967 -0.9078
 5249TIP3    H237239   5.496   4.432   1.246 -0.1277  0.0902  0.5333
 5250TIP3   OH237240   0.950   5.675  16.999  0.3496  0.0007  0.9993
 5250TIP3    H137241   1.027   5.619  16.986 -1.2010 -2.0480  0.0823
 5250TIP3    H237242   0.938   5.676  17.094  1.4645  0.3331  1.1556
 5251TIP3   OH237243   2.081   5.763  15.623 -0.5691 -0.3756  0.1962
 5251TIP3    H137244   2.141   5.689  15.635 -0.5887 -0.9590 -2.5660
 5251TIP3    H237245   1.994   5.724  15.622 -0.7579  0.0120  0.9038
 5252TIP3   OH237246   3.954   3.374   5.885 -0.0442 -0.4564  0.2516
 5252TIP3    H137247   3.913   3.289   5.897 -0.1996 -0.4036  0.0950
 5252TIP3    H237248   3.882   3.437   5.895  0.1261 -0.3248  0.6966
 5253TIP3   OH237249   2.314   2.676   5.147  0.4200 -0.0227 -0.2299
 5253TIP3    H137250   2.358   2.599   5.111 -0.5182 -0.9573  0.6015
 5253TIP3    H237251   2.278   2.721   5.070  1.9599  0.2524 -0.8353
 5254TIP3   OH237252   3.160   2.237   1.923 -0.0436  0.0127 -0.1646
 5254TIP3    H137253   3.209   2.192   1.854 -2.8811 -2.3154 -0.8855
 5254TIP3    H237254   3.145   2.170   1.990 -0.3569  1.2611  1.0713
 5255TIP3   OH237255   2.493   0.657  10.953  0.0482  0.3615 -0.3743
 5255TIP3    H137256   2.433   0.666  10.879  1.4594 -1.3030 -1.8305
 5255TIP3    H237257   2.436   0.644  11.029 -1.4510  2.1218 -1.1261
 5256TIP3   OH237258   1.195   4.225   2.647  0.5912 -0.4752  0.0193
 5256TIP3    H137259   1.153   4.293   2.700  0.2070 -1.1284  0.5585
 5256TIP3    H237260   1.173   4.143   2.691  1.6193 -0.9010 -0.2433
 5257TIP3   OH237261   1.768   4.571   0.186 -0.0817 -0.3681  0.1141
 5257TIP3    H137262   1.707   4.642   0.166 -0.0330  0.3855  2.3161
 5257TIP3    H237263   1.755   4.555   0.280  1.3217 -1.9427  0.0837
 5258TIP3   OH237264   3.415   4.749   1.823 -0.3459  0.2023  0.3643
 5258TIP3    H137265   3.336   4.696   1.810 -1.3662  1.5353  0.9032
 5258TIP3    H237266   3.474   4.693   1.874  0.1858 -1.8116 -2.2490
 5259TIP3   OH237267   3.911   2.401  16.412 -0.2751 -0.6352  0.1849
 5259TIP3    H137268   3.892   2.333  16.476  1.8491 -0.2838  1.2795
 5259TIP3    H237269   3.841   2.465  16.423 -0.9544 -1.4615  0.8405
 5260TIP3   OH237270   5.652   0.377  13.205  0.1994 -0.1459  0.6728
 5260TIP3    H137271   5.702   0.393  13.285  0.1117  0.3932  0.6211
 5260TIP3    H237272   5.587   0.311  13.230 -1.1017  1.3979  1.5820
 5261TIP3   OH237273   1.585   4.298  12.616 -0.0569 -0.2060 -0.0328
 5261TIP3    H137274   1.680   4.300  12.619 -0.0673  1.4709  2.6190
 5261TIP3    H237275   1.563   4.328  12.528  1.8349 -1.1711 -0.8865
 5262TIP3   OH237276   3.700   4.494   0.168  0.9241  0.0394  0.0802
 5262TIP3    H137277   3.772   4.482   0.105  0.3714  0.4642 -0.6404
 5262TIP3    H237278   3.628   4.443   0.131  0.6825  0.0582  0.5259
 5263TIP3   OH237279   4.648   6.792  13.893 -0.0977  0.4710  0.2688
 5263TIP3    H137280   4.730   6.747  13.915 -0.5863 -0.5883 -0.0458
 5263TIP3    H237281   4.626   6.762  13.805 -0.6818  0.9741  0.2344
 5264TIP3   OH237282   5.416   3.431  13.349 -0.7153  0.6348 -0.2181
 5264TIP3    H137283   5.377   3.372  13.413  1.1486  0.8068  1.1721
 5264TIP3    H237284   5.396   3.518  13.382 -0.4739  0.7351 -0.3364
 5265TIP3   OH237285   4.278   3.198  11.167  0.4706  0.2757  0.0579
 5265TIP3    H137286   4.330   3.262  11.216  1.6052 -0.6872  0.1358
 5265TIP3    H237287   4.307   3.209  11.076  0.5421 -0.0116  0.0462
 5266TIP3   OH237288   2.213   3.406   2.319 -0.1586 -0.3392 -0.3571
 5266TIP3    H137289   2.152   3.349   2.272 -0.4969  0.5500 -1.0248
 5266TIP3    H237290   2.172   3.492   2.316  1.1753  0.3008 -0.8761
 5267TIP3   OH237291   2.969   1.982  14.332  0.4411  0.0490  0.0110
 5267TIP3    H137292   2.975   1.938  14.248  0.2489  1.0114 -0.5179
 5267TIP3    H237293   2.875   1.991  14.349  0.4711 -0.5944  0.5841
 5268TIP3   OH237294   0.037   1.392   3.119 -0.3400  0.0226 -0.1772
 5268TIP3    H137295   0.030   1.488   3.124  2.8020  0.3808 -0.1796
 5268TIP3    H237296   0.127   1.377   3.089 -0.5030 -2.9567  0.5569
 5269TIP3   OH237297   3.104   5.950   0.517 -0.1633 -0.1208 -0.3956
 5269TIP3    H137298   3.144   5.864   0.506  0.3390  0.1556 -0.8113
 5269TIP3    H237299   3.021   5.944   0.470  0.7506  0.2079 -2.1381
 5270TIP3   OH237300   3.404   5.271  15.760  0.1287  0.0643 -0.3981
 5270TIP3    H137301   3.309   5.273  15.774  0.2416 -0.7124  0.6400
 5270TIP3    H237302   3.420   5.336  15.691 -1.2988 -0.7740 -1.5714
 5271TIP3   OH237303   6.368   4.185   4.471 -0.3100  0.4052  0.4419
 5271TIP3    H137304   6.429   4.121   4.435  1.3285  0.9052  2.1539
 5271TIP3    H237305   6.423   4.245   4.522 -2.3566 -0.1994  3.6598
 5272TIP3   OH237306   3.361   2.952   1.415 -0.6033  0.2975  0.7041
 5272TIP3    H137307   3.446   2.929   1.453  0.6902  1.2520 -1.4359
 5272TIP3    H237308   3.331   3.027   1.468  1.2776  1.7723 -0.1890
 5273TIP3   OH237309   6.031   4.339   4.813  0.0669 -0.1128 -0.5450
 5273TIP3    H137310   6.078   4.418   4.842  1.1350 -0.4866 -1.1816
 5273TIP3    H237311   6.100   4.278   4.787 -0.7809 -0.6042 -1.7526
 5274TIP3   OH237312   0.535   3.671  11.439 -0.1804  0.3517 -0.1656
 5274TIP3    H137313   0.498   3.619  11.368 -0.4807  1.1012 -0.5791
 5274TIP3    H237314   0.606   3.618  11.474 -1.4105 -0.9824  0.4193
 5275TIP3   OH237315   1.650   3.737  15.960 -0.2207  0.0580 -0.2287
 5275TIP3    H137316   1.741   3.715  15.983 -0.4669  0.3413  1.1179
 5275TIP3    H237317   1.657   3.782  15.876  1.1827  2.2050  0.9255
 5276TIP3   OH237318   6.267   1.416  11.884 -0.1001  0.4802 -0.0165
 5276TIP3    H137319   6.329   1.480  11.920  0.1470  0.0992  0.2481
 5276TIP3    H237320   6.260   1.349  11.952 -1.2000  0.7654  0.1761
 5277TIP3   OH237321   0.431   2.387   0.302  0.4465 -0.0949 -0.2414
 5277TIP3    H137322   0.368   2.373   0.232  0.6011 -0.2402 -0.3545
 5277TIP3    H237323   0.395   2.458   0.355  0.9305  0.8723 -1.1825
 5278TIP3   OH237324   1.190   1.577  14.921 -0.4093 -0.5210  0.4052
 5278TIP3    H137325   1.285   1.574  14.905 -0.3830  0.5657  0.2978
 5278TIP3    H237326   1.159   1.490  14.897  0.1380 -0.0477 -2.3627
 5279TIP3   OH237327   1.262   5.105  13.151  0.2583 -0.1974  0.0811
 5279TIP3    H137328   1.253   5.147  13.065 -0.9440 -0.3109  0.1284
 5279TIP3    H237329   1.356   5.099  13.166  0.5083 -1.0783 -1.6677
 5280TIP3   OH237330   4.826   2.634   3.622  0.2479 -0.3234  0.2022
 5280TIP3    H137331   4.827   2.614   3.529 -0.9872  0.2730  0.0356
 5280TIP3    H237332   4.780   2.561   3.662 -3.7767  1.6101 -0.3408
 5281TIP3   OH237333   2.680   6.580  17.076 -0.5987 -0.0381  0.1734
 5281TIP3    H137334   2.600   6.543  17.040  0.2173 -0.7404 -0.9753
 5281TIP3    H237335   2.714   6.637  17.007  0.3503 -0.4273  0.3010
 5282TIP3   OH237336   3.396   1.019  14.724  0.2214  0.0069  0.2656
 5282TIP3    H137337   3.344   1.093  14.692  0.4896  0.0974  0.0399
 5282TIP3    H237338   3.407   1.037  14.818  1.5283  1.0201 -0.0521
 5283TIP3   OH237339   3.272   2.680  15.404  0.0630 -0.1549 -0.1453
 5283TIP3    H137340   3.323   2.702  15.482  1.5400  0.0303 -1.1381
 5283TIP3    H237341   3.322   2.609  15.362 -1.8908 -1.8664  0.2352
 5284TIP3   OH237342   3.077   5.145  15.020  0.1807  0.3521 -1.0174
 5284TIP3    H137343   3.048   5.231  15.051 -1.3758 -0.0492 -1.2858
 5284TIP3    H237344   2.996   5.096  15.006  1.0183 -1.9361  1.2228
 5285TIP3   OH237345   3.414   6.337  12.681 -0.0971 -0.1001  0.1152
 5285TIP3    H137346   3.396   6.244  12.666 -2.0413  0.2148  0.2702
 5285TIP3    H237347   3.475   6.339  12.755 -0.1512 -1.2330  0.1989
 5286TIP3   OH237348   1.082   3.349   1.633 -0.3458 -0.2429  0.2207
 5286TIP3    H137349   1.048   3.401   1.706  0.4202  1.2694 -0.4348
 5286TIP3    H237350   1.005   3.310   1.593 -1.3853  2.7183 -0.9552
 5287TIP3   OH237351   1.977   0.937   4.946  0.0214  0.2802 -0.6437
 5287TIP3    H137352   2.030   0.859   4.928  0.0473  0.3416 -0.8395
 5287TIP3    H237353   1.948   0.966   4.859 -1.4362 -0.5158 -0.4453
 5288TIP3   OH237354   0.014   0.552   5.522 -0.8259 -0.6218  0.1862
 5288TIP3    H137355  -0.041   0.500   5.581 -0.4074 -0.1010  1.0554
 5288TIP3    H237356  -0.017   0.529   5.435  1.0466 -4.3483  0.3158
 5289TIP3   OH237357   5.292   5.833  12.760 -0.0588 -0.0711 -0.1612
 5289TIP3    H137358   5.381   5.808  12.783 -0.5854 -0.1025  2.0421
 5289TIP3    H237359   5.238   5.797  12.830 -1.6126  1.4779 -0.4949
 5290TIP3   OH237360   1.179   6.643  12.170 -0.1668  0.1007  0.4772
 5290TIP3    H137361   1.257   6.594  12.196  0.1985  1.1292  1.3810
 5290TIP3    H237362   1.203   6.735  12.181 -1.3458  0.4454  0.3112
 5291TIP3   OH237363   1.910   1.749   3.206  0.5572  0.2991  0.2549
 5291TIP3    H137364   1.974   1.738   3.136 -0.6806  0.2877 -0.9369
 5291TIP3    H237365   1.853   1.672   3.198 -1.1424  1.5432 -0.4676
 5292TIP3   OH237366   3.744   0.707  16.332 -0.4362  0.4648  0.1048
 5292TIP3    H137367   3.720   0.615  16.323  2.3805 -0.4140  0.5672
 5292TIP3    H237368   3.739   0.741  16.243 -1.5680 -0.0658 -0.0623
 5293TIP3   OH237369   4.803   1.616  13.601  0.5950  0.0787 -0.1620
 5293TIP3    H137370   4.764   1.704  13.598  1.3109  0.3890 -1.0954
 5293TIP3    H237371   4.864   1.615  13.527  0.3318 -1.3364 -0.3919
 5294TIP3   OH237372   2.904   5.185   5.805  0.1783  0.4796  0.1485
 5294TIP3    H137373   2.901   5.189   5.900  0.8318  0.3541  0.1787
 5294TIP3    H237374   2.991   5.152   5.785  1.1977  3.2997 -0.5552
 5295TIP3   OH237375   4.615   5.649  16.679 -0.9203  0.6347 -0.2170
 5295TIP3    H137376   4.664   5.701  16.743 -0.0401  1.5696 -1.5636
 5295TIP3    H237377   4.526   5.643  16.714 -0.4817  1.1836  1.0252
 5296TIP3   OH237378   6.647   3.963   2.710 -0.1788  1.0693 -0.2945
 5296TIP3    H137379   6.736   3.979   2.743 -0.7742  3.4335  0.3731
 5296TIP3    H237380   6.660   3.935   2.620  1.2635  1.4052 -0.2147
 5297TIP3   OH237381   6.416   4.015  14.241  0.4786  0.1015 -0.4981
 5297TIP3    H137382   6.454   4.071  14.308 -0.5828  1.8123 -1.2440
 5297TIP3    H237383   6.485   4.004  14.176  0.2575  1.8956 -1.0953
 5298TIP3   OH237384   2.866   5.319  13.185  0.4249  0.1052  0.6332
 5298TIP3    H137385   2.934   5.318  13.253  1.1165  0.3604 -0.0463
 5298TIP3    H237386   2.862   5.228  13.155  1.3246  0.3128 -0.1559
 5299TIP3   OH237387   4.149   4.448  13.158  0.1552  0.8395  0.1080
 5299TIP3    H137388   4.060   4.484  13.166 -0.7864 -1.1555 -0.6143
 5299TIP3    H237389   4.156   4.421  13.067  2.0056  2.0715 -0.1645
 5300TIP3   OH237390   5.612   2.395  14.945  0.1745  0.1682  0.2992
 5300TIP3    H137391   5.697   2.356  14.922 -1.1514 -2.3157 -0.7598
 5300TIP3    H237392   5.551   2.322  14.943 -1.9612  1.8188  1.4286
 5301TIP3   OH237393   0.714   3.859  14.121 -0.5467  0.5134 -0.1309
 5301TIP3    H137394   0.698   3.945  14.082 -0.4930  0.2064 -0.8350
 5301TIP3    H237395   0.780   3.819  14.065 -0.7558 -0.0921  0.0509
 5302TIP3   OH237396   1.771   1.446   2.950  0.3702 -0.2249 -0.1287
 5302TIP3    H137397   1.766   1.446   3.045 -1.9929 -1.4196 -0.1800
 5302TIP3    H237398   1.685   1.478   2.921  1.3578  1.0630 -1.8949
 5303TIP3   OH237399   3.252   5.178  17.044  0.5908 -0.5182  0.0084
 5303TIP3    H137400   3.340   5.216  17.042  0.8572 -1.0421  0.8895
 5303TIP3    H237401   3.211   5.218  17.121 -0.6777  1.2534 -1.5374
 5304TIP3   OH237402   3.025   0.156   6.732  0.1847  0.5660 -0.4586
 5304TIP3    H137403   3.030   0.085   6.797  1.0050  0.1405 -0.9664
 5304TIP3    H237404   2.988   0.114   6.654  0.1059  0.8438 -0.5699
 5305TIP3   OH237405   1.702   5.666  13.534 -0.2926 -0.0989 -0.0517
 5305TIP3    H137406   1.724   5.575  13.510 -0.0112 -0.2395  0.7209
 5305TIP3    H237407   1.699   5.665  13.629 -0.1643  0.7436 -0.0388
 5306TIP3   OH237408   5.218   0.746   5.588 -0.1179  0.1364  0.4478
 5306TIP3    H137409   5.161   0.811   5.629  0.6886  0.4022  1.2005
 5306TIP3    H237410   5.256   0.698   5.662 -0.6160 -1.1299 -0.0968
 5307TIP3   OH237411   1.329   5.981   4.269 -0.0832 -0.3365  0.3440
 5307TIP3    H137412   1.397   5.915   4.284  0.2713 -0.2672 -0.8535
 5307TIP3    H237413   1.247   5.935   4.287  0.2554 -0.4807  1.6008
 5308TIP3   OH237414   2.016   5.208   3.766 -0.4817  0.2259  0.3494
 5308TIP3    H137415   2.044   5.213   3.858  1.3669  0.6449 -0.2141
 5308TIP3    H237416   1.935   5.260   3.764  0.3448  1.6356  1.4262
 5309TIP3   OH237417   2.471   3.590  12.444  0.4461  0.0617  0.4264
 5309TIP3    H137418   2.388   3.625  12.412  0.7182 -0.7293 -1.2612
 5309TIP3    H237419   2.515   3.555  12.366  2.4308  0.5634  1.2444
 5310TIP3   OH237420   0.665   2.751   5.218 -0.2971  0.0830 -0.2475
 5310TIP3    H137421   0.712   2.668   5.221  0.9050  0.7247  3.1811
 5310TIP3    H237422   0.602   2.745   5.291 -3.8352  0.3233 -2.9975
 5311TIP3   OH237423   5.379   1.214  12.171 -0.2171  0.0672  0.1395
 5311TIP3    H137424   5.287   1.194  12.184 -0.1725  0.0066  0.3628
 5311TIP3    H237425   5.425   1.164  12.238  0.0352 -0.4115 -0.3786
 5312TIP3   OH237426   6.770   0.264  10.820 -0.3154 -0.3285 -0.0572
 5312TIP3    H137427   6.760   0.226  10.733  0.6085  1.6219 -1.0607
 5312TIP3    H237428   6.854   0.230  10.851  0.1561  0.2862 -0.6408
 5313TIP3   OH237429   0.994   5.475  12.875  0.3771 -0.2705 -0.0848
 5313TIP3    H137430   1.055   5.548  12.882  0.1876 -0.2191  1.4583
 5313TIP3    H237431   0.997   5.433  12.961 -1.0133 -0.8698 -0.2938
 5314TIP3   OH237432   4.045   6.508  16.763  0.3585  0.4955 -0.2860
 5314TIP3    H137433   4.033   6.596  16.799  0.2388 -0.4648  2.2161
 5314TIP3    H237434   4.134   6.483  16.787  0.6574  0.1748 -1.6222
 5315TIP3   OH237435   5.715   3.569  11.386  0.0037  0.0855 -0.6418
 5315TIP3    H137436   5.728   3.475  11.391 -0.7314 -0.0397 -1.0823
 5315TIP3    H237437   5.771   3.597  11.313 -0.0325 -0.0499 -0.7205
 5316TIP3   OH237438   1.577   4.347   5.899 -0.2112 -0.2358 -0.2412
 5316TIP3    H137439   1.589   4.283   5.828 -0.4571  0.0041 -0.4986
 5316TIP3    H237440   1.491   4.385   5.883  0.7871  1.7327 -1.3827
 5317TIP3   OH237441   6.138   3.775  17.050  0.2808  0.1496 -0.3527
 5317TIP3    H137442   6.213   3.812  17.096  0.8060 -1.5783  0.2718
 5317TIP3    H237443   6.146   3.681  17.064 -0.8317 -0.2415 -2.0743
 5318TIP3   OH237444   5.997   2.159  15.704 -0.4422  0.5303  0.1086
 5318TIP3    H137445   6.030   2.103  15.774 -0.8859 -0.5908 -0.5564
 5318TIP3    H237446   6.073   2.176  15.648 -0.5173 -0.2653 -0.2457
 5319TIP3   OH237447   6.409   2.953   4.984 -0.0763  0.2533 -0.6944
 5319TIP3    H137448   6.339   2.888   4.988 -0.0153  0.1817 -0.7974
 5319TIP3    H237449   6.489   2.902   4.973  0.2262  0.2058  1.3845
 5320TIP3   OH237450   4.334   4.864  13.727 -0.2553 -0.0390 -0.3230
 5320TIP3    H137451   4.294   4.831  13.647  0.5720 -1.4244 -0.2079
 5320TIP3    H237452   4.366   4.951  13.704 -1.9432  0.4672 -0.8432
 5321TIP3   OH237453   1.531   5.909  13.039 -0.6005  0.2490  0.2976
 5321TIP3    H137454   1.443   5.898  13.077 -1.0092  3.1264  0.3991
 5321TIP3    H237455   1.539   6.003  13.025  2.7663  0.1638  0.9024
 5322TIP3   OH237456   0.416   3.912   1.930  0.4478 -0.1622  0.1469
 5322TIP3    H137457   0.378   3.994   1.962  1.5346 -0.2379  1.7911
 5322TIP3    H237458   0.495   3.900   1.983  0.7134 -1.9042 -0.5558
 5323TIP3   OH237459   3.907   0.442  15.743  0.7558 -0.0303 -0.1499
 5323TIP3    H137460   3.999   0.442  15.717  0.1560 -1.6411 -2.5528
 5323TIP3    H237461   3.900   0.516  15.804  3.5026  0.4365 -0.2477
 5324TIP3   OH237462   0.617   4.123   4.550 -0.0076 -0.1462  0.1893
 5324TIP3    H137463   0.685   4.075   4.596  2.0597  1.4743 -1.0206
 5324TIP3    H237464   0.607   4.077   4.467 -0.6058 -0.5094  0.4492
 5325TIP3   OH237465   1.636   1.944  16.915  0.4889 -0.0508  0.1694
 5325TIP3    H137466   1.623   1.959  17.009 -0.1381  0.8584 -0.0467
 5325TIP3    H237467   1.553   1.968  16.875  1.3441  1.4490 -0.8090
 5326TIP3   OH237468   5.909   4.781  11.391 -0.5740  0.1712 -0.2002
 5326TIP3    H137469   5.893   4.875  11.381  0.4857  0.2790 -1.1219
 5326TIP3    H237470   5.967   4.759  11.318  0.4875 -0.8844  0.9164
 5327TIP3   OH237471   5.660   0.937  12.969  0.4446  0.1593 -0.5412
 5327TIP3    H137472   5.645   0.919  13.062 -1.4249  0.8946 -0.6593
 5327TIP3    H237473   5.755   0.935  12.960  0.6870  0.2421  1.4334
 5328TIP3   OH237474   5.035   0.944   5.661  0.2135 -0.1220 -0.4533
 5328TIP3    H137475   5.112   1.001   5.665  0.5531 -0.5690  2.7722
 5328TIP3    H237476   4.961   1.001   5.679  0.0579 -0.0778 -1.2078
 5329TIP3   OH237477   5.688   2.068  16.098 -0.9763  0.2109 -0.1692
 5329TIP3    H137478   5.627   2.142  16.103 -0.4385  0.9065 -2.6559
 5329TIP3    H237479   5.749   2.083  16.170 -0.7261  2.3725 -0.7780
 5330TIP3   OH237480   3.198   1.374  15.351  0.8692 -0.1778  0.3647
 5330TIP3    H137481   3.176   1.414  15.435 -1.0483  1.5081 -0.8592
 5330TIP3    H237482   3.125   1.396  15.293  1.5207 -2.3462 -1.4472
 5331TIP3   OH237483   4.311   1.730   5.552 -0.2100 -0.5180  0.1110
 5331TIP3    H137484   4.376   1.710   5.619  0.8278  1.2759 -0.3043
 5331TIP3    H237485   4.227   1.725   5.599  0.2717 -1.8693  0.8928
 5332TIP3   OH237486   1.128   4.412   0.581 -0.0593  0.6597  0.0446
 5332TIP3    H137487   1.056   4.379   0.635  0.9511 -1.2536  0.3016
 5332TIP3    H237488   1.205   4.405   0.637  0.7251  0.3210 -1.0520
 5333TIP3   OH237489   1.991   2.720  12.628  0.0207 -0.2172  0.0174
 5333TIP3    H137490   2.020   2.635  12.661  0.0634  0.1957  1.0665
 5333TIP3    H237491   1.929   2.751  12.693  1.8392  1.6666  0.9579
 5334TIP3   OH237492   5.630   2.582   2.198  0.1804 -0.0663  0.2265
 5334TIP3    H137493   5.619   2.545   2.286 -0.7153  1.1600  0.6460
 5334TIP3    H237494   5.708   2.637   2.205 -0.1987  0.4546  0.4091
 5335TIP3   OH237495   0.062   1.459   4.469 -0.6839  0.4418  0.3664
 5335TIP3    H137496   0.099   1.446   4.382 -1.2116 -1.2706  0.3660
 5335TIP3    H237497  -0.030   1.479   4.453 -0.7119  0.4382  0.5246
 5336TIP3   OH237498   0.067   5.926  17.160 -0.0319 -0.4693  0.1085
 5336TIP3    H137499   0.161   5.946  17.159 -0.2913  0.8165  0.0982
 5336TIP3    H237500   0.033   5.974  17.236 -0.6030 -1.3484  0.4246
 5337TIP3   OH237501   3.305   3.161  15.029  0.0675  0.2505  0.3635
 5337TIP3    H137502   3.263   3.093  15.083  0.7323  0.2514  0.9131
 5337TIP3    H237503   3.256   3.161  14.947 -0.1810 -0.6406  0.4975
 5338TIP3   OH237504   0.436   0.000   0.457  0.0630  0.2832  0.4263
 5338TIP3    H137505   0.503   0.065   0.436  1.0421 -0.5319  0.9511
 5338TIP3    H237506   0.453  -0.023   0.548  0.3747 -1.4364 -0.0460
 5339TIP3   OH237507   2.629   6.791   0.707  0.3518 -0.2946  0.5500
 5339TIP3    H137508   2.561   6.853   0.732 -0.0309  0.1003 -1.3495
 5339TIP3    H237509   2.671   6.767   0.790 -0.4066  1.4131  1.4758
 5340TIP3   OH237510   1.094   4.990   2.430  0.0882  0.1906 -0.5135
 5340TIP3    H137511   1.131   4.938   2.502 -1.6674 -0.3812  0.0294
 5340TIP3    H237512   1.125   5.079   2.446  1.0421 -0.2158  0.0183
 5341TIP3   OH237513   6.688   5.943   2.184 -0.4467  0.5230  0.3155
 5341TIP3    H137514   6.761   5.884   2.164 -1.4087 -1.7400  2.7995
 5341TIP3    H237515   6.707   5.976   2.271 -0.4436  3.2244 -0.6406
 5342TIP3   OH237516   0.337   5.980  17.138  0.4151 -0.1079 -0.7366
 5342TIP3    H137517   0.395   5.952  17.067  2.5402  1.1208  0.4185
 5342TIP3    H237518   0.373   5.939  17.217 -1.0641 -0.3121 -0.1256
 5343TIP3   OH237519   1.731   4.064  16.379  0.7084  0.6292  0.2261
 5343TIP3    H137520   1.678   4.014  16.317  0.7982  3.0223 -1.9685
 5343TIP3    H237521   1.819   4.028  16.369  0.5666  0.4606 -0.4718
 5344TIP3   OH237522   3.863   4.441   6.693 -0.3204  0.0579 -0.6141
 5344TIP3    H137523   3.873   4.397   6.778  0.4726  1.3796  0.0128
 5344TIP3    H237524   3.935   4.408   6.640  0.5045  0.8249 -0.0176
 5345TIP3   OH237525   5.859   1.418  15.570  0.8215 -0.1209 -1.0786
 5345TIP3    H137526   5.774   1.449  15.601  1.0736 -0.3064 -0.1695
 5345TIP3    H237527   5.864   1.327  15.599  1.9227  0.2982  0.1694
 5346TIP3   OH237528   1.311   5.603  13.915 -0.8628 -0.2569 -0.3064
 5346TIP3    H137529   1.228   5.578  13.955 -1.5950 -0.7114 -2.0144
 5346TIP3    H237530   1.324   5.694  13.942 -2.3087  0.0662 -0.6001
 5347TIP3   OH237531   6.801   0.354  13.785 -0.8894  0.4116 -0.0095
 5347TIP3    H137532   6.896   0.344  13.782 -0.8277  1.0316 -0.4109
 5347TIP3    H237533   6.777   0.329  13.874 -0.1871  1.4785  0.4978
 5348TIP3   OH237534   2.544   1.176   4.466  0.0582 -0.2017  0.1464
 5348TIP3    H137535   2.520   1.184   4.559  0.1458 -1.8569  0.3397
 5348TIP3    H237536   2.546   1.082   4.450 -0.5388  0.0560 -1.7011
 5349TIP3   OH237537   0.736   4.817   2.911  0.4195 -0.1452 -0.4461
 5349TIP3    H137538   0.689   4.759   2.850 -0.7544  1.4907 -1.1516
 5349TIP3    H237539   0.721   4.905   2.877  1.0059  0.7050  1.3840
 5350TIP3   OH237540   6.539   1.323  11.180  0.6318 -0.2468 -0.5217
 5350TIP3    H137541   6.556   1.369  11.262  1.9883  0.3729 -1.1301
 5350TIP3    H237542   6.444   1.318  11.175  0.3792  2.7309 -0.5449
 5351TIP3   OH237543   5.917   0.251   5.515  0.3445  0.2902 -0.3370
 5351TIP3    H137544   5.869   0.188   5.462 -0.1147  0.2403  0.1268
 5351TIP3    H237545   5.865   0.331   5.509  0.5326  0.4122 -0.3292
 5352TIP3   OH237546   2.669   0.283   3.716  0.2999 -0.0545  0.0489
 5352TIP3    H137547   2.645   0.277   3.809 -1.7752  1.1173 -0.3570
 5352TIP3    H237548   2.605   0.229   3.671  0.5476  0.3542 -0.8066
 5353TIP3   OH237549   0.029   4.056  15.305  0.2797 -0.2547 -0.3036
 5353TIP3    H137550  -0.031   3.991  15.343  0.5595 -0.2206  0.2077
 5353TIP3    H237551  -0.016   4.140  15.316  0.9749 -0.0638  1.2786
 5354TIP3   OH237552   5.434   2.017  10.868 -0.1908  0.3861  0.4587
 5354TIP3    H137553   5.472   2.050  10.787  0.4790 -0.4362  0.4312
 5354TIP3    H237554   5.463   2.079  10.935  0.9746 -0.0680  0.3925
 5355TIP3   OH237555   0.195   4.603  11.905 -0.8115 -0.0641 -0.4531
 5355TIP3    H137556   0.103   4.627  11.894 -1.3576 -1.8165 -0.0481
 5355TIP3    H237557   0.233   4.615  11.818 -1.3177  1.0277 -0.5434
 5356TIP3   OH237558   4.482   4.994   4.718  0.3628  0.0646 -0.0519
 5356TIP3    H137559   4.575   4.998   4.740  0.7638  0.2886 -1.6475
 5356TIP3    H237560   4.481   4.988   4.622 -1.2834  0.8038 -0.1013
 5357TIP3   OH237561   2.548   4.185  15.218 -0.7185 -0.0760 -0.0057
 5357TIP3    H137562   2.562   4.150  15.131 -0.0170 -1.2767  0.5600
 5357TIP3    H237563   2.465   4.234  15.212 -1.0550 -0.7626 -1.1531
 5358TIP3   OH237564   2.082   6.634   3.436  0.0255 -0.0788 -0.2384
 5358TIP3    H137565   2.141   6.700   3.399  0.4594 -0.5764 -0.4441
 5358TIP3    H237566   2.030   6.605   3.361 -1.1912  1.0630  0.1149
 5359TIP3   OH237567   5.075   4.904   6.240 -0.1128  0.1995  0.2212
 5359TIP3    H137568   5.122   4.841   6.185 -0.2506  0.8389 -0.6313
 5359TIP3    H237569   5.136   4.977   6.249 -0.3378  0.3613  0.4176
 5360TIP3   OH237570   4.531   0.612   5.370 -0.3385  0.4824  0.2264
 5360TIP3    H137571   4.440   0.600   5.399  0.0927 -0.2662  1.3581
 5360TIP3    H237572   4.583   0.601   5.450  0.6997  1.8654 -0.2139
 5361TIP3   OH237573   0.112   3.261   0.710 -0.4316  0.0241 -0.7864
 5361TIP3    H137574   0.115   3.342   0.762 -0.3575 -0.2875 -0.2968
 5361TIP3    H237575   0.022   3.231   0.718 -0.5217  0.1923 -1.1766
 5362TIP3   OH237576   4.303   0.222  12.463  0.7391 -0.2839  0.4044
 5362TIP3    H137577   4.276   0.313  12.460  0.1312 -0.4792 -0.5218
 5362TIP3    H237578   4.230   0.174  12.422 -0.4341 -1.5590  3.6528
 5363TIP3   OH237579   1.131   4.970   6.206 -0.0109 -0.3313  0.2000
 5363TIP3    H137580   1.101   4.986   6.295 -0.1587  1.1007 -0.0898
 5363TIP3    H237581   1.222   4.939   6.216  0.3339  0.8488  0.8072
 5364TIP3   OH237582   2.508   0.619   4.466 -0.3055 -0.2904  0.0471
 5364TIP3    H137583   2.474   0.631   4.555  1.7028 -1.3475  1.0377
 5364TIP3    H237584   2.469   0.691   4.416 -1.5188  0.3294  1.7589
 5365TIP3   OH237585   2.620   3.735   0.487  0.0747 -0.4652 -0.0424
 5365TIP3    H137586   2.539   3.719   0.438 -1.3476 -1.2211  2.4196
 5365TIP3    H237587   2.681   3.669   0.453 -0.6868 -0.6622 -1.0925
 5366TIP3   OH237588   2.028   1.031  16.402 -0.5653  0.2412  0.3932
 5366TIP3    H137589   1.970   1.030  16.325  0.6950 -0.2183 -0.5856
 5366TIP3    H237590   1.975   0.994  16.472 -1.2125 -0.9029 -0.6600
 5367TIP3   OH237591   3.849   6.248   5.881 -0.3858 -0.4611  1.0432
 5367TIP3    H137592   3.870   6.308   5.809 -0.4723 -0.1125  1.3089
 5367TIP3    H237593   3.769   6.204   5.851 -0.8804  0.2693  1.2736
 5368TIP3   OH237594   6.239   5.935   4.566  0.1765 -0.2735 -0.3000
 5368TIP3    H137595   6.280   5.852   4.544 -2.0169 -1.2142 -1.1856
 5368TIP3    H237596   6.294   6.002   4.525  1.9396 -1.2420  0.3828
 5369TIP3   OH237597   0.792   5.905  12.097 -0.4716  0.1456  0.0034
 5369TIP3    H137598   0.702   5.899  12.129 -0.1728 -0.4606  0.7633
 5369TIP3    H237599   0.807   5.822  12.051 -0.1339  0.0213  0.3329
 5370TIP3   OH237600   5.559   1.674   5.205  0.2847  0.1425  0.2470
 5370TIP3    H137601   5.466   1.651   5.207  0.4284 -0.8807 -1.6414
 5370TIP3    H237602   5.564   1.750   5.147  0.5733  0.5390  0.7845
 5371TIP3   OH237603   2.097   5.596   5.137 -0.0669 -0.5012  0.1477
 5371TIP3    H137604   2.097   5.500   5.138 -0.8230 -0.5587 -1.2978
 5371TIP3    H237605   2.020   5.621   5.188 -0.9827 -0.7553 -1.0625
 5372TIP3   OH237606   0.812   6.330   1.163 -0.1116 -0.3396  0.2387
 5372TIP3    H137607   0.828   6.410   1.113 -1.3214 -1.0951 -1.4285
 5372TIP3    H237608   0.889   6.275   1.145 -0.1828 -0.3035 -0.1814
 5373TIP3   OH237609   4.725   0.869  16.591 -0.6082  0.4433 -0.4420
 5373TIP3    H137610   4.725   0.783  16.549 -0.7654 -0.7823  1.8867
 5373TIP3    H237611   4.786   0.921  16.540  1.4619 -1.8367 -0.4587
 5374TIP3   OH237612   2.592   4.615  16.728  0.4080 -0.8698 -0.2156
 5374TIP3    H137613   2.606   4.580  16.640  1.7402 -0.1347 -0.3274
 5374TIP3    H237614   2.679   4.615  16.768  0.1296  0.4534  0.4612
 5375TIP3   OH237615   2.917   2.998   4.752 -0.7076  0.5857  0.3683
 5375TIP3    H137616   2.857   3.038   4.690 -2.4859 -2.1439  0.1753
 5375TIP3    H237617   2.963   2.931   4.702  0.6217  0.8783  1.1396
 5376TIP3   OH237618   6.700   3.781   0.171  0.0674 -0.1741 -0.0376
 5376TIP3    H137619   6.770   3.737   0.123 -0.3279 -0.4007 -0.4102
 5376TIP3    H237620   6.642   3.815   0.103 -1.4109 -1.9502  0.2692
 5377TIP3   OH237621   2.726   3.023  13.808  0.1038  0.4092 -0.0781
 5377TIP3    H137622   2.716   2.935  13.845 -1.5516 -0.2069 -1.8121
 5377TIP3    H237623   2.814   3.024  13.770 -0.2738 -0.9284 -1.0410
 5378TIP3   OH237624   2.131   3.816   1.976  0.4323  0.3565 -0.4253
 5378TIP3    H137625   2.144   3.881   1.906 -0.1586 -0.1169 -0.9793
 5378TIP3    H237626   2.212   3.765   1.977  0.1337 -0.1497 -1.3134
 5379TIP3   OH237627   6.802   0.208  11.178  0.7960 -0.3884  0.0970
 5379TIP3    H137628   6.824   0.150  11.106 -1.2647  0.7293 -1.5313
 5379TIP3    H237629   6.774   0.149  11.248  2.0476 -1.4481 -0.2482
 5380TIP3   OH237630   3.250   1.878  15.078  0.3449  0.4122 -0.0476
 5380TIP3    H137631   3.196   1.810  15.037 -0.0610  1.1519 -0.7708
 5380TIP3    H237632   3.192   1.919  15.142  1.0701 -0.9390  1.5219
 5381TIP3   OH237633   2.004   0.899  10.186  0.4922  0.9311 -0.2159
 5381TIP3    H137634   2.053   0.947  10.119  1.3951  2.0265  1.1746
 5381TIP3    H237635   1.935   0.960  10.213  0.4212  0.6756  0.1847
 5382TIP3   OH237636   5.540   4.702  11.629 -0.2412 -0.1520  0.3162
 5382TIP3    H137637   5.559   4.717  11.722  0.8180  0.0908  0.0749
 5382TIP3    H237638   5.515   4.609  11.624  0.1189 -0.2735  0.7762
 5383TIP3   OH237639   6.363   3.295   5.818 -0.1867 -0.3876  0.3474
 5383TIP3    H137640   6.395   3.338   5.897 -1.2206 -0.2179  0.6880
 5383TIP3    H237641   6.381   3.202   5.833  1.2153 -0.1883  0.0068
 5384TIP3   OH237642   3.264   4.031  16.345 -0.2234  0.7521  0.5427
 5384TIP3    H137643   3.286   4.013  16.437 -1.1126  1.0075  0.8116
 5384TIP3    H237644   3.172   4.007  16.336 -0.6445  2.3362  0.1686
 5385TIP3   OH237645   3.748   4.598   1.591 -0.8330 -0.4612 -0.5751
 5385TIP3    H137646   3.690   4.663   1.630 -0.0455  0.0950 -0.3149
 5385TIP3    H237647   3.822   4.648   1.557 -0.8930 -1.0685 -1.6744
 5386TIP3   OH237648   6.323   1.237   0.422  0.1092 -0.4052 -0.2267
 5386TIP3    H137649   6.377   1.285   0.359  0.1194 -0.8068 -0.5266
 5386TIP3    H237650   6.259   1.302   0.453  0.3335 -0.1096 -0.3742
 5387TIP3   OH237651   4.195   0.522  11.450  0.4062  0.2363  0.3355
 5387TIP3    H137652   4.113   0.531  11.498  0.9948 -0.5663  1.5672
 5387TIP3    H237653   4.208   0.606  11.407 -0.3275  0.8761  1.3338
 5388TIP3   OH237654   4.451   1.484   4.726 -0.8001  0.1132  0.4690
 5388TIP3    H137655   4.415   1.396   4.729 -2.7745  0.8146 -0.6147
 5388TIP3    H237656   4.472   1.498   4.634 -0.0141  0.6013  0.7142
 5389TIP3   OH237657   1.363   6.167  13.799 -0.6365  0.3635  0.0379
 5389TIP3    H137658   1.317   6.213  13.870 -0.2197 -0.8039  1.0990
 5389TIP3    H237659   1.440   6.129  13.841 -0.5360 -0.6031 -0.9805
 5390TIP3   OH237660   4.113   2.886  17.170 -0.0363  0.2296 -0.5003
 5390TIP3    H137661   4.147   2.902  17.258  2.3998  2.9415 -1.7708
 5390TIP3    H237662   4.190   2.891  17.113 -1.2740 -2.9210 -2.7592
 5391TIP3   OH237663   2.178   6.738   0.457  0.2996  0.0904 -0.3144
 5391TIP3    H137664   2.192   6.647   0.483  1.9705 -0.0043 -1.4237
 5391TIP3    H237665   2.166   6.785   0.540  0.8002 -0.9212  0.3417
 5392TIP3   OH237666   2.101   6.311  12.887  0.4024 -0.3819  0.1366
 5392TIP3    H137667   2.110   6.338  12.979  0.0588 -1.0015  0.3542
 5392TIP3    H237668   2.089   6.216  12.891 -1.1015 -0.2301 -0.4623
 5393TIP3   OH237669   1.976   5.671   0.780  0.0714 -0.2288  0.0849
 5393TIP3    H137670   2.037   5.605   0.747  0.4400  0.5809 -0.9172
 5393TIP3    H237671   1.912   5.622   0.829 -0.4425 -1.5261 -1.7752
 5394TIP3   OH237672   6.590   5.166  15.173 -0.2846  0.0388 -0.2119
 5394TIP3    H137673   6.591   5.087  15.228 -1.6383 -0.8392 -1.3929
 5394TIP3    H237674   6.668   5.215  15.201  0.2383 -1.3940  0.9917
 5395TIP3   OH237675   6.565   5.519  14.140 -0.0474 -0.3134  0.0674
 5395TIP3    H137676   6.574   5.607  14.103 -0.4181 -0.9521 -1.6123
 5395TIP3    H237677   6.615   5.523  14.222 -1.9764  2.1126  1.2453
 5396TIP3   OH237678   0.034   4.473   1.686  0.0059 -0.9250 -0.4816
 5396TIP3    H137679  -0.023   4.397   1.688  2.2151 -2.7125  2.2625
 5396TIP3    H237680   0.121   4.436   1.667  1.1957  0.8113  1.2530
 5397TIP3   OH237681   5.438   5.274  15.442  0.3820 -0.1968 -0.4175
 5397TIP3    H137682   5.357   5.224  15.429  0.4994 -0.4685 -0.1044
 5397TIP3    H237683   5.504   5.227  15.391  0.6343 -0.7305  0.3792
 5398TIP3   OH237684   5.218   4.451  15.609 -0.9054  0.4145  0.3644
 5398TIP3    H137685   5.251   4.538  15.632 -0.7619  0.6648 -0.6871
 5398TIP3    H237686   5.293   4.408  15.567 -0.9204 -0.2910  1.0432
 5399TIP3   OH237687   0.718   1.302   1.552 -0.2004 -0.4960  0.0779
 5399TIP3    H137688   0.710   1.356   1.474  0.0067 -1.6260 -0.7504
 5399TIP3    H237689   0.791   1.341   1.601 -0.3565  0.2419 -0.2648
 5400TIP3   OH237690   1.676   4.565  13.518 -0.0041 -0.8317 -0.3818
 5400TIP3    H137691   1.600   4.623  13.527 -0.2553 -1.4807  3.1433
 5400TIP3    H237692   1.751   4.625  13.511 -0.3243  0.0724  2.5195
 5401TIP3   OH237693   1.311   6.050   0.422 -0.3382 -0.3696 -0.1113
 5401TIP3    H137694   1.358   6.049   0.505 -1.0430 -1.2624  0.2892
 5401TIP3    H237695   1.336   5.968   0.380 -1.7146 -0.9640  0.2088
 5402TIP3   OH237696   4.111   5.140  12.037  0.1880  0.2379  0.1629
 5402TIP3    H137697   4.055   5.186  11.974  2.4863  1.9298 -0.7833
 5402TIP3    H237698   4.135   5.207  12.100 -0.6084 -1.0216  1.8841
 5403TIP3   OH237699   0.860   4.767   5.720 -0.1924 -0.1129  0.0588
 5403TIP3    H137700   0.947   4.785   5.684 -0.3519  0.0179 -0.2685
 5403TIP3    H237701   0.826   4.853   5.744 -0.2982 -0.1486  0.0345
 5404TIP3   OH237702   1.823   3.374  11.663 -1.5325  0.1022 -0.3724
 5404TIP3    H137703   1.855   3.459  11.634  1.4624 -0.6208  0.3767
 5404TIP3    H237704   1.778   3.391  11.746  1.0234  0.8046  0.9651
 5405TIP3   OH237705   1.081   3.590  13.355  0.1105 -0.2358 -0.5323
 5405TIP3    H137706   1.147   3.533  13.394 -0.0457  0.8867  1.5348
 5405TIP3    H237707   1.025   3.615  13.429 -1.6881  0.1006 -1.9401
 5406TIP3   OH237708   0.276   5.540  13.594  0.4418  0.1880 -0.4589
 5406TIP3    H137709   0.248   5.522  13.684  0.0827 -0.8129 -0.7505
 5406TIP3    H237710   0.218   5.610  13.564  1.0948  1.0894  0.3422
 5407TIP3   OH237711   4.453   5.047   2.263 -0.1739 -0.3495  0.2230
 5407TIP3    H137712   4.489   5.099   2.336  1.2760 -1.0682  0.0450
 5407TIP3    H237713   4.480   4.957   2.282 -1.0012 -0.7609 -0.4846
 5408TIP3   OH237714   0.938   5.497  14.344  0.4811  0.3550  0.2051
 5408TIP3    H137715   0.943   5.429  14.277 -0.4367  0.4630  0.0046
 5408TIP3    H237716   1.029   5.518  14.364  0.7984  1.1043 -1.8056
 5409TIP3   OH237717   6.235   6.602   2.838 -0.3880 -0.3371  0.1909
 5409TIP3    H137718   6.229   6.605   2.933  0.6972  0.8433  0.2546
 5409TIP3    H237719   6.175   6.532   2.812 -1.0734 -0.3467  1.6974
 5410TIP3   OH237720   3.331   0.905   2.671  0.6766  0.1075  0.1424
 5410TIP3    H137721   3.275   0.948   2.607 -2.0619  0.2240  2.4413
 5410TIP3    H237722   3.342   0.970   2.740 -0.8159 -1.6586  2.1563
 5411TIP3   OH237723   1.035   5.794   3.487 -0.7040  0.1617 -0.2515
 5411TIP3    H137724   1.014   5.822   3.398  1.9723  0.2066 -0.9481
 5411TIP3    H237725   1.050   5.700   3.480 -1.5149 -0.0248  0.3941
 5412TIP3   OH237726   2.802   5.165   0.667  0.2921 -0.4753  0.7113
 5412TIP3    H137727   2.736   5.113   0.620  1.1313  0.4201 -1.6028
 5412TIP3    H237728   2.802   5.129   0.756 -0.4247 -3.1918 -0.2909
 5413TIP3   OH237729   5.083   5.206  11.213  0.8948  0.0227  0.2778
 5413TIP3    H137730   5.115   5.122  11.245  0.9085 -0.3796 -0.7862
 5413TIP3    H237731   5.114   5.212  11.123 -2.2780 -0.5502 -0.9864
 5414TIP3   OH237732   3.694   5.773  11.647  0.3761 -0.1795 -0.6135
 5414TIP3    H137733   3.773   5.766  11.700  0.1797 -0.2575 -0.3258
 5414TIP3    H237734   3.633   5.711  11.687 -0.1189  0.4888 -0.3200
 5415TIP3   OH237735   3.720   6.759  11.549 -0.5351 -0.1142 -0.1380
 5415TIP3    H137736   3.684   6.674  11.575  1.3275 -0.9200 -0.0841
 5415TIP3    H237737   3.643   6.815  11.542 -1.5772 -0.8947  3.1388
 5416TIP3   OH237738   5.333   1.064   3.452 -0.6889  0.3911 -0.2123
 5416TIP3    H137739   5.386   1.140   3.476 -2.0250  1.3214 -0.1433
 5416TIP3    H237740   5.280   1.047   3.529  0.1031 -1.1010  0.0494
 5417TIP3   OH237741   2.827   2.906   0.109 -0.3170 -0.0073  0.2717
 5417TIP3    H137742   2.829   2.899   0.204 -1.2158  0.2626  0.3228
 5417TIP3    H237743   2.777   2.986   0.092  1.0597  0.7465 -0.4146
 5418TIP3   OH237744   1.046   1.938  12.726 -0.3809  0.3305  0.3264
 5418TIP3    H137745   1.011   2.027  12.730  0.4133  0.8151 -1.7358
 5418TIP3    H237746   1.013   1.903  12.643  0.5797 -0.7320  0.3649
 5419TIP3   OH237747   4.171   2.312   2.250  0.4161 -1.1470  0.6911
 5419TIP3    H137748   4.121   2.317   2.168 -2.0969  0.2323  2.1603
 5419TIP3    H237749   4.152   2.225   2.284  1.6179 -1.7972 -0.2100
 5420TIP3   OH237750   0.041   1.457  16.282 -0.0041 -0.6456  0.0845
 5420TIP3    H137751   0.102   1.530  16.286 -0.2473 -0.4410  0.0507
 5420TIP3    H237752   0.052   1.412  16.366  0.6615 -0.9916 -0.1807
 5421TIP3   OH237753   2.414   3.796  11.822  0.6687  0.3197 -0.2673
 5421TIP3    H137754   2.473   3.855  11.776  0.5581 -0.3019 -1.2373
 5421TIP3    H237755   2.328   3.812  11.783  0.6471 -0.5045 -0.5860
 5422TIP3   OH237756   5.776   4.059   4.023  0.2535  0.0365 -0.1674
 5422TIP3    H137757   5.749   4.149   4.040  1.0341  0.6706 -2.0473
 5422TIP3    H237758   5.702   4.019   3.977  0.3750  0.1017 -0.4221
 5423TIP3   OH237759   1.341   6.090   4.885  0.1883  0.3049 -0.1680
 5423TIP3    H137760   1.266   6.064   4.833 -1.3756  0.4074  1.9337
 5423TIP3    H237761   1.388   6.153   4.829 -1.6172  0.7294 -1.2829
 5424TIP3   OH237762   6.647   4.103  13.588 -0.2303  0.0648  0.0955
 5424TIP3    H137763   6.608   4.019  13.564  1.9936 -0.6197 -1.4016
 5424TIP3    H237764   6.630   4.160  13.514 -2.4902  1.2950  1.4664
 5425TIP3   OH237765   3.008   0.131   3.231  0.0964  0.1835 -0.1560
 5425TIP3    H137766   2.971   0.109   3.316  0.8178 -1.4644 -0.2274
 5425TIP3    H237767   2.932   0.135   3.172 -0.2937  0.1554  0.3420
 5426TIP3   OH237768   2.161   6.488   1.356  0.3323 -0.7275  0.3037
 5426TIP3    H137769   2.094   6.553   1.376  0.5642 -0.5669  0.5700
 5426TIP3    H237770   2.173   6.494   1.261  2.0978  1.3672  0.5634
 5427TIP3   OH237771   1.870   0.688   3.202 -0.3590  0.1930 -0.6861
 5427TIP3    H137772   1.926   0.766   3.208 -0.1547 -0.0342  1.0297
 5427TIP3    H237773   1.892   0.649   3.118  2.0204  0.1888 -0.1389
 5428TIP3   OH237774   0.584   4.291  15.814  0.4326  0.2133 -0.4930
 5428TIP3    H137775   0.537   4.259  15.892  0.7748  0.2505 -0.2676
 5428TIP3    H237776   0.643   4.220  15.791  0.9815  0.5508 -0.1704
 5429TIP3   OH237777   2.347   5.613   5.681  0.1577 -0.3447 -0.0292
 5429TIP3    H137778   2.296   5.580   5.608  1.3251 -0.0777 -0.9992
 5429TIP3    H237779   2.413   5.670   5.641  0.1288  0.6993  1.3288
 5430TIP3   OH237780   0.303   5.983  16.505 -0.1341 -0.8740  0.7780
 5430TIP3    H137781   0.297   5.966  16.411  3.3670  1.4906 -0.0837
 5430TIP3    H237782   0.380   5.933  16.533 -1.3001 -1.7859  2.5520
 5431TIP3   OH237783   3.722   6.196   5.567 -0.0530 -0.1074  0.3727
 5431TIP3    H137784   3.672   6.240   5.636 -1.1498 -1.4137  0.4476
 5431TIP3    H237785   3.726   6.260   5.496  0.3680  0.9454  1.3084
 5432TIP3   OH237786   2.721   3.594   2.547 -0.1747  0.9041  0.0049
 5432TIP3    H137787   2.720   3.584   2.452 -1.1143 -0.4155  0.1114
 5432TIP3    H237788   2.786   3.530   2.577 -3.3170 -2.4039  0.4679
 5433TIP3   OH237789   1.119   5.769   5.573 -0.5309  0.8207 -0.2633
 5433TIP3    H137790   1.120   5.780   5.668  0.8864  1.1237 -0.2874
 5433TIP3    H237791   1.061   5.695   5.558  0.0150  0.1243  0.9259
 5434TIP3   OH237792   0.856   2.477   0.418 -0.1602 -0.0479 -0.4867
 5434TIP3    H137793   0.863   2.463   0.324 -1.0104 -1.7524 -0.3279
 5434TIP3    H237794   0.780   2.426   0.445 -0.2703  0.8623  1.0468
 5435TIP3   OH237795   2.426   4.343  16.695  0.1039 -0.3086 -0.8480
 5435TIP3    H137796   2.439   4.338  16.600  0.7971 -1.0913 -0.7251
 5435TIP3    H237797   2.505   4.387  16.728  1.0578 -2.2754 -0.4010
 5436TIP3   OH237798   4.345   1.215   4.686  0.2038 -0.0553  0.2923
 5436TIP3    H137799   4.343   1.209   4.590 -1.0501 -0.0702  0.3027
 5436TIP3    H237800   4.353   1.125   4.716  1.2541 -0.0013  0.2030
 5437TIP3   OH237801   1.280   0.865   3.246 -0.1151  0.1311 -0.1724
 5437TIP3    H137802   1.364   0.820   3.232 -0.0237  0.3526 -0.3519
 5437TIP3    H237803   1.305   0.947   3.289 -0.1792  0.4714 -0.7768
 5438TIP3   OH237804   4.804   2.701  15.680  0.5120 -0.3389 -0.1532
 5438TIP3    H137805   4.818   2.651  15.599 -1.3330 -0.8443 -0.1982
 5438TIP3    H237806   4.730   2.658  15.722 -0.1757  1.4596  0.5535
 5439TIP3   OH237807   3.179   6.510  11.824 -0.6146 -0.1585  0.2701
 5439TIP3    H137808   3.172   6.431  11.878  2.2188 -3.0681 -3.0523
 5439TIP3    H237809   3.268   6.542  11.841  0.0415 -0.6773 -1.8340
 5440TIP3   OH237810   1.326   1.806  10.714 -0.2653  0.3919  0.8998
 5440TIP3    H137811   1.380   1.882  10.691  1.1509 -0.6947  0.5041
 5440TIP3    H237812   1.257   1.805  10.648  1.9254 -0.8358 -1.6091
 5441TIP3   OH237813   0.480   1.319  16.088 -0.1023 -1.1973 -0.4190
 5441TIP3    H137814   0.493   1.398  16.036 -1.2986  0.7310  2.0550
 5441TIP3    H237815   0.560   1.268  16.073  1.8226  1.5718 -0.2326
 5442TIP3   OH237816   3.564   2.083   2.452 -0.5803  0.3502  0.2858
 5442TIP3    H137817   3.567   2.024   2.528  0.3616  1.0914  0.8430
 5442TIP3    H237818   3.535   2.167   2.488  0.9472  1.0040  0.0418
 5443TIP3   OH237819   0.099   2.700  16.286 -0.2110  0.1418  0.3562
 5443TIP3    H137820   0.191   2.675  16.284  0.8111  3.4346  0.5165
 5443TIP3    H237821   0.072   2.684  16.377  0.1864 -0.7373  0.3321
 5444TIP3   OH237822   4.948   5.305   1.557 -0.0797 -0.2271  0.4364
 5444TIP3    H137823   5.021   5.265   1.510 -0.2430 -0.5860  0.4812
 5444TIP3    H237824   4.942   5.255   1.638 -0.7605 -0.6103  0.1613
 5445TIP3   OH237825   0.167   3.590  11.682  0.1020 -0.7807 -0.2966
 5445TIP3    H137826   0.259   3.609  11.699 -0.2887 -0.4572  1.6124
 5445TIP3    H237827   0.147   3.513  11.736 -0.7301 -0.9026 -0.7534
 5446TIP3   OH237828   5.083   1.824   1.661  0.1140  0.5539  0.2154
 5446TIP3    H137829   5.127   1.898   1.620 -0.8802  1.4663  0.7195
 5446TIP3    H237830   5.061   1.855   1.749  0.3900 -0.6351  0.7257
 5447TIP3   OH237831   1.990   6.451   5.651 -0.0722 -0.3807 -0.0981
 5447TIP3    H137832   1.902   6.426   5.621 -0.2564  0.7445 -0.5595
 5447TIP3    H237833   1.975   6.527   5.707  0.7004  0.7528 -1.3628
 5448TIP3   OH237834   6.384   4.844  13.957  0.0400 -0.2212 -0.1946
 5448TIP3    H137835   6.352   4.862  14.046 -0.9249 -1.9421 -0.1449
 5448TIP3    H237836   6.478   4.862  13.962 -0.1054  0.3374  0.9965
 5449TIP3   OH237837   1.316   0.104   6.096  0.0151 -0.2018 -0.4392
 5449TIP3    H137838   1.345   0.191   6.123  0.1793 -0.6142  0.7996
 5449TIP3    H237839   1.221   0.105   6.112  0.0704 -0.3565 -0.0857
 5450TIP3   OH237840   2.186   1.552  14.679 -0.5155 -0.5464 -0.7803
 5450TIP3    H137841   2.270   1.556  14.725 -0.8542 -1.3576 -0.0572
 5450TIP3    H237842   2.194   1.616  14.609  0.3901  0.0061 -0.1947
 5451TIP3   OH237843   2.076   6.762  11.407  0.0291 -0.0291 -0.2460
 5451TIP3    H137844   2.082   6.857  11.412 -1.3490  0.0929 -0.5002
 5451TIP3    H237845   1.982   6.744  11.403  0.1423 -1.5106  1.8330
 5452TIP3   OH237846   2.786   4.837   0.469 -0.5024  0.4036 -0.9188
 5452TIP3    H137847   2.739   4.911   0.508 -1.3855 -0.1925 -0.8278
 5452TIP3    H237848   2.784   4.854   0.375 -0.2748  0.7323 -0.8685
 5453TIP3   OH237849   4.607   2.609   4.046 -0.1070  0.3782 -0.2876
 5453TIP3    H137850   4.698   2.616   4.073 -0.4552 -0.0891  1.1102
 5453TIP3    H237851   4.584   2.697   4.016 -0.2402  1.6091  2.9968
 5454TIP3   OH237852   1.457   0.235   1.679 -0.2779 -0.3247 -0.4086
 5454TIP3    H137853   1.429   0.205   1.765 -0.1750 -0.9579 -0.5901
 5454TIP3    H237854   1.485   0.156   1.633  3.2475  0.3588  0.2742
 5455TIP3   OH237855   3.551   6.009  14.383 -0.2790 -0.3093  0.4624
 5455TIP3    H137856   3.588   5.927  14.416 -0.7392 -1.3993 -1.5906
 5455TIP3    H237857   3.508   6.048  14.460  2.0153 -0.7260  2.0674
 5456TIP3   OH237858   2.576   0.766  12.316  0.1884 -0.8683  0.4958
 5456TIP3    H137859   2.643   0.807  12.371  1.9162 -0.6976 -1.6011
 5456TIP3    H237860   2.566   0.678  12.351  0.1619 -0.3032  1.9496
 5457TIP3   OH237861   3.937   3.844   2.570 -0.7001  0.1908  0.1299
 5457TIP3    H137862   3.842   3.859   2.575 -0.9048 -0.9790  0.1606
 5457TIP3    H237863   3.975   3.907   2.631 -1.2646  2.1087 -1.3883
 5458TIP3   OH237864   1.425   3.583   1.555 -0.2063  0.2445  0.3369
 5458TIP3    H137865   1.436   3.512   1.492  1.1506  0.8751 -0.1777
 5458TIP3    H237866   1.336   3.614   1.542 -0.8841 -1.4655  0.7063
 5459TIP3   OH237867   4.682   3.531   2.527 -0.0929  0.4538 -0.1375
 5459TIP3    H137868   4.655   3.457   2.581 -0.4817 -0.7346 -1.9118
 5459TIP3    H237869   4.727   3.493   2.452  1.6871  2.1378 -0.0293
 5460TIP3   OH237870   4.054   4.396   0.255 -0.0155 -0.3616 -0.1515
 5460TIP3    H137871   4.017   4.328   0.198 -0.2969 -0.1091 -0.2684
 5460TIP3    H237872   4.064   4.472   0.197 -0.5288 -0.0285  0.1942
 5461TIP3   OH237873   2.688   1.539  14.580 -0.3904  0.1318 -0.0020
 5461TIP3    H137874   2.781   1.518  14.575 -0.5756 -0.5261 -0.8789
 5461TIP3    H237875   2.684   1.617  14.635  0.4792 -1.1231  1.9451
 5462TIP3   OH237876   3.923   1.623  13.105 -0.1900  0.4157  0.3982
 5462TIP3    H137877   3.962   1.602  13.020  1.5391  1.0239  1.0000
 5462TIP3    H237878   3.904   1.537  13.144  0.4353  0.0903  0.0080
 5463TIP3   OH237879   3.778   3.090  13.542  0.4912 -0.8785 -0.8643
 5463TIP3    H137880   3.721   3.014  13.533 -0.0982 -0.6330  0.4448
 5463TIP3    H237881   3.788   3.124  13.453  0.3962 -2.2109 -1.4025
 5464TIP3   OH237882   1.164   1.251  12.089  0.0961 -0.2617 -0.0288
 5464TIP3    H137883   1.194   1.230  12.001  0.6164 -1.3113  0.3812
 5464TIP3    H237884   1.241   1.239  12.145  0.3915  2.5758  0.3079
 5465TIP3   OH237885   2.273   3.397  15.468  0.2497  0.7946 -0.0583
 5465TIP3    H137886   2.226   3.417  15.387  0.9018 -0.4269 -0.7579
 5465TIP3    H237887   2.342   3.463  15.472 -0.3872  1.4729  0.0352
 5466TIP3   OH237888   2.855   4.678  16.738 -0.2269  0.1906 -0.2760
 5466TIP3    H137889   2.904   4.687  16.820 -0.1772 -3.5201  0.2779
 5466TIP3    H237890   2.879   4.755  16.687  0.4553  2.1989  2.7750
 5467TIP3   OH237891   3.493   1.538  13.270 -0.2630 -0.5941 -0.4510
 5467TIP3    H137892   3.555   1.465  13.258 -0.5356 -0.9476  0.2446
 5467TIP3    H237893   3.482   1.545  13.365 -0.5441  0.1025 -0.5311
 5468TIP3   OH237894   3.463   6.205   6.617 -0.2345  0.3927  0.2358
 5468TIP3    H137895   3.471   6.129   6.559  0.0300 -0.5850  1.5096
 5468TIP3    H237896   3.541   6.200   6.673 -1.8258 -0.3519  2.5388
 5469TIP3   OH237897   2.631   2.819   1.000 -0.2004 -0.2147  0.2696
 5469TIP3    H137898   2.629   2.724   0.997 -1.0795 -0.2261  0.8335
 5469TIP3    H237899   2.655   2.846   0.912 -1.6331 -0.9362 -0.3757
 5470TIP3   OH237900   0.099   3.911  14.557 -0.1088 -0.3354 -0.3398
 5470TIP3    H137901   0.072   3.825  14.591  0.4565  0.0639  1.1809
 5470TIP3    H237902   0.063   3.913  14.468 -2.8457 -0.8910  0.6509
 5471TIP3   OH237903   3.521   3.579  12.619  0.2569 -0.3098  0.3593
 5471TIP3    H137904   3.450   3.641  12.634  1.2576  0.2420  3.9811
 5471TIP3    H237905   3.597   3.634  12.601  0.2440 -0.7921 -1.3152
 5472TIP3   OH237906   6.760   4.684  11.886  0.4186  0.7517 -0.0847
 5472TIP3    H137907   6.703   4.611  11.862 -0.8582  1.7115 -0.0769
 5472TIP3    H237908   6.704   4.741  11.939  1.4675  1.6105  0.1199
 5473TIP3   OH237909   1.373   6.454  12.993 -0.2997  0.3301  0.0702
 5473TIP3    H137910   1.396   6.525  13.052 -2.2397  1.9989 -1.0412
 5473TIP3    H237911   1.278   6.442  13.006 -0.3571 -0.7752 -1.1162
 5474TIP3   OH237912   0.310   5.944   1.714 -0.1259 -0.1933  0.3878
 5474TIP3    H137913   0.225   5.900   1.720 -0.5877  0.5031 -0.6833
 5474TIP3    H237914   0.372   5.875   1.691 -0.6140 -0.5134  0.0120
 5475TIP3   OH237915   1.747   5.070   3.302  0.0495 -0.8101 -0.3003
 5475TIP3    H137916   1.806   4.998   3.325 -1.4058 -2.3933 -1.2993
 5475TIP3    H237917   1.784   5.107   3.222  1.0422 -0.1077  0.4508
 5476TIP3   OH237918   5.764   2.509  13.585  0.2089  0.2002  0.0185
 5476TIP3    H137919   5.750   2.577  13.651 -0.6046 -0.8970  1.0116
 5476TIP3    H237920   5.690   2.450  13.595 -0.3692  0.3814 -2.4302
 5477TIP3   OH237921   5.340   4.326  16.727 -0.1553 -0.0347 -0.4222
 5477TIP3    H137922   5.270   4.285  16.676 -0.9148  1.8091 -0.9221
 5477TIP3    H237923   5.367   4.401  16.674 -0.0550  1.1804  1.2995
 5478TIP3   OH237924   0.451   1.922  13.619  0.4806  0.5217  0.7354
 5478TIP3    H137925   0.391   1.988  13.583  0.5188  1.0274  1.5645
 5478TIP3    H237926   0.478   1.959  13.703 -0.7316 -1.2586  1.9906
 5479TIP3   OH237927   4.679   5.358   4.701 -0.0153 -0.1321  0.0057
 5479TIP3    H137928   4.696   5.325   4.613  1.2732  2.3453 -0.7312
 5479TIP3    H237929   4.588   5.387   4.698 -0.8866 -2.5646  0.4012
 5480TIP3   OH237930   2.673   0.422   4.359  0.0554 -0.1010 -0.6338
 5480TIP3    H137931   2.616   0.491   4.395 -1.2845 -0.6133 -1.6962
 5480TIP3    H237932   2.714   0.463   4.283  3.3482  1.1785  1.6200
 5481TIP3   OH237933   1.951   4.783  12.439 -0.1910 -0.2448 -0.4446
 5481TIP3    H137934   2.007   4.860  12.444 -0.4697 -0.1110  1.8867
 5481TIP3    H237935   2.011   4.711  12.420  0.4010  0.2368 -0.4444
 5482TIP3   OH237936   3.317   1.181   2.250  0.1787  0.0868  0.3960
 5482TIP3    H137937   3.286   1.098   2.213  0.5057  0.0187  0.2713
 5482TIP3    H237938   3.322   1.240   2.174  1.3937 -0.2122  0.2156
 5483TIP3   OH237939   5.281   5.624   4.608  0.4722  0.9796  0.1203
 5483TIP3    H137940   5.245   5.695   4.662 -0.0308  1.3476 -0.6691
 5483TIP3    H237941   5.347   5.583   4.663 -1.2850  0.1486  1.7372
 5484TIP3   OH237942   6.291   0.195  13.771  0.0268 -0.1010 -0.6109
 5484TIP3    H137943   6.288   0.121  13.711 -1.6623  0.8841 -1.8782
 5484TIP3    H237944   6.346   0.167  13.843  0.9091 -1.9003 -1.9175
 5485TIP3   OH237945   3.491   5.637  11.469  0.1425  0.2582  0.2678
 5485TIP3    H137946   3.479   5.624  11.563  2.1534 -1.8115  0.3290
 5485TIP3    H237947   3.530   5.724  11.461  0.3432  0.2771  1.4001
 5486TIP3   OH237948   4.147   5.328   6.274 -0.1226  0.3738 -0.5691
 5486TIP3    H137949   4.097   5.370   6.344  1.4579  0.6880  0.4169
 5486TIP3    H237950   4.228   5.378   6.270  0.5068 -0.6803 -1.5027
 5487TIP3   OH237951   3.532   1.592  14.363 -0.0689 -0.5844 -0.3408
 5487TIP3    H137952   3.620   1.629  14.368 -0.2558  0.2609 -2.4186
 5487TIP3    H237953   3.477   1.654  14.412  0.4156 -0.8956  0.6082
 5488TIP3   OH237954   5.855   0.950   5.783  0.2790 -0.3924  0.0345
 5488TIP3    H137955   5.825   1.021   5.726 -0.6045 -0.6906  0.1048
 5488TIP3    H237956   5.856   0.872   5.727  1.8679 -0.2297 -0.2102
 5489TIP3   OH237957   6.287   5.872  14.455 -0.0017  0.2696  0.2279
 5489TIP3    H137958   6.363   5.821  14.424 -1.4773 -1.4944 -0.7175
 5489TIP3    H237959   6.305   5.887  14.548  2.3222  1.4923 -0.3588
 5490TIP3   OH237960   4.899   1.722   5.386  0.1359  0.2164  0.1562
 5490TIP3    H137961   4.813   1.731   5.426  0.5474  0.5054  0.9930
 5490TIP3    H237962   4.929   1.811   5.371 -0.2410  0.1121 -1.3230
 5491TIP3   OH237963   5.106   5.099  16.801 -0.1088 -0.0576 -0.1284
 5491TIP3    H137964   5.194   5.114  16.834 -0.4031  1.0665  0.1810
 5491TIP3    H237965   5.109   5.129  16.710 -0.2133  0.1285 -0.0705
 5492TIP3   OH237966   3.711   0.881  16.622  0.3584 -0.1542  0.0860
 5492TIP3    H137967   3.717   0.902  16.529 -0.3777  0.8476  0.2533
 5492TIP3    H237968   3.661   0.953  16.660 -1.5927 -1.7828  0.8262
 5493TIP3   OH237969   5.306   3.487   5.075 -0.4685  0.1090  0.1438
 5493TIP3    H137970   5.250   3.536   5.135  1.5518  2.5612  0.1871
 5493TIP3    H237971   5.347   3.420   5.129 -1.4986 -0.1539  0.6244
 5494TIP3   OH237972   2.774   0.865  11.206  0.1294  0.1486  0.0087
 5494TIP3    H137973   2.865   0.839  11.193  0.0400  0.0797 -0.5433
 5494TIP3    H237974   2.746   0.896  11.120 -0.0621  1.1610  0.4293
 5495TIP3   OH237975   1.284   2.228   4.251 -0.7885 -0.1243 -0.4019
 5495TIP3    H137976   1.203   2.268   4.221 -1.3279 -1.5496 -0.9629
 5495TIP3    H237977   1.295   2.151   4.194  0.4249 -0.5013  0.3083
 5496TIP3   OH237978   1.283   5.861  17.007 -0.6631  0.0059  0.0106
 5496TIP3    H137979   1.373   5.882  17.031 -0.7209 -1.4179  1.7077
 5496TIP3    H237980   1.239   5.946  16.999  0.3009  0.6686  1.4243
 5497TIP3   OH237981   3.540   1.216  13.094 -0.5070  0.4968 -0.3290
 5497TIP3    H137982   3.567   1.299  13.055  1.6428 -0.0563 -0.1250
 5497TIP3    H237983   3.560   1.224  13.187  2.2128 -1.0889 -0.6719
 5498TIP3   OH237984   3.407   2.733  15.005 -0.4952 -0.2319 -0.5496
 5498TIP3    H137985   3.384   2.657  15.058  1.7406  0.4915  1.6168
 5498TIP3    H237986   3.349   2.803  15.035  1.2702  0.3896  1.6891
 5499TIP3   OH237987   1.684   3.702  13.128 -0.1742  0.4982  0.1314
 5499TIP3    H137988   1.770   3.717  13.167  0.3886  0.3513 -1.0026
 5499TIP3    H237989   1.622   3.734  13.193  0.6675 -0.8444  1.6688
 5500TIP3   OH237990   5.525   0.810   3.408 -0.1568 -0.5037  0.4443
 5500TIP3    H137991   5.451   0.867   3.428 -0.9101 -1.7541  1.4277
 5500TIP3    H237992   5.524   0.745   3.479  2.7474  0.2244  1.2946
 5501TIP3   OH237993   3.629   4.673   0.378 -0.8144 -0.2848 -0.0514
 5501TIP3    H137994   3.632   4.605   0.310 -0.4561 -0.4480  0.1273
 5501TIP3    H237995   3.575   4.634   0.447 -1.0484 -0.1798 -0.1735
 5502TIP3   OH237996   6.572   3.010  13.313 -0.7671  0.3421  0.2001
 5502TIP3    H137997   6.511   2.947  13.274  0.8145 -0.4295 -1.1937
 5502TIP3    H237998   6.626   2.957  13.372 -0.1882  0.6040 -0.0814
 5503TIP3   OH237999   2.471   3.550   4.435 -0.5639 -0.2021  0.6755
 5503TIP3    H138000   2.505   3.465   4.463  1.2819 -0.4676 -2.0209
 5503TIP3    H238001   2.418   3.531   4.358  0.7245  1.1545 -0.5920
 5504TIP3   OH238002   0.387   1.268  13.935 -0.5333  0.0372 -0.3160
 5504TIP3    H138003   0.309   1.213  13.938  0.4165 -1.3055  0.9058
 5504TIP3    H238004   0.460   1.208  13.953  0.4722  1.8063  2.0944
 5505TIP3   OH238005   4.943   2.296   4.510 -0.8077  0.8823 -0.1523
 5505TIP3    H138006   4.908   2.373   4.554 -1.0149  0.6733  0.0537
 5505TIP3    H238007   4.903   2.222   4.555  0.7198  0.5861  0.7953
 5506TIP3   OH238008   3.087   4.628  17.011 -0.0899  0.4022 -0.0281
 5506TIP3    H138009   3.061   4.691  17.078  0.0533 -0.2144  0.6265
 5506TIP3    H238010   3.078   4.543  17.054  3.0773  0.1228  0.3397
 5507TIP3   OH238011   5.164   2.034  16.273  0.5520  0.2674  0.1095
 5507TIP3    H138012   5.197   2.114  16.231 -0.8306  0.4649 -0.6476
 5507TIP3    H238013   5.220   1.965  16.238  1.0204  0.7549 -0.1260
 5508TIP3   OH238014   0.901   6.219   2.045  0.9156 -0.3139 -0.0079
 5508TIP3    H138015   0.897   6.238   1.952  1.5774 -0.0141  0.0170
 5508TIP3    H238016   0.992   6.238   2.069  0.2477  1.5928  1.1325
 5509TIP3   OH238017   6.739   3.897   5.001  0.1912 -0.4276  0.2062
 5509TIP3    H138018   6.706   3.912   5.090  0.9012  2.1344  0.1015
 5509TIP3    H238019   6.831   3.875   5.013  0.4383  0.5221  0.0885
 5510TIP3   OH238020   2.219   0.020  12.090 -0.2759 -0.0243 -0.2495
 5510TIP3    H138021   2.195   0.029  12.182 -0.2621 -0.9214 -0.1434
 5510TIP3    H238022   2.226   0.110  12.058 -0.7621  0.2944  0.4964
 5511TIP3   OH238023   6.180   0.797   4.418 -0.4608  0.0507  0.0159
 5511TIP3    H138024   6.268   0.765   4.399 -0.1310  0.2788  1.1111
 5511TIP3    H238025   6.160   0.856   4.345 -0.4280 -1.3424 -1.1743
 5512TIP3   OH238026   1.884   4.104  15.442  0.5745 -0.2489  0.4664
 5512TIP3    H138027   1.846   4.172  15.388  2.1993 -0.2210 -0.6938
 5512TIP3    H238028   1.917   4.150  15.519 -0.8074 -0.1527  1.0445
 5513TIP3   OH238029   5.339   2.228   3.711  0.0231 -0.2725  0.6384
 5513TIP3    H138030   5.288   2.157   3.750  2.2315 -2.2991  0.0572
 5513TIP3    H238031   5.408   2.247   3.775  1.0470 -0.5659 -0.3398
 5514TIP3   OH238032   1.000   6.282  16.624  0.3200  0.3037  0.6109
 5514TIP3    H138033   0.991   6.214  16.691  0.7807  1.2242  1.6417
 5514TIP3    H238034   1.002   6.234  16.542 -0.3457 -0.8575  1.2402
 5515TIP3   OH238035   3.245   1.373   3.831  0.6722 -0.0840 -0.3534
 5515TIP3    H138036   3.303   1.444   3.860 -1.1636  0.2819  2.9442
 5515TIP3    H238037   3.174   1.418   3.784  0.5221  0.0523  0.0013
 5516TIP3   OH238038   3.423   2.069   5.213  0.1020 -0.7575  0.0872
 5516TIP3    H138039   3.465   2.066   5.127 -1.9538  1.3343 -1.1128
 5516TIP3    H238040   3.329   2.072   5.194 -0.4185  0.1283  2.3856
 5517TIP3   OH238041   3.949   0.038   4.630 -0.1303 -0.2411  0.1495
 5517TIP3    H138042   4.039   0.055   4.659 -0.6600  1.0798  1.1307
 5517TIP3    H238043   3.955   0.030   4.535  0.9238  0.5543  0.1297
 5518TIP3   OH238044   4.340   2.565   4.888 -0.1646  0.3081 -0.3908
 5518TIP3    H138045   4.371   2.642   4.936 -0.1465 -0.4165  0.8058
 5518TIP3    H238046   4.419   2.526   4.851 -0.0650  0.3981 -0.2740
 5519TIP3   OH238047   6.820   1.209   5.532 -0.6820  0.8903 -0.1198
 5519TIP3    H138048   6.897   1.262   5.554 -1.8011  1.2858  3.5746
 5519TIP3    H238049   6.851   1.119   5.536 -0.0826  1.0887 -0.1932
 5520TIP3   OH238050   3.055   1.699  14.545 -0.2730  0.0434 -0.8350
 5520TIP3    H138051   2.997   1.715  14.470  0.0038 -0.0854 -1.0783
 5520TIP3    H238052   3.043   1.606  14.565 -0.9988  0.2755 -0.1668
 5521TIP3   OH238053   0.512   1.744   1.697 -0.1920 -0.2676 -0.7387
 5521TIP3    H138054   0.518   1.754   1.792 -0.2719 -0.9427 -0.6556
 5521TIP3    H238055   0.534   1.652   1.682 -2.1380 -0.7121 -1.1797
 5522TIP3   OH238056   1.819   0.062  13.041 -0.1243  0.3064 -0.4389
 5522TIP3    H138057   1.794   0.097  12.956 -1.3262 -1.7108 -0.9812
 5522TIP3    H238058   1.888  -0.002  13.022 -0.8076 -0.5895 -0.0179
 5523TIP3   OH238059   4.345   5.120   3.936 -0.4307  0.2331 -0.4539
 5523TIP3    H138060   4.262   5.081   3.907 -1.2387  1.1765  0.4935
 5523TIP3    H238061   4.345   5.207   3.897 -0.2393  0.5098  0.1570
 5524TIP3   OH238062   4.551   6.519  12.392 -0.0908 -0.3984  0.1025
 5524TIP3    H138063   4.487   6.564  12.448  0.1892  0.9154 -0.5819
 5524TIP3    H238064   4.583   6.447  12.446 -2.5952 -1.5295  0.2371
 5525TIP3   OH238065   5.384   1.656  13.458 -0.0925 -0.2067 -0.2547
 5525TIP3    H138066   5.359   1.573  13.417  1.8025 -0.1765 -1.5979
 5525TIP3    H238067   5.321   1.720  13.422 -0.2760 -0.7050 -0.8294
 5526TIP3   OH238068   6.477   0.024   2.549 -0.0429 -0.0894  0.4167
 5526TIP3    H138069   6.558   0.039   2.500  1.3669 -0.1151  2.6005
 5526TIP3    H238070   6.412   0.076   2.503  1.3983  0.6453 -0.9122
 5527TIP3   OH238071   2.673   2.117  15.637  0.4057  0.2707  0.0601
 5527TIP3    H138072   2.752   2.166  15.659 -0.4120  1.3118  0.8193
 5527TIP3    H238073   2.628   2.173  15.573  1.3966 -1.4235 -2.2786
 5528TIP3   OH238074   4.567   3.269   2.164  0.2360 -0.3781  0.1629
 5528TIP3    H138075   4.530   3.209   2.099  0.2234 -0.2432  0.0445
 5528TIP3    H238076   4.651   3.230   2.187 -0.8167 -1.7733  1.9221
 5529TIP3   OH238077   4.763   0.636  13.884  0.4800 -0.1779 -0.4070
 5529TIP3    H138078   4.786   0.725  13.858 -0.4197 -0.2980 -1.6942
 5529TIP3    H238079   4.847   0.591  13.896  0.9449  0.8537  0.3907
 5530TIP3   OH238080   2.586   5.494   2.777 -0.0349 -0.0174 -0.3176
 5530TIP3    H138081   2.571   5.405   2.746  2.1771 -0.7630  0.5178
 5530TIP3    H238082   2.632   5.537   2.705 -1.0970  0.4883 -0.7181
 5531TIP3   OH238083   0.385   5.252   1.148 -0.6894 -0.2316 -0.1847
 5531TIP3    H138084   0.420   5.223   1.232 -1.7495 -0.3516  0.2288
 5531TIP3    H238085   0.390   5.175   1.092  0.0359 -0.1463 -0.2436
 5532TIP3   OH238086   1.179   3.181  15.666  0.1770 -0.3408 -0.0229
 5532TIP3    H138087   1.111   3.227  15.716  0.9264  0.8941 -0.1022
 5532TIP3    H238088   1.167   3.211  15.576  1.2508  0.4633  0.0746
 5533TIP3   OH238089   3.564   0.389  10.345 -0.1548 -0.1581  0.1363
 5533TIP3    H138090   3.497   0.353  10.287  0.7268 -0.5661 -0.6548
 5533TIP3    H238091   3.629   0.428  10.287  1.1643 -1.2815  0.7583
 5534TIP3   OH238092   3.927   2.961   1.156 -0.3572  0.1109  0.4181
 5534TIP3    H138093   3.967   3.040   1.121 -1.4056  0.2708 -0.4642
 5534TIP3    H238094   3.917   2.903   1.081  0.9518 -1.1240  1.1478
 5535TIP3   OH238095   6.638   1.019   3.594 -0.0690 -0.1085 -0.5840
 5535TIP3    H138096   6.698   0.987   3.527  0.5983 -0.2721  0.0779
 5535TIP3    H238097   6.651   1.114   3.595  2.0566 -0.3401  1.2612
 5536TIP3   OH238098   2.175   1.380  15.907  0.4907 -0.2704 -0.1111
 5536TIP3    H138099   2.245   1.383  15.841  0.8411 -2.0973  0.1436
 5536TIP3    H238100   2.111   1.318  15.873 -0.7808  0.9605 -0.0675
 5537TIP3   OH238101   1.112   6.813  10.993  0.5861 -0.0047 -0.5183
 5537TIP3    H138102   1.017   6.822  10.993  0.7366  2.2186  0.1770
 5537TIP3    H238103   1.130   6.746  10.927 -1.4789 -1.1210 -0.0371
 5538TIP3   OH238104   2.011   4.923  15.433 -0.9739  0.0055 -0.4134
 5538TIP3    H138105   1.993   5.016  15.446  1.6855  0.6502 -0.8023
 5538TIP3    H238106   1.999   4.884  15.520 -0.3899  1.0584  0.1628
 5539TIP3   OH238107   0.516   1.466   1.628  0.5998 -0.3205 -0.5281
 5539TIP3    H138108   0.465   1.397   1.671  1.9147 -2.4537 -2.2121
 5539TIP3    H238109   0.595   1.422   1.596  2.0079  2.1982 -0.8199
 5540TIP3   OH238110   0.980   1.471   4.869 -0.1998  0.0034 -0.2099
 5540TIP3    H138111   0.971   1.379   4.893 -1.5088  0.0918 -0.2557
 5540TIP3    H238112   1.037   1.470   4.792  0.3627 -0.6987  0.2083
 5541TIP3   OH238113   3.383   3.819  12.635 -0.5731  0.5668  0.0744
 5541TIP3    H138114   3.353   3.791  12.722  0.0899  0.5938  0.3165
 5541TIP3    H238115   3.392   3.914  12.643 -1.2122  0.6569 -0.2459
 5542TIP3   OH238116   3.242   0.497   5.572 -0.4613  0.5840 -0.4105
 5542TIP3    H138117   3.264   0.579   5.616  0.9225  0.0298 -0.0206
 5542TIP3    H238118   3.259   0.513   5.480  0.4893  0.5369 -0.2522
 5543TIP3   OH238119   5.669   3.177   5.673 -0.2055  0.4706  0.2418
 5543TIP3    H138120   5.712   3.234   5.608 -1.2815 -0.6960 -1.5990
 5543TIP3    H238121   5.577   3.181   5.650 -0.3354 -1.8536  0.1624
 5544TIP3   OH238122   0.651   1.061  12.154 -0.2157 -0.1775 -0.3720
 5544TIP3    H138123   0.746   1.065  12.169 -0.1693 -0.8802 -0.4451
 5544TIP3    H238124   0.634   0.969  12.133 -1.0674 -0.2735  0.6579
 5545TIP3   OH238125   6.171   3.341   2.762  0.0237  0.1910 -0.5605
 5545TIP3    H138126   6.155   3.376   2.850 -1.8195  0.4436 -0.9661
 5545TIP3    H238127   6.178   3.419   2.707 -2.2502  0.0369 -1.1635
 5546TIP3   OH238128   4.558   6.579   4.542  0.5140  0.0394  0.3240
 5546TIP3    H138129   4.528   6.489   4.529 -0.5301  0.6498 -1.7705
 5546TIP3    H238130   4.654   6.570   4.550  0.6767 -1.1035 -1.9889
 5547TIP3   OH238131   1.044   0.743  12.316 -0.4520 -0.6792 -0.2176
 5547TIP3    H138132   1.084   0.757  12.402 -0.2253 -0.7541 -0.3108
 5547TIP3    H238133   1.107   0.778  12.254 -1.5010  1.2404 -0.2639
 5548TIP3   OH238134   4.368   3.168   2.408  0.6195 -0.6438 -0.7710
 5548TIP3    H138135   4.273   3.170   2.395  0.5397 -0.1943 -0.1555
 5548TIP3    H238136   4.402   3.121   2.331 -0.0205 -0.0084 -1.4550
 5549TIP3   OH238137   0.107   1.157   0.450  0.2698 -0.5249  0.5379
 5549TIP3    H138138   0.160   1.138   0.528 -1.5933 -1.3278  1.6831
 5549TIP3    H238139   0.080   1.071   0.418  1.6212 -0.2618 -1.5255
 5550TIP3   OH238140   4.522   0.059   5.121 -0.3484 -0.5993 -0.0421
 5550TIP3    H138141   4.532   0.054   5.026  0.2517  0.6610 -0.0654
 5550TIP3    H238142   4.601   0.105   5.151 -0.7895 -0.5004  1.0114
 5551TIP3   OH238143   4.953   2.323  14.913  0.2705 -0.3032  0.6051
 5551TIP3    H138144   5.042   2.343  14.882  0.4710  0.7144  1.7715
 5551TIP3    H238145   4.952   2.353  15.004 -1.3325 -0.1098  0.5533
 5552TIP3   OH238146   3.167   1.167  11.960  0.2111 -0.6402 -0.2024
 5552TIP3    H138147   3.262   1.162  11.947  0.3230  0.3279  0.1907
 5552TIP3    H238148   3.135   1.215  11.884  0.2814  0.7098  0.5880
 5553TIP3   OH238149   2.768   4.086   1.359  0.2028  0.0076  0.0889
 5553TIP3    H138150   2.745   4.142   1.434 -0.6885 -0.4778  0.1923
 5553TIP3    H238151   2.766   4.145   1.284  1.3230  0.5485  0.4633
 5554TIP3   OH238152   5.572   0.845   0.164 -0.2376  0.1854 -0.1483
 5554TIP3    H138153   5.595   0.771   0.107  1.0448 -0.1966  0.8210
 5554TIP3    H238154   5.501   0.889   0.118 -0.8660 -1.4998 -0.8741
 5555TIP3   OH238155   3.929   1.635   2.325 -0.0767  0.0143 -0.2503
 5555TIP3    H138156   3.892   1.721   2.347  0.5214 -0.2357  2.0639
 5555TIP3    H238157   4.018   1.653   2.298 -0.2232  0.1922 -0.6158
 5556TIP3   OH238158   6.224   5.001  12.831 -0.5928 -0.2049 -0.4900
 5556TIP3    H138159   6.240   5.092  12.852 -0.3848  0.4517 -3.0947
 5556TIP3    H238160   6.275   4.952  12.895  1.0924  1.5664 -0.3793
 5557TIP3   OH238161   6.229   5.923  16.098  0.0879  0.3642 -0.1862
 5557TIP3    H138162   6.210   5.987  16.167 -1.6925 -0.0203 -0.2550
 5557TIP3    H238163   6.220   5.838  16.141 -1.3123  0.1137 -0.8926
 5558TIP3   OH238164   0.894   6.082   0.958 -0.2109  0.3245  0.4718
 5558TIP3    H138165   0.959   6.019   0.926 -1.0360  0.2981 -1.2432
 5558TIP3    H238166   0.946   6.155   0.991  0.6963 -0.1206  0.0685
 5559TIP3   OH238167   3.741   3.112   0.771 -0.3903  0.5178 -0.0036
 5559TIP3    H138168   3.729   3.163   0.691  0.6744  0.3376 -0.2973
 5559TIP3    H238169   3.818   3.150   0.813 -1.1459  0.8493  1.1401
 5560TIP3   OH238170   3.385   2.497  12.458  0.6660  0.3756 -0.2261
 5560TIP3    H138171   3.418   2.570  12.405  1.1368  0.1151 -0.2972
 5560TIP3    H238172   3.457   2.475  12.517  1.1688 -1.1415 -1.3557
 5561TIP3   OH238173   5.563   5.039   1.176 -0.4984 -0.1155  0.1729
 5561TIP3    H138174   5.582   5.072   1.264 -1.3193  1.6778 -0.2577
 5561TIP3    H238175   5.532   4.950   1.189  0.4806 -0.2728  1.5882
 5562TIP3   OH238176   3.617   0.158  11.883 -0.5629 -0.3945  0.4401
 5562TIP3    H138177   3.651   0.165  11.973  1.6696 -2.3694 -0.1470
 5562TIP3    H238178   3.636   0.243  11.844 -0.4381  0.0731  1.4727
 5563TIP3   OH238179   0.158   6.335   6.219  0.4056  0.0456 -0.7419
 5563TIP3    H138180   0.107   6.255   6.233  0.0410  0.3733 -0.1345
 5563TIP3    H238181   0.210   6.344   6.299  2.8151 -1.2648 -2.0549
 5564TIP3   OH238182   6.676   4.897  13.927  0.5236  0.0826 -0.1334
 5564TIP3    H138183   6.688   4.863  13.838  0.4160 -2.0091  0.6068
 5564TIP3    H238184   6.764   4.913  13.960  0.5513  1.5525 -0.8139
 5565TIP3   OH238185   3.824   2.177   0.487  1.0143 -0.6251 -0.1908
 5565TIP3    H138186   3.843   2.221   0.405  2.9396  0.0409  0.5571
 5565TIP3    H238187   3.763   2.235   0.532  1.2586 -0.1650 -0.4482
 5566TIP3   OH238188   1.306   3.471   0.829 -0.4714 -0.7543 -0.1919
 5566TIP3    H138189   1.313   3.380   0.802 -1.7823 -1.3138  1.2159
 5566TIP3    H238190   1.311   3.468   0.924  0.6012  0.7919 -0.1592
 5567TIP3   OH238191   6.668   3.601   1.590  0.3385 -0.5604 -0.1346
 5567TIP3    H138192   6.759   3.629   1.596  0.2331  0.1936 -1.4351
 5567TIP3    H238193   6.658   3.533   1.656  1.7460 -0.3999  0.2630
 5568TIP3   OH238194   3.657   2.628  11.024 -0.5122 -0.2429 -0.2729
 5568TIP3    H138195   3.592   2.558  11.026 -1.5837  0.7301  0.2216
 5568TIP3    H238196   3.711   2.613  11.102  0.5782 -1.6804 -1.2572
 5569TIP3   OH238197   1.138   6.480   4.687 -0.4111  0.2528 -0.9071
 5569TIP3    H138198   1.078   6.551   4.666 -0.8798  0.3188  0.5435
 5569TIP3    H238199   1.166   6.497   4.777  0.7088 -0.5372 -1.0716
 5570TIP3   OH238200   6.225   1.760   2.316  0.2109  0.3228 -0.1358
 5570TIP3    H138201   6.312   1.766   2.355 -0.2250  0.0606  0.9088
 5570TIP3    H238202   6.168   1.732   2.387 -0.5581 -0.5251 -1.0497
 5571TIP3   OH238203   6.593   1.998  11.483  0.3103 -0.5454 -0.5056
 5571TIP3    H138204   6.601   2.087  11.517  0.1295 -1.1251  1.1537
 5571TIP3    H238205   6.532   2.006  11.409 -1.5360  0.4157  1.0200
 5572TIP3   OH238206   3.767   4.836  13.696 -0.0890 -0.3206  0.3892
 5572TIP3    H138207   3.791   4.811  13.785 -1.0749 -0.3314  0.6708
 5572TIP3    H238208   3.702   4.906  13.709 -0.2630 -0.3492 -0.3178
 5573TIP3   OH238209   2.325   2.937  13.732  0.0592  0.7269  0.7559
 5573TIP3    H138210   2.386   2.933  13.805  0.2900  1.2357  0.5965
 5573TIP3    H238211   2.242   2.965  13.771 -0.1843 -0.3275  1.0326
 5574TIP3   OH238212   0.940   0.111  17.187 -0.0060 -0.3417 -0.3104
 5574TIP3    H138213   0.905   0.022  17.196  0.4374 -0.7554 -2.2221
 5574TIP3    H238214   1.031   0.104  17.216 -0.0170 -0.4908 -0.3115
 5575TIP3   OH238215   0.633   0.770  15.759 -0.4212  0.0620 -0.6548
 5575TIP3    H138216   0.633   0.851  15.809 -0.5654 -0.1794 -0.2597
 5575TIP3    H238217   0.579   0.710  15.810 -1.7796  0.2492 -1.8203
 5576TIP3   OH238218   0.126   2.889   3.205  0.2693 -0.1899 -0.4322
 5576TIP3    H138219   0.042   2.850   3.181 -1.7816  1.0989  3.6970
 5576TIP3    H238220   0.177   2.817   3.242 -0.7309 -0.3131  0.7875
 5577TIP3   OH238221   2.765   5.923  10.958  0.0664  0.4307 -0.3081
 5577TIP3    H138222   2.795   5.853  10.900 -0.8464  0.6401 -1.0540
 5577TIP3    H238223   2.824   5.918  11.033  1.0867 -0.0391 -1.1131
 5578TIP3   OH238224   2.161   4.107  11.932  0.7418 -0.3088  0.5667
 5578TIP3    H138225   2.099   4.035  11.920  0.7171 -0.1388 -0.4107
 5578TIP3    H238226   2.108   4.186  11.923  0.8812 -0.1632  1.0085
 5579TIP3   OH238227   4.996   3.540  16.945  0.1547  0.3388 -0.3106
 5579TIP3    H138228   4.936   3.603  16.984 -0.8585 -0.3490 -0.7377
 5579TIP3    H238229   4.973   3.456  16.986  1.2173  0.1618 -0.0419
 5580TIP3   OH238230   4.595   0.551  13.135 -0.1554 -0.2183 -0.4844
 5580TIP3    H138231   4.505   0.520  13.136 -0.8732  1.7134 -1.3401
 5580TIP3    H238232   4.592   0.636  13.177  1.2099  0.0212 -0.8169
 5581TIP3   OH238233   0.700   1.989   4.832 -0.0530 -0.4146  0.4415
 5581TIP3    H138234   0.709   2.030   4.918 -1.9440 -0.1277  0.5332
 5581TIP3    H238235   0.636   1.920   4.845  1.2559 -1.8168 -0.2845
 5582TIP3   OH238236   4.892   0.429  11.463  0.5553  0.1434  0.0520
 5582TIP3    H138237   4.918   0.464  11.378  1.1062  2.9535  1.2675
 5582TIP3    H238238   4.966   0.448  11.521 -0.5432  0.0395  1.5555
 5583TIP3   OH238239   6.112   0.338   4.517 -0.0248  0.2646 -0.0334
 5583TIP3    H138240   6.023   0.316   4.546  0.8913 -0.1121  2.8761
 5583TIP3    H238241   6.115   0.433   4.519 -0.3992  0.2844 -0.2896
 5584TIP3   OH238242   0.754   6.017  16.427  0.1713 -0.1716  0.7160
 5584TIP3    H138243   0.730   6.057  16.510  0.2647 -0.3024  0.8053
 5584TIP3    H238244   0.780   5.928  16.449 -0.2875 -0.3675  0.4852
 5585TIP3   OH238245   5.832   2.277  13.906  0.0832 -0.0623 -0.2208
 5585TIP3    H138246   5.870   2.198  13.944 -1.3419 -0.3523  0.6883
 5585TIP3    H238247   5.825   2.258  13.812  1.5004 -0.2553 -0.2969
 5586TIP3   OH238248   4.180   2.195  15.995  0.1845  0.6230  0.1746
 5586TIP3    H138249   4.158   2.288  15.989 -0.3049  0.5670  1.0030
 5586TIP3    H238250   4.226   2.176  15.913  2.3946  2.1615  0.9700
 5587TIP3   OH238251   6.419   2.526   4.082  0.1171  0.2299 -0.0954
 5587TIP3    H138252   6.497   2.563   4.124 -0.0408  1.4772 -0.8668
 5587TIP3    H238253   6.420   2.434   4.109  0.9757  0.5805  1.1982
 5588TIP3   OH238254   3.671   0.336  15.848  0.2627 -0.0301  0.0134
 5588TIP3    H138255   3.746   0.360  15.793  0.3863  1.0274  0.6074
 5588TIP3    H238256   3.601   0.317  15.786  1.1680 -1.6091 -0.5731
 5589TIP3   OH238257   0.142   3.860  15.092  0.0138 -0.3383 -0.7140
 5589TIP3    H138258   0.063   3.891  15.137 -0.3463 -0.5181 -1.2075
 5589TIP3    H238259   0.108   3.809  15.018  0.5950 -1.0573 -0.4939
 5590TIP3   OH238260   0.674   0.600   4.998  0.6437 -0.1549 -0.4353
 5590TIP3    H138261   0.677   0.569   4.908  0.9248 -1.1332 -0.0949
 5590TIP3    H238262   0.620   0.679   4.994  0.2190 -0.4812 -1.3753
 5591TIP3   OH238263   3.488   1.089  13.695 -0.0266 -0.7005  0.1810
 5591TIP3    H138264   3.438   1.062  13.619  0.9419 -1.1570 -0.3110
 5591TIP3    H238265   3.575   1.051  13.682  0.6996  0.7205  0.6078
 5592TIP3   OH238266   0.197   3.955  16.857 -0.4643 -0.2408 -0.0675
 5592TIP3    H138267   0.282   3.994  16.876 -0.9240  0.6312  0.2329
 5592TIP3    H238268   0.210   3.861  16.873 -0.1564  0.1374  2.1491
 5593TIP3   OH238269   4.235   6.756  13.073  1.0385  0.3205 -0.4354
 5593TIP3    H138270   4.165   6.744  13.009  1.7015 -0.0925 -1.1048
 5593TIP3    H238271   4.193   6.800  13.147 -0.2147 -1.0786 -0.2765
 5594TIP3   OH238272   2.255   3.716   4.725  0.6503  0.0831  0.2157
 5594TIP3    H138273   2.314   3.657   4.773 -0.1437 -1.1044 -0.2318
 5594TIP3    H238274   2.184   3.733   4.786 -0.3990 -1.4894 -0.4978
 5595TIP3   OH238275   2.874   0.875   2.371  0.2633 -0.1982 -0.3591
 5595TIP3    H138276   2.891   0.801   2.429 -0.7076 -1.0417 -1.1037
 5595TIP3    H238277   2.783   0.899   2.389  0.2024  0.0398 -0.9513
 5596TIP3   OH238278   2.830   3.374  11.993 -0.3265  0.4885  0.0490
 5596TIP3    H138279   2.887   3.363  11.917  0.4089 -1.1635  0.7783
 5596TIP3    H238280   2.881   3.341  12.067 -2.2600 -1.2664  0.7060
 5597TIP3   OH238281   1.573   4.811  12.586 -0.3456  0.2615 -0.3137
 5597TIP3    H138282   1.636   4.849  12.648 -0.0870  1.2303 -1.1310
 5597TIP3    H238283   1.494   4.797  12.638  0.5010 -0.9360  0.7248
 5598TIP3   OH238284   6.684   0.919   2.013 -0.4647  0.3222  0.2364
 5598TIP3    H138285   6.644   1.004   2.032 -0.3243  0.4226  0.0987
 5598TIP3    H238286   6.678   0.870   2.095 -0.5333  0.4712  0.3215
 5599TIP3   OH238287   6.304   0.309   1.883 -0.1010 -0.5521  0.2129
 5599TIP3    H138288   6.323   0.227   1.930  0.7688 -0.0005  0.8487
 5599TIP3    H238289   6.301   0.376   1.951 -1.2118 -0.0984 -0.2564
 5600TIP3   OH238290   5.817   4.468  11.273  0.3615  0.4153 -0.0984
 5600TIP3    H138291   5.732   4.507  11.256  0.2173  0.5675  0.9594
 5600TIP3    H238292   5.824   4.398  11.207 -1.3662 -0.7933  0.9135
 5601TIP3   OH238293   2.211   3.393  14.230 -0.3522 -0.3304 -0.3493
 5601TIP3    H138294   2.156   3.343  14.169 -1.5020 -0.2030  0.5312
 5601TIP3    H238295   2.271   3.329  14.266  1.2512 -0.1638 -2.5381
 5602TIP3   OH238296   0.203   2.958   3.540 -0.6966  0.2999  0.4950
 5602TIP3    H138297   0.276   2.920   3.491 -0.4820  1.8202 -0.4137
 5602TIP3    H238298   0.219   2.932   3.631 -0.1453 -1.0769  0.0345
 5603TIP3   OH238299   2.806   4.812  14.132 -0.0431 -0.0911 -0.2356
 5603TIP3    H138300   2.855   4.783  14.209  0.0357  0.1666 -0.1908
 5603TIP3    H238301   2.851   4.892  14.104 -1.3832  1.0460  0.7364
 5604TIP3   OH238302   2.368   4.357  14.922 -0.2893  0.5145 -0.0206
 5604TIP3    H138303   2.449   4.398  14.951 -0.0744 -0.5363  0.9265
 5604TIP3    H238304   2.373   4.267  14.954 -1.7019  0.3410 -0.1904
 5605TIP3   OH238305   1.450   1.132   0.759  0.1197  0.1818 -0.2906
 5605TIP3    H138306   1.464   1.132   0.854  1.4734 -1.0995 -0.4488
 5605TIP3    H238307   1.355   1.139   0.749 -0.0547  0.1915  1.1655
 5606TIP3   OH238308   2.195   0.626  15.583  0.0635  0.3250  0.8604
 5606TIP3    H138309   2.220   0.686  15.654 -1.3828  0.4687  1.2794
 5606TIP3    H238310   2.229   0.668  15.504 -0.3080  1.3675  1.2275
 5607TIP3   OH238311   0.481   6.012  11.818 -0.3659 -0.4071  0.2272
 5607TIP3    H138312   0.548   5.978  11.758  0.0305 -2.3446  1.6912
 5607TIP3    H238313   0.400   5.968  11.791 -1.2427  2.1869 -1.7614
 5608TIP3   OH238314   1.682   3.350   0.481  0.2392  0.2825  0.5755
 5608TIP3    H138315   1.666   3.262   0.514  1.6088 -0.2492 -0.1111
 5608TIP3    H238316   1.708   3.338   0.390  1.2323  1.3152  0.6958
 5609TIP3   OH238317   0.017   2.927   2.836 -0.3469 -0.4952 -0.2009
 5609TIP3    H138318  -0.070   2.929   2.798 -1.2853 -2.4254  1.6539
 5609TIP3    H238319   0.028   3.014   2.875 -2.7350 -1.0893  2.0724
 5610TIP3   OH238320   0.118   5.098  16.992  0.0567  0.1751 -0.1512
 5610TIP3    H138321   0.188   5.049  17.035 -0.6120 -0.3247  0.4159
 5610TIP3    H238322   0.085   5.156  17.061 -0.6420 -0.2151 -0.1461
 5611TIP3   OH238323   3.151   6.604  16.383 -0.0639 -0.4722  0.7761
 5611TIP3    H138324   3.241   6.620  16.409 -0.5821 -1.1337  3.2547
 5611TIP3    H238325   3.157   6.566  16.296  2.0512 -0.6279  0.9541
 5612TIP3   OH238326   4.592   2.002   1.546 -0.4498 -0.2634 -0.6856
 5612TIP3    H138327   4.499   1.994   1.568 -0.8531  2.6289 -0.9889
 5612TIP3    H238328   4.597   1.975   1.454 -1.3627  1.2914 -1.2215
 5613TIP3   OH238329   6.332   2.484   4.493 -1.0637 -0.0315  0.2735
 5613TIP3    H138330   6.272   2.421   4.533 -0.7278 -1.2691 -1.0812
 5613TIP3    H238331   6.418   2.459   4.528 -0.7554 -1.1830 -1.2325
 5614TIP3   OH238332   2.094   0.777   3.585  0.1094  0.5981  0.3415
 5614TIP3    H138333   2.037   0.762   3.660  0.1456 -2.3289 -0.0834
 5614TIP3    H238334   2.102   0.872   3.579 -1.4527  0.9752  2.8304
 5615TIP3   OH238335   6.546   6.777  13.860 -0.2873 -0.0673 -0.1016
 5615TIP3    H138336   6.500   6.831  13.924 -0.7468 -0.5289 -0.0363
 5615TIP3    H238337   6.481   6.758  13.793  0.3513  0.9082 -1.0274
 5616TIP3   OH238338   5.140   0.988   3.978 -0.5396 -0.4180 -0.4034
 5616TIP3    H138339   5.161   0.959   4.066 -1.1533  1.1697  0.2965
 5616TIP3    H238340   5.135   0.907   3.926  1.5961 -1.2724  0.5905
 5617TIP3   OH238341   5.192   6.015   6.250  0.0596 -0.2554  0.3165
 5617TIP3    H138342   5.218   5.964   6.326 -1.4467  1.6560  2.2337
 5617TIP3    H238343   5.130   5.959   6.204  0.2812 -1.0799  0.9895
 5618TIP3   OH238344   4.703   4.311  16.644 -0.0629  0.3393 -0.5959
 5618TIP3    H138345   4.687   4.396  16.603 -0.3565  0.4292 -0.2920
 5618TIP3    H238346   4.727   4.253  16.571 -0.1989  0.5965 -0.8429
 5619TIP3   OH238347   5.094   1.628   3.121 -0.3072 -0.6271  0.6100
 5619TIP3    H138348   5.062   1.558   3.064  1.5515 -0.3261 -0.9226
 5619TIP3    H238349   5.165   1.586   3.171  0.9863  0.1578 -0.4970
 5620TIP3   OH238350   0.213   5.365  11.802 -0.2841 -0.3483 -0.2713
 5620TIP3    H138351   0.171   5.414  11.731  1.2253  0.4149 -0.6942
 5620TIP3    H238352   0.306   5.366  11.779  0.1126 -0.9814  1.2036
 5621TIP3   OH238353   6.524   4.967  10.855  0.2023  0.2824 -0.1547
 5621TIP3    H138354   6.568   4.973  10.771 -0.4511 -1.0915 -0.6424
 5621TIP3    H238355   6.504   4.873  10.864 -0.2198  0.4874  1.2741
 5622TIP3   OH238356   4.009   5.695  16.356  0.1058  0.4167  0.6495
 5622TIP3    H138357   3.996   5.696  16.451 -0.0800 -1.0876  0.6540
 5622TIP3    H238358   3.922   5.704  16.319 -0.2995 -2.4629  0.6733
 5623TIP3   OH238359   1.572   2.348   2.828  0.0121 -1.2383 -0.5731
 5623TIP3    H138360   1.618   2.302   2.758  2.7585 -1.1619  1.0305
 5623TIP3    H238361   1.540   2.428   2.787  0.0216 -2.0079 -2.1345
 5624TIP3   OH238362   2.804   5.964  17.149 -0.0212  0.2594 -0.3202
 5624TIP3    H138363   2.875   5.929  17.202  1.7326  2.4275 -1.1308
 5624TIP3    H238364   2.748   5.888  17.132  1.0325 -1.1217  1.9270
 5625TIP3   OH238365   4.385   5.573   5.818 -0.0429  0.1026  0.2562
 5625TIP3    H138366   4.441   5.645   5.849 -1.0513  0.7359  0.6755
 5625TIP3    H238367   4.316   5.617   5.768 -0.3898 -0.6300  0.0827
 5626TIP3   OH238368   4.176   1.146   4.902  0.0865 -0.0934  0.4052
 5626TIP3    H138369   4.205   1.225   4.856 -2.1164 -0.6274 -2.2222
 5626TIP3    H238370   4.255   1.093   4.913  1.0639  1.0370 -0.9059
 5627TIP3   OH238371   0.628   4.835   5.241 -0.2767 -0.6637 -0.1914
 5627TIP3    H138372   0.672   4.902   5.189 -1.9793 -0.1670 -1.0912
 5627TIP3    H238373   0.664   4.846   5.329  0.5040  0.4889 -0.6251
 5628TIP3   OH238374   5.078   5.295   3.850 -0.1073  0.5178 -0.2858
 5628TIP3    H138375   5.082   5.380   3.894 -0.7167  0.6608 -0.4999
 5628TIP3    H238376   5.062   5.232   3.921 -1.8858  0.8330 -0.3609
 5629TIP3   OH238377   1.587   1.641   3.568  0.2904 -0.4919 -0.8014
 5629TIP3    H138378   1.604   1.633   3.662 -0.2995 -2.8951 -0.8176
 5629TIP3    H238379   1.525   1.713   3.560  0.5684 -0.0707  0.6123
 5630TIP3   OH238380   1.939   0.440  13.969  0.2737  0.4542  0.1586
 5630TIP3    H138381   1.860   0.484  14.001  2.2231  2.1271  3.0818
 5630TIP3    H238382   1.947   0.362  14.023  0.4928  0.1490 -0.3092
 5631TIP3   OH238383   1.843   5.954  11.306 -0.6842  0.0411 -0.6340
 5631TIP3    H138384   1.787   6.031  11.300  0.0609  0.7415  1.0001
 5631TIP3    H238385   1.822   5.915  11.391  1.2655  0.3030  0.0112
 5632TIP3   OH238386   0.562   4.140   3.628  0.5359 -0.5407 -0.2503
 5632TIP3    H138387   0.590   4.202   3.695 -0.0797  0.0638 -0.5469
 5632TIP3    H238388   0.507   4.191   3.569  0.4270 -1.2520 -0.7800
 5633TIP3   OH238389   2.298   4.799  15.693  0.2716  0.0045 -0.6509
 5633TIP3    H138390   2.234   4.729  15.707 -1.7969  1.0857 -3.7844
 5633TIP3    H238391   2.258   4.876  15.732 -0.3578  0.6497 -2.4718
 5634TIP3   OH238392   1.801   2.600  14.446  0.1611 -0.1887 -0.5326
 5634TIP3    H138393   1.732   2.644  14.397  0.4824 -0.7805 -1.5480
 5634TIP3    H238394   1.757   2.526  14.488  0.0111 -0.0548 -0.4522
 5635TIP3   OH238395   0.248   4.569  10.816  0.3336  0.8039  0.1442
 5635TIP3    H138396   0.315   4.637  10.813  1.5007 -0.3229 -0.4218
 5635TIP3    H238397   0.297   4.487  10.811 -1.0917 -0.0600 -0.3114
 5636TIP3   OH238398   1.894   3.991   3.719  0.2110 -0.1797 -0.3169
 5636TIP3    H138399   1.904   3.974   3.813  3.9054 -1.0331 -0.7233
 5636TIP3    H238400   1.861   3.909   3.683  0.0398 -0.2814  0.0732
 5637TIP3   OH238401   1.942   5.935  11.008 -0.1543 -0.0547  0.2092
 5637TIP3    H138402   1.948   6.019  10.962  1.1114 -0.3086 -0.1240
 5637TIP3    H238403   1.909   5.958  11.095 -1.1299  0.6097 -0.3129
 5638TIP3   OH238404   3.704   2.082  11.178 -0.4972  0.6807  0.7693
 5638TIP3    H138405   3.754   2.123  11.248 -2.9279  1.5812  2.0804
 5638TIP3    H238406   3.677   1.998  11.214 -0.3530  0.4130  0.2596
 5639TIP3   OH238407   4.712   0.051   3.408  0.4122 -0.2391  0.1980
 5639TIP3    H138408   4.736  -0.024   3.462 -2.6396 -1.6060 -0.1409
 5639TIP3    H238409   4.636   0.089   3.452 -1.2056 -0.4492 -2.2022
 5640TIP3   OH238410   4.583   2.872   3.452  0.2983  0.2063 -0.0248
 5640TIP3    H138411   4.531   2.792   3.449  1.2315 -0.4090 -2.2308
 5640TIP3    H238412   4.584   2.897   3.544 -2.0005 -0.9750  0.3823
 5641TIP3   OH238413   6.183   1.339  15.517  0.3547 -0.0861 -0.0986
 5641TIP3    H138414   6.223   1.410  15.566 -1.0520 -0.1674  1.2258
 5641TIP3    H238415   6.147   1.280  15.584  0.9225 -1.7216 -1.1663
 5642TIP3   OH238416   5.495   3.408   1.180  0.0722 -0.6783 -0.2433
 5642TIP3    H138417   5.451   3.332   1.143 -0.1393  0.0207 -1.4546
 5642TIP3    H238418   5.434   3.480   1.168  0.2386 -0.3049  0.9573
 5643TIP3   OH238419   3.431   1.252  16.591 -0.3583  0.2683  0.1385
 5643TIP3    H138420   3.336   1.248  16.590 -0.3605 -2.9921 -1.7963
 5643TIP3    H238421   3.456   1.246  16.499  1.7124 -0.3250  0.6797
 5644TIP3   OH238422   5.820   3.784   0.250  0.7172  0.2538  0.7863
 5644TIP3    H138423   5.747   3.741   0.205  0.6322  0.3974  0.7843
 5644TIP3    H238424   5.874   3.819   0.180 -0.2827  1.9195  0.7878
 5645TIP3   OH238425   5.456   4.180   3.560 -0.9020 -0.3209 -0.0995
 5645TIP3    H138426   5.432   4.266   3.525 -0.6422  0.7825  2.2568
 5645TIP3    H238427   5.544   4.193   3.595 -1.2395 -1.2681  1.1584
 5646TIP3   OH238428   5.136   0.488  13.952 -0.4869 -0.0856  0.1900
 5646TIP3    H138429   5.090   0.566  13.985 -2.4623 -0.9739 -0.2879
 5646TIP3    H238430   5.154   0.436  14.030  2.3827  1.5216  0.7305
 5647TIP3   OH238431   1.762   2.724   1.897 -1.1436 -0.1632  0.1061
 5647TIP3    H138432   1.748   2.797   1.958 -4.2003  0.0538 -0.6979
 5647TIP3    H238433   1.814   2.762   1.826  0.9736  0.0276  1.6689
 5648TIP3   OH238434   6.787   1.258   2.056  0.1325  0.5272 -0.1355
 5648TIP3    H138435   6.701   1.258   2.016  0.3369  0.8277 -0.5868
 5648TIP3    H238436   6.771   1.277   2.148 -0.4434 -1.3138  0.1825
 5649TIP3   OH238437   6.691   1.840   4.487  0.2550  0.4099  0.1326
 5649TIP3    H138438   6.767   1.894   4.463 -0.9837  1.8098 -0.8605
 5649TIP3    H238439   6.626   1.903   4.520 -0.8622 -0.6057 -0.0557
 5650TIP3   OH238440   4.635   1.703  14.871 -0.6554  0.0949 -0.2003
 5650TIP3    H138441   4.572   1.737  14.808 -1.0928  1.2574  0.8204
 5650TIP3    H238442   4.708   1.766  14.867  0.3469 -1.0602 -1.1418
 5651TIP3   OH238443   4.012   6.817  14.740 -0.1923 -1.2412  0.6214
 5651TIP3    H138444   3.970   6.779  14.663  0.2204 -1.4929  0.5155
 5651TIP3    H238445   3.990   6.756  14.811 -0.6963 -0.9304  0.7356
 5652TIP3   OH238446   2.013   5.298   0.550 -0.2100 -0.0353 -0.5391
 5652TIP3    H138447   2.025   5.220   0.604 -0.0519  1.0774  1.1426
 5652TIP3    H238448   1.948   5.273   0.485 -1.2170 -1.1575  0.8425
 5653TIP3   OH238449   1.298   0.057  10.592 -0.7195  0.3537 -0.2920
 5653TIP3    H138450   1.268   0.125  10.653  0.1499  1.8251 -1.4124
 5653TIP3    H238451   1.323   0.106  10.514  0.8041 -1.1838 -0.8150
 5654TIP3   OH238452   1.761   5.779  13.837 -0.3219 -0.4024 -0.3659
 5654TIP3    H138453   1.726   5.690  13.846 -0.2075 -0.5564 -1.3370
 5654TIP3    H238454   1.847   5.775  13.879 -0.6845 -0.5071  0.3894
 5655TIP3   OH238455   1.402   0.246  12.671 -0.8739  0.1971  0.0358
 5655TIP3    H138456   1.383   0.333  12.707  0.3794  0.1108  0.9744
 5655TIP3    H238457   1.480   0.217  12.718 -1.6792 -1.7693  0.2699
 5656TIP3   OH238458   0.863   1.097  11.300 -0.1229 -0.4138  0.6107
 5656TIP3    H138459   0.787   1.098  11.242  0.2833 -2.0928  0.0093
 5656TIP3    H238460   0.865   1.186  11.337  0.8600  1.5331 -3.5397
 5657TIP3   OH238461   6.038   6.465  15.541  0.0204  0.2395 -0.4026
 5657TIP3    H138462   6.107   6.457  15.607 -0.4586 -1.6815 -0.0881
 5657TIP3    H238463   6.005   6.554  15.551 -0.1441 -0.0413  2.0656
 5658TIP3   OH238464   1.996   2.882   4.241 -0.4661  0.7495 -0.0565
 5658TIP3    H138465   2.046   2.900   4.161  1.1934 -0.7305  0.5768
 5658TIP3    H238466   1.908   2.912   4.221 -0.4828 -0.8230 -3.0134
 5659TIP3   OH238467   5.632   1.461  13.747  0.2352  0.1971 -0.1805
 5659TIP3    H138468   5.585   1.378  13.739 -0.1342  0.3425  0.4219
 5659TIP3    H238469   5.580   1.512  13.809  2.0007 -0.2062  1.7272
 5660TIP3   OH238470   6.329   2.513  14.805  0.2314  0.3456 -0.5777
 5660TIP3    H138471   6.392   2.451  14.842 -2.2495 -1.1075  1.5114
 5660TIP3    H238472   6.276   2.460  14.745  0.6406  1.4600 -1.9893
 5661TIP3   OH238473   6.318   6.724  12.603 -0.2102 -0.6907 -0.2884
 5661TIP3    H138474   6.354   6.639  12.630 -0.3180 -1.4584 -2.3281
 5661TIP3    H238475   6.268   6.704  12.523  1.2160  1.5339 -1.8708
 5662TIP3   OH238476   5.121   6.318  17.101  0.3367 -0.5583  0.0385
 5662TIP3    H138477   5.172   6.297  17.179  0.5808 -0.0931  0.0057
 5662TIP3    H238478   5.069   6.394  17.126  0.2912 -0.5108 -0.1991
 5663TIP3   OH238479   6.369   6.780  12.170 -0.5579  0.7400  0.2865
 5663TIP3    H138480   6.317   6.721  12.115 -1.5213  1.8957 -0.0689
 5663TIP3    H238481   6.333   6.867  12.154  2.3850  1.8486 -1.0565
 5664TIP3   OH238482   1.152   6.499   2.098  0.0478  0.1695 -0.6198
 5664TIP3    H138483   1.176   6.579   2.144  0.4330 -0.4122  0.2021
 5664TIP3    H238484   1.076   6.525   2.045 -0.6707  0.7529  0.6484
 5665TIP3   OH238485   0.572   4.972   4.227  0.6876  0.2726  0.0461
 5665TIP3    H138486   0.502   4.996   4.166  1.2080  1.2211 -0.1952
 5665TIP3    H238487   0.548   4.884   4.257 -0.2210  0.2867 -0.5835
 5666TIP3   OH238488   2.674   2.065   3.919  0.0405  0.1796  0.0318
 5666TIP3    H138489   2.646   2.013   3.995  0.4688 -0.6857 -0.3816
 5666TIP3    H238490   2.737   2.008   3.874  0.3823  1.0028 -0.5380
 5667TIP3   OH238491   3.814   0.173  15.647  0.5472  0.1173  0.5167
 5667TIP3    H138492   3.893   0.128  15.616 -0.7883 -1.3840 -0.8448
 5667TIP3    H238493   3.827   0.182  15.741  1.5381 -1.7978  0.5999
 5668TIP3   OH238494   6.523   5.293   4.788 -0.1020  0.7778 -0.0456
 5668TIP3    H138495   6.558   5.227   4.849 -0.6607 -2.4411 -2.9295
 5668TIP3    H238496   6.430   5.299   4.810 -1.1870 -3.2042 -2.6143
 5669TIP3   OH238497   3.287   0.415  16.430 -0.0085 -0.2761  0.0935
 5669TIP3    H138498   3.343   0.490  16.453 -0.5464  0.3833 -0.6817
 5669TIP3    H238499   3.340   0.338  16.451 -0.0979  0.2742  2.6126
 5670TIP3   OH238500   2.388   0.037   2.607  0.4537  0.0153  0.3874
 5670TIP3    H138501   2.336   0.095   2.551  0.2547  0.7718  1.3267
 5670TIP3    H238502   2.461   0.091   2.636  0.4264 -0.2903  1.0483
 5671TIP3   OH238503   3.637   5.618  15.909  0.0318  0.0907 -0.0544
 5671TIP3    H138504   3.543   5.620  15.930  0.3742 -0.8792  1.7683
 5671TIP3    H238505   3.655   5.526  15.891  0.3958  0.4691 -1.6999
 5672TIP3   OH238506   4.655   6.751  15.386 -0.4209 -0.4124  0.3457
 5672TIP3    H138507   4.743   6.757  15.424 -0.4851  1.8499  0.2550
 5672TIP3    H238508   4.648   6.660  15.357  2.0016 -0.5894  0.1017
 5673TIP3   OH238509   4.550   5.458   5.155  0.0109 -0.7359 -0.5335
 5673TIP3    H138510   4.495   5.386   5.183 -0.5264 -0.6006 -1.2028
 5673TIP3    H238511   4.622   5.460   5.218  0.5288 -2.4189 -1.0105
 5674TIP3   OH238512   6.355   2.969   5.734 -0.1217  0.5618  0.5361
 5674TIP3    H138513   6.292   2.919   5.786 -0.2447  1.6832  1.4993
 5674TIP3    H238514   6.320   2.966   5.645 -1.7146  1.3823  1.0937
 5675TIP3   OH238515   0.752   5.587   4.032  0.5750 -0.4821  0.0594
 5675TIP3    H138516   0.700   5.587   3.952 -2.0476  0.4858  1.6332
 5675TIP3    H238517   0.831   5.538   4.009 -0.5168 -1.1252 -2.7969
 5676TIP3   OH238518   6.566   0.451   1.584  0.5818  0.1307 -0.2864
 5676TIP3    H138519   6.493   0.474   1.527  0.8025 -0.6218 -0.9010
 5676TIP3    H238520   6.538   0.478   1.671  0.0105  0.8114 -0.6694
 5677TIP3   OH238521   1.819   0.437  13.210 -0.4774  0.5300 -0.4647
 5677TIP3    H138522   1.877   0.362  13.196 -1.7120 -0.3168 -1.3168
 5677TIP3    H238523   1.870   0.513  13.182  1.0190  0.1268  0.9859
 5678TIP3   OH238524   0.895   6.021   1.492 -0.6132  0.0215  0.0118
 5678TIP3    H138525   0.813   6.066   1.470 -0.4914  0.2754  0.0840
 5678TIP3    H238526   0.866   5.934   1.522 -0.9229  0.4452  0.9668
 5679TIP3   OH238527   0.144   0.941   3.075 -0.3992  0.0439 -0.0151
 5679TIP3    H138528   0.063   0.892   3.059 -0.1884 -0.4631  0.4454
 5679TIP3    H238529   0.114   1.023   3.115 -0.8070  0.6578 -1.5168
 5680TIP3   OH238530   1.362   6.494  15.021  0.1653  0.4600  0.3928
 5680TIP3    H138531   1.439   6.441  15.041 -0.3409 -0.4054  0.1025
 5680TIP3    H238532   1.290   6.431  15.015 -0.2706  1.0557 -0.9793
 5681TIP3   OH238533   6.194   6.313   3.864 -0.0901  0.7146 -0.3178
 5681TIP3    H138534   6.106   6.290   3.891 -0.1379  0.8363 -0.3706
 5681TIP3    H238535   6.184   6.355   3.779  0.0927  0.0263 -0.6911
 5682TIP3   OH238536   0.105   6.247   4.392 -0.2575 -0.0666 -0.4426
 5682TIP3    H138537   0.112   6.342   4.379 -1.6100  0.1812  0.5011
 5682TIP3    H238538   0.142   6.232   4.479 -1.3935 -0.1903  0.0309
 5683TIP3   OH238539   5.642   2.510   6.131  0.0573 -0.4234  0.5401
 5683TIP3    H138540   5.581   2.443   6.103 -1.7757  0.4916  2.0845
 5683TIP3    H238541   5.693   2.468   6.200 -2.5299  0.2131  3.0460
 5684TIP3   OH238542   0.857   5.135   1.641  0.8481  0.2848  0.1447
 5684TIP3    H138543   0.790   5.076   1.675 -0.0182  0.2177 -1.5670
 5684TIP3    H238544   0.928   5.130   1.705  0.1393 -1.3857  0.8611
 5685TIP3   OH238545   4.380   5.374  13.751  0.1400 -0.1614  0.2690
 5685TIP3    H138546   4.292   5.376  13.714  0.9098 -0.6987 -1.7639
 5685TIP3    H238547   4.396   5.463  13.782 -0.3234  0.5228 -1.3696
 5686TIP3   OH238548   6.383   0.172   0.749  0.6297  0.2318  0.3257
 5686TIP3    H138549   6.344   0.215   0.825 -2.1975  0.4093 -1.0712
 5686TIP3    H238550   6.432   0.242   0.705  1.9735  0.2151  1.7089
 5687TIP3   OH238551   4.965   2.631  15.012 -0.3857 -0.0677  0.0200
 5687TIP3    H138552   5.018   2.677  15.076 -1.3514 -1.0811  1.6097
 5687TIP3    H238553   4.993   2.666  14.927  1.0652  1.1515  0.9684
 5688TIP3   OH238554   1.089   0.560  13.998 -0.1044 -0.1490 -0.4743
 5688TIP3    H138555   1.002   0.593  13.974  0.0350  0.7498  0.1890
 5688TIP3    H238556   1.104   0.487  13.938 -0.6786  0.6422 -1.6368
 5689TIP3   OH238557   4.796   2.549   2.865  0.2637  0.7245 -0.3937
 5689TIP3    H138558   4.832   2.468   2.829  1.7436  1.2516 -0.1789
 5689TIP3    H238559   4.791   2.608   2.790 -0.1645  0.6616 -0.4185
 5690TIP3   OH238560   0.316   6.726   0.090 -0.4326  0.0076  0.1780
 5690TIP3    H138561   0.318   6.687   0.002 -1.0648  1.8438 -0.6929
 5690TIP3    H238562   0.238   6.688   0.131 -0.4420 -0.4499 -0.2533
 5691TIP3   OH238563   5.772   1.672  14.217 -0.2451  0.2209 -0.3819
 5691TIP3    H138564   5.754   1.744  14.278 -1.9445  0.2345 -0.8404
 5691TIP3    H238565   5.699   1.674  14.155 -0.1074 -1.6386 -0.6657
 5692TIP3   OH238566   2.895   5.597   4.865  0.2115 -0.6097 -0.1104
 5692TIP3    H138567   2.922   5.528   4.803  0.7133 -1.7793  1.3604
 5692TIP3    H238568   2.875   5.550   4.946  1.0550  1.0032  1.0911
 5693TIP3   OH238569   6.122   3.168  11.401  0.3826  0.0622 -0.4606
 5693TIP3    H138570   6.113   3.263  11.400 -0.4578 -0.0050 -1.2349
 5693TIP3    H238571   6.101   3.141  11.311  0.0100 -0.8887 -0.1069
 5694TIP3   OH238572   5.349   2.190  14.622  0.5815 -0.2646 -0.4856
 5694TIP3    H138573   5.415   2.132  14.659  1.2348 -0.0991 -1.3640
 5694TIP3    H238574   5.310   2.139  14.551 -0.3069 -0.3934  0.0861
 5695TIP3   OH238575   2.548   1.191  12.472  0.2568 -0.3278 -0.1193
 5695TIP3    H138576   2.457   1.182  12.499 -0.2252  0.5787 -1.3444
 5695TIP3    H238577   2.545   1.184  12.377  1.3876  0.2983 -0.2150
 5696TIP3   OH238578   0.705   3.149  11.311  0.0488  0.0667  0.0368
 5696TIP3    H138579   0.635   3.105  11.361  0.0615  0.2639  0.2292
 5696TIP3    H238580   0.758   3.192  11.378  0.6699 -0.5239 -0.0590
 5697TIP3   OH238581   2.418   2.769  11.334  0.7033  0.1187  0.6908
 5697TIP3    H138582   2.485   2.827  11.298 -1.2483  1.7078 -0.6141
 5697TIP3    H238583   2.371   2.824  11.398 -1.4995  0.2705 -0.9324
 5698TIP3   OH238584   0.908   4.427   0.786  0.0442  0.3827 -0.7363
 5698TIP3    H138585   0.960   4.501   0.818 -1.1248  0.7129  0.5255
 5698TIP3    H238586   0.851   4.405   0.860 -1.4269 -0.1082 -1.9571
 5699TIP3   OH238587   2.043   6.259   4.629 -1.0228 -0.2393  0.3911
 5699TIP3    H138588   2.098   6.199   4.679 -0.2662  0.2588  0.1829
 5699TIP3    H238589   1.964   6.270   4.681 -1.5795 -2.1179  0.0071
 5700TIP3   OH238590   0.718   3.037   5.158  0.0056  0.0139 -0.0802
 5700TIP3    H138591   0.626   3.041   5.134  0.0811  0.8683 -0.2493
 5700TIP3    H238592   0.731   2.947   5.190 -0.3554 -0.8416 -2.1600
 5701TIP3   OH238593   1.922   3.603  17.138  0.0972  0.6127 -0.1675
 5701TIP3    H138594   1.974   3.548  17.079 -0.1887 -0.9819  0.9905
 5701TIP3    H238595   1.831   3.579  17.121  0.0614 -0.8083  1.7244
 5702TIP3   OH238596   3.359   4.287  14.542 -0.3871  0.0047  0.3822
 5702TIP3    H138597   3.428   4.262  14.603  0.4098 -1.6518 -1.1286
 5702TIP3    H238598   3.278   4.258  14.585 -0.0057  0.3134  1.3420
 5703TIP3   OH238599   6.633   5.776   3.079 -0.2000 -0.0941 -0.5845
 5703TIP3    H138600   6.602   5.760   2.990  0.1692 -1.0006 -0.5649
 5703TIP3    H238601   6.711   5.721   3.087  1.5306  2.1879 -0.6873
 5704TIP3   OH238602   2.531   6.770  10.864  0.0127 -0.2534  0.1236
 5704TIP3    H138603   2.513   6.817  10.946 -0.8043  2.0021 -1.2622
 5704TIP3    H238604   2.585   6.830  10.813 -0.0512 -1.3286 -1.2640
 5705TIP3   OH238605   4.526   6.225   5.823 -0.0289 -0.1158  0.1285
 5705TIP3    H138606   4.591   6.292   5.801  1.2379 -0.5535  2.2482
 5705TIP3    H238607   4.572   6.142   5.812 -0.9347 -0.5492 -0.4633
 5706TIP3   OH238608   4.364   5.945   6.133 -0.5436 -0.3128 -0.3220
 5706TIP3    H138609   4.410   5.953   6.216  2.0514 -0.9964 -1.5869
 5706TIP3    H238610   4.327   6.032   6.118 -0.0344  0.1478  0.9900
 5707TIP3   OH238611   0.299   4.509  13.126  0.1892 -0.0102  0.0715
 5707TIP3    H138612   0.244   4.585  13.148 -1.3174 -1.2739  0.9148
 5707TIP3    H238613   0.379   4.522  13.177 -0.6626  0.3034  1.3885
 5708TIP3   OH238614   6.183   0.722   2.963  0.1012  0.2297  0.0508
 5708TIP3    H138615   6.214   0.718   2.872 -0.6102  0.3226 -0.1994
 5708TIP3    H238616   6.184   0.630   2.991  1.3525  0.2966  0.3196
 5709TIP3   OH238617   1.718   1.008  10.663 -0.1418 -0.2073  0.4700
 5709TIP3    H138618   1.789   1.060  10.626  0.9291 -1.5911  0.5441
 5709TIP3    H238619   1.674   0.970  10.588 -0.8163  0.6222  0.4262
 5710TIP3   OH238620   3.491   2.886  12.022 -0.2834 -0.1491  0.1941
 5710TIP3    H138621   3.402   2.858  12.003 -0.5846  0.1940  1.0690
 5710TIP3    H238622   3.493   2.979  11.996  0.1770 -0.4546 -0.9484
 5711TIP3   OH238623   0.555   3.104  11.932 -0.5936  0.4895  0.2284
 5711TIP3    H138624   0.616   3.058  11.874 -1.1643  2.5521 -2.1787
 5711TIP3    H238625   0.612   3.146  11.997  0.2015 -0.7443  0.3572
 5712TIP3   OH238626   4.025   4.850   1.077 -0.2855 -0.4581  0.1979
 5712TIP3    H138627   4.000   4.763   1.109 -1.8555  0.3915  1.3718
 5712TIP3    H238628   4.009   4.909   1.151 -0.7671  1.0700 -1.0687
 5713TIP3   OH238629   4.896   1.595   4.872 -0.1439  0.1297 -0.7191
 5713TIP3    H138630   4.880   1.667   4.934  0.6738  0.1630 -0.5442
 5713TIP3    H238631   4.854   1.624   4.791 -0.5184  0.4462 -0.4157
 5714TIP3   OH238632   4.539   3.566   4.954  0.4454  0.2657  0.1227
 5714TIP3    H138633   4.617   3.548   5.006  0.5945 -1.4545 -0.6495
 5714TIP3    H238634   4.467   3.567   5.017  1.0853  2.4297  0.9316
 5715TIP3   OH238635   5.216   2.955   1.246  0.5675 -0.2349 -0.1099
 5715TIP3    H138636   5.174   2.881   1.202  0.1455 -1.0076  1.4828
 5715TIP3    H238637   5.256   2.916   1.324  1.0186  1.1071  0.3472
 5716TIP3   OH238638   2.100   5.749  10.221 -0.1014  0.4717 -0.2511
 5716TIP3    H138639   2.146   5.832  10.228  0.8715 -0.1538  1.5280
 5716TIP3    H238640   2.105   5.726  10.128  3.1586  0.5031 -0.1970
 5717TIP3   OH238641   1.842   0.368   3.578 -0.2103  0.5176  0.1502
 5717TIP3    H138642   1.820   0.447   3.628  0.1420 -0.3094  1.6516
 5717TIP3    H238643   1.921   0.392   3.530 -0.9248  1.5377 -0.5899
 5718TIP3   OH238644   1.579   1.296   2.545 -0.4300 -0.9089 -0.6564
 5718TIP3    H138645   1.656   1.341   2.579 -1.0182 -0.0904 -0.3681
 5718TIP3    H238646   1.576   1.321   2.452 -1.5408  0.8504 -0.1941
 5719TIP3   OH238647   2.476   2.929  12.648 -0.2185 -0.0399  0.2334
 5719TIP3    H138648   2.444   2.839  12.634 -1.1463  0.5708 -2.0187
 5719TIP3    H238649   2.506   2.957  12.562  2.1632  1.0899  1.3484
 5720TIP3   OH238650   4.533   4.057  13.809  0.2958 -0.3894 -0.6605
 5720TIP3    H138651   4.499   4.118  13.874  1.5382 -1.5965  1.1871
 5720TIP3    H238652   4.557   4.113  13.734 -0.3550  1.1309  0.2240
 5721TIP3   OH238653   3.218   2.986  16.542 -0.1790 -0.0976  0.3329
 5721TIP3    H138654   3.126   2.974  16.567 -0.6078  0.8004 -0.7245
 5721TIP3    H238655   3.216   3.060  16.481  1.2976  0.1408  0.5581
 5722TIP3   OH238656   0.774   2.955  14.425 -0.3590  0.3461 -0.1263
 5722TIP3    H138657   0.683   2.951  14.394 -0.4166 -1.7657  0.1986
 5722TIP3    H238658   0.816   2.879  14.386  1.4690  1.6014 -0.7401
 5723TIP3   OH238659   3.034   2.998   0.618 -0.4828 -0.0530 -0.3146
 5723TIP3    H138660   3.088   3.069   0.654 -3.6732  1.8844  1.1056
 5723TIP3    H238661   2.979   3.042   0.554 -1.3987 -1.6197 -0.6209
 5724TIP3   OH238662   5.291   6.200  16.445  0.7909  0.5605 -0.4264
 5724TIP3    H138663   5.199   6.226  16.443  0.1617 -1.4378  0.4346
 5724TIP3    H238664   5.305   6.157  16.361  0.3605 -0.8766  0.2150
 5725TIP3   OH238665   5.654   1.153   5.300 -0.1186  0.2659 -0.3781
 5725TIP3    H138666   5.672   1.239   5.262 -0.4675  1.2082  1.5132
 5725TIP3    H238667   5.725   1.097   5.268  2.2155  2.1541  1.2627
 5726TIP3   OH238668   3.900   4.282  12.148 -0.0407 -0.0494 -0.2186
 5726TIP3    H138669   3.966   4.324  12.093  0.6921 -0.1537  0.5486
 5726TIP3    H238670   3.932   4.296  12.238 -0.6458 -0.8078  0.1278
 5727TIP3   OH238671   4.080   5.016   3.140  0.0690 -0.4087 -0.7775
 5727TIP3    H138672   4.163   5.001   3.096 -0.5384  0.2069 -2.1710
 5727TIP3    H238673   4.060   5.108   3.125  0.3984  0.1837  1.8283
 5728TIP3   OH238674   2.376   6.685  10.651 -0.2257 -0.2484  0.2918
 5728TIP3    H138675   2.439   6.694  10.579 -1.0871  0.1598 -0.4266
 5728TIP3    H238676   2.430   6.682  10.730  0.7705 -1.1688 -0.3941
 5729TIP3   OH238677   6.131   4.833   5.935  0.5383  0.3639 -0.2793
 5729TIP3    H138678   6.082   4.817   5.855  1.2442  0.1056 -0.6672
 5729TIP3    H238679   6.138   4.747   5.977 -2.1875  0.8868  1.4774
 5730TIP3   OH238680   2.885   4.240   2.192 -0.4051  0.3586  0.2114
 5730TIP3    H138681   2.898   4.320   2.141  2.1471  0.3043  0.6654
 5730TIP3    H238682   2.933   4.173   2.144 -2.6239 -1.0294 -0.2408
 5731TIP3   OH238683   0.842   3.872  14.983  0.5839  0.2170  0.0781
 5731TIP3    H138684   0.907   3.858  15.052  0.4220  0.3731  0.2647
 5731TIP3    H238685   0.794   3.950  15.011 -0.5553 -0.6534  0.6367
 5732TIP3   OH238686   0.758   5.819   1.171  0.2955 -0.0843  0.1090
 5732TIP3    H138687   0.804   5.899   1.197  0.9698 -0.2860 -0.4241
 5732TIP3    H238688   0.744   5.771   1.253  0.3506  0.3441  0.3678
 5733TIP3   OH238689   1.994   2.815   1.737  0.8111 -0.2117  0.2455
 5733TIP3    H138690   2.080   2.784   1.708  1.0564  0.0973  0.6345
 5733TIP3    H238691   1.999   2.911   1.731  0.4571 -0.1931  0.1789
 5734TIP3   OH238692   5.856   3.983  16.207  0.1231 -0.3224  0.1961
 5734TIP3    H138693   5.789   4.049  16.188  0.3704 -0.1723 -0.1567
 5734TIP3    H238694   5.917   3.989  16.133  0.0903 -1.0207  0.1087
 5735TIP3   OH238695   3.859   1.139  14.075  0.4072  0.3901 -0.0772
 5735TIP3    H138696   3.775   1.183  14.066  0.2962  0.2739  0.3563
 5735TIP3    H238697   3.896   1.137  13.987  0.4129  1.3557 -0.1078
 5736TIP3   OH238698   4.737   4.485   2.553  0.4170  0.3176 -0.1766
 5736TIP3    H138699   4.808   4.472   2.490  0.1100 -0.1613 -0.4231
 5736TIP3    H238700   4.774   4.453   2.636  0.8690  1.0769 -0.0684
 5737TIP3   OH238701   5.361   0.996  17.185 -0.1863 -0.4675 -0.1278
 5737TIP3    H138702   5.453   1.021  17.200  0.2348 -1.0568 -1.5580
 5737TIP3    H238703   5.338   0.943  17.261  0.7209 -0.4875  0.1507
 5738TIP3   OH238704   3.040   0.492  12.871  0.0008 -0.0446 -0.3482
 5738TIP3    H138705   3.056   0.521  12.961 -0.3996  0.3564 -0.4042
 5738TIP3    H238706   3.091   0.411  12.863  0.5344  0.2447  0.0425
 5739TIP3   OH238707   5.875   5.797  14.057  0.1342  0.1017 -0.0104
 5739TIP3    H138708   5.934   5.754  14.119  0.5074 -1.0035 -1.0858
 5739TIP3    H238709   5.933   5.847  14.000 -0.1139  0.3268 -0.0627
 5740TIP3   OH238710   1.746   5.159  16.948 -0.4899  0.3797 -0.2040
 5740TIP3    H138711   1.751   5.098  16.874 -1.2125 -2.3400  1.8229
 5740TIP3    H238712   1.657   5.195  16.943 -1.2689 -1.3465  0.3917
 5741TIP3   OH238713   4.635   1.235   5.272  0.2109  0.3584  0.3866
 5741TIP3    H138714   4.667   1.310   5.221  0.4947  0.1704  0.2814
 5741TIP3    H238715   4.543   1.228   5.248 -0.0271  1.1701  1.0139
 5742TIP3   OH238716   0.796   0.235   2.765 -0.5283 -0.8723 -0.6733
 5742TIP3    H138717   0.713   0.195   2.741 -1.3406 -0.5008  1.3255
 5742TIP3    H238718   0.773   0.307   2.823  1.1971 -0.9903  0.2511
 5743TIP3   OH238719   1.216   0.869   5.397  0.1396  0.1137 -0.1629
 5743TIP3    H138720   1.234   0.889   5.305  0.4027  0.3728 -0.0555
 5743TIP3    H238721   1.301   0.843   5.433  0.2161  0.8561  0.2218
 5744TIP3   OH238722   4.721   6.626   0.333 -0.2398  0.0690 -0.2215
 5744TIP3    H138723   4.747   6.536   0.313  1.4691  0.2174  1.1463
 5744TIP3    H238724   4.713   6.628   0.429  1.3852  1.7544 -0.0589
 5745TIP3   OH238725   4.595   3.058   1.481 -0.6173  0.5162 -0.0778
 5745TIP3    H138726   4.581   3.034   1.572 -1.4351 -3.0106 -0.9912
 5745TIP3    H238727   4.689   3.044   1.467 -0.5669  0.6644  0.1025
 5746TIP3   OH238728   3.248   0.723   5.075  0.3427 -0.0756 -0.3285
 5746TIP3    H138729   3.218   0.733   4.985 -0.3394 -0.1729 -0.1173
 5746TIP3    H238730   3.301   0.801   5.091 -0.8966  0.7989 -0.2952
 5747TIP3   OH238731   3.500   5.680   2.770 -0.4459 -0.1003  0.1844
 5747TIP3    H138732   3.480   5.719   2.685 -2.1610  0.5105  0.8161
 5747TIP3    H238733   3.438   5.722   2.830 -0.0651 -1.3743  1.5176
 5748TIP3   OH238734   2.672   5.148  12.698  0.0506 -0.3313 -0.1464
 5748TIP3    H138735   2.651   5.225  12.750 -0.1959 -0.0872 -0.6019
 5748TIP3    H238736   2.761   5.125  12.724 -0.4145 -0.8238  1.1325
 5749TIP3   OH238737   4.461   1.695  15.109  0.0371  0.0323 -0.5413
 5749TIP3    H138738   4.463   1.633  15.036  2.8712 -1.5511  0.6726
 5749TIP3    H238739   4.541   1.746  15.099  0.6456 -0.4020  1.4978
 5750TIP3   OH238740   5.081   0.684   3.437  0.1214  0.2549 -0.8237
 5750TIP3    H138741   5.130   0.707   3.516  0.3728  0.6488 -1.0886
 5750TIP3    H238742   5.146   0.641   3.381 -0.1094 -0.2165 -0.7258
 5751TIP3   OH238743   4.309   4.622   2.123 -0.1042 -0.1460 -0.8888
 5751TIP3    H138744   4.293   4.545   2.178 -0.2263  0.4858 -0.0123
 5751TIP3    H238745   4.222   4.647   2.092 -0.0174 -0.5970 -1.5179
 5752TIP3   OH238746   6.004   1.348   0.291 -0.0490  0.0749 -0.4959
 5752TIP3    H138747   5.953   1.424   0.261 -0.6465 -0.4706 -0.8980
 5752TIP3    H238748   6.085   1.352   0.240  0.3211  0.9311  0.1203
 5753TIP3   OH238749   4.316   5.415   3.920  0.1496  0.1257  0.6605
 5753TIP3    H138750   4.228   5.412   3.883  0.6912  0.7296 -0.7204
 5753TIP3    H238751   4.325   5.503   3.955  0.8138  0.6790 -0.8207
 5754TIP3   OH238752   3.741   4.222  14.575 -0.2732 -0.2253  0.1328
 5754TIP3    H138753   3.668   4.252  14.628 -0.5023  0.6524 -0.6466
 5754TIP3    H238754   3.752   4.130  14.598 -1.4367 -0.2897  0.4605
 5755TIP3   OH238755   5.117   2.756   1.070  0.0817  0.1288 -0.1539
 5755TIP3    H138756   5.082   2.812   1.001  1.3911  0.5528 -0.4979
 5755TIP3    H238757   5.082   2.669   1.051  1.1202  0.0488 -1.8993
 5756TIP3   OH238758   6.804   6.120  15.019 -0.2999 -0.2083  0.4832
 5756TIP3    H138759   6.866   6.049  15.035  0.6871  0.4019 -0.4394
 5756TIP3    H238760   6.833   6.190  15.077  0.8100  0.5845 -0.9492
 5757TIP3   OH238761   5.231   0.435   3.735 -0.2810 -0.5062 -0.3767
 5757TIP3    H138762   5.287   0.360   3.718  3.3745  1.9075 -0.2051
 5757TIP3    H238763   5.232   0.445   3.831 -1.2271 -0.5405 -0.3523
 5758TIP3   OH238764   1.801   0.029  12.298 -0.0367 -0.2569  0.2336
 5758TIP3    H138765   1.785   0.121  12.276  0.5279  0.1157  1.3105
 5758TIP3    H238766   1.741   0.011  12.370  0.2011 -0.5778  0.3533
 5759TIP3   OH238767   2.707   0.135  15.569  0.2956 -0.1178  0.4324
 5759TIP3    H138768   2.735   0.045  15.589  0.7994  0.2354  1.3844
 5759TIP3    H238769   2.648   0.158  15.641  0.4510  0.4310  0.3894
 5760TIP3   OH238770   2.580   4.934  14.300 -0.8687 -0.1729 -0.2762
 5760TIP3    H138771   2.511   4.873  14.277  1.0767 -1.8795 -1.9706
 5760TIP3    H238772   2.650   4.917  14.236  1.1193  1.4651  1.3125
 5761TIP3   OH238773   2.737   6.740  16.589 -0.1188 -0.1489 -0.0212
 5761TIP3    H138774   2.816   6.687  16.592  0.8004  1.2255  0.5039
 5761TIP3    H238775   2.669   6.679  16.558  0.6493 -1.9132  1.5763
 5762TIP3   OH238776   4.539   4.951   5.068 -0.5728 -0.3951  0.0872
 5762TIP3    H138777   4.491   5.033   5.056 -1.4529 -0.4940  2.4836
 5762TIP3    H238778   4.579   4.934   4.982 -1.4260  1.8413 -0.8255
 5763TIP3   OH238779   0.030   2.668   5.587  0.0780 -0.1507 -0.1399
 5763TIP3    H138780   0.077   2.591   5.555  0.5869  0.0625  0.0646
 5763TIP3    H238781  -0.056   2.664   5.547  0.0923 -0.8466 -0.1004
 5764TIP3   OH238782   2.500   1.180   4.034  0.0033  0.0414 -0.0577
 5764TIP3    H138783   2.414   1.215   4.011 -1.0179 -3.5028 -2.5540
 5764TIP3    H238784   2.542   1.163   3.949  1.4385 -2.0392  0.9751
 5765TIP3   OH238785   5.950   3.259   0.586 -0.2051 -0.3132  0.1020
 5765TIP3    H138786   5.872   3.244   0.532 -0.1453 -2.0327  0.4415
 5765TIP3    H238787   5.942   3.350   0.614 -2.1386 -0.4541  0.1733
 5766TIP3   OH238788   4.729   6.549   5.306 -0.0547  0.0589 -0.1417
 5766TIP3    H138789   4.756   6.606   5.379  1.2274  1.1005 -1.3795
 5766TIP3    H238790   4.638   6.573   5.290 -0.1482  0.2934  0.6848
 5767TIP3   OH238791   2.821   2.445  15.952 -0.4959 -0.2237 -0.2227
 5767TIP3    H138792   2.897   2.475  16.001 -0.3110 -1.6258  0.4085
 5767TIP3    H238793   2.746   2.467  16.008 -0.2495 -2.3338  1.0609
 5768TIP3   OH238794   2.366   4.452  15.251 -0.1506 -0.0169 -0.3795
 5768TIP3    H138795   2.394   4.542  15.270  0.7552 -0.6221  1.3933
 5768TIP3    H238796   2.274   4.460  15.225  0.2013  1.5118 -1.2319
 5769TIP3   OH238797   3.146   2.822   1.282  0.5009  0.3430 -0.5229
 5769TIP3    H138798   3.211   2.887   1.308  1.4690 -0.6090 -0.5265
 5769TIP3    H238799   3.193   2.739   1.283 -0.8558 -0.4547  0.0502
 5770TIP3   OH238800   5.665   3.665  12.268  0.5284 -0.1117 -0.4752
 5770TIP3    H138801   5.755   3.655  12.235  0.0394 -1.6526 -1.4268
 5770TIP3    H238802   5.676   3.714  12.350  2.0700  1.1174 -1.3572
 5771TIP3   OH238803   1.692   2.829  10.737 -0.0482 -0.3048  0.0370
 5771TIP3    H138804   1.660   2.740  10.719 -0.1770 -0.1222 -0.6489
 5771TIP3    H238805   1.699   2.870  10.651  1.6418 -0.2018  0.1977
 5772TIP3   OH238806   3.716   4.031  12.491 -0.2496 -0.0758  0.4341
 5772TIP3    H138807   3.741   4.046  12.400 -2.1100  2.5164  0.2512
 5772TIP3    H238808   3.798   4.040  12.541  0.6141 -0.5242 -0.8545
 5773TIP3   OH238809   1.288   2.305   1.370 -0.2830 -0.8176 -0.0565
 5773TIP3    H138810   1.315   2.390   1.401 -1.9757 -0.2719  0.0531
 5773TIP3    H238811   1.303   2.308   1.275  2.1777 -1.4354  0.2423
 5774TIP3   OH238812   4.309   0.228   0.351  0.3276 -0.0507 -0.0916
 5774TIP3    H138813   4.335   0.307   0.304  0.4230  0.4987  0.8710
 5774TIP3    H238814   4.222   0.247   0.385  1.1215  0.4206  1.8068
 5775TIP3   OH238815   0.406   3.947  14.449  0.1488 -0.3412 -0.5018
 5775TIP3    H138816   0.319   3.939  14.487  0.4740 -1.3277  0.0739
 5775TIP3    H238817   0.402   3.897  14.368  0.4460 -1.2722  0.0345
 5776TIP3   OH238818   5.373   4.990  16.560 -0.2553  0.0021 -0.2787
 5776TIP3    H138819   5.289   5.023  16.530 -0.2533 -1.4216 -1.9933
 5776TIP3    H238820   5.351   4.919  16.620 -0.2382  2.0602  2.3802
 5777TIP3   OH238821   0.780   3.986   3.789 -0.5282  0.2116  0.5104
 5777TIP3    H138822   0.736   4.042   3.724  1.5446  2.0837  0.5986
 5777TIP3    H238823   0.720   3.986   3.864 -1.1557  1.3142  0.0379
 5778TIP3   OH238824   0.248   4.606   5.342  0.3744  0.1766 -0.0726
 5778TIP3    H138825   0.311   4.593   5.271  0.3563 -0.6442  0.0605
 5778TIP3    H238826   0.170   4.641   5.298 -0.5444 -2.6095 -0.8972
 5779TIP3   OH238827   1.153   2.966   1.841 -0.0725 -0.2070 -0.5461
 5779TIP3    H138828   1.202   3.043   1.871 -0.9170  0.7675 -1.5767
 5779TIP3    H238829   1.194   2.944   1.757 -0.1078 -0.6298 -0.4510
 5780TIP3   OH238830   3.877   5.026  12.364 -0.1833 -0.0577  0.0565
 5780TIP3    H138831   3.959   5.008  12.318 -1.4109  0.7384 -2.7129
 5780TIP3    H238832   3.841   4.939  12.383  0.3042 -0.4367 -0.6971
 5781TIP3   OH238833   5.657   2.645  13.127 -0.3283 -0.1236  0.1573
 5781TIP3    H138834   5.724   2.692  13.177  2.7777 -3.6406 -0.2318
 5781TIP3    H238835   5.645   2.697  13.048  1.6011  0.9256  0.4865
 5782TIP3   OH238836   1.113   4.028   4.966  0.6507 -0.4075  0.2077
 5782TIP3    H138837   1.092   4.105   4.914  1.0551  0.4236  1.2515
 5782TIP3    H238838   1.130   4.061   5.054  0.2696 -1.7484  0.8184
 5783TIP3   OH238839   5.170   2.578   5.044 -0.9086  0.2358  0.0192
 5783TIP3    H138840   5.152   2.600   4.952  1.4883 -1.3544 -0.9398
 5783TIP3    H238841   5.203   2.660   5.082  0.7645  0.2693 -1.3788
 5784TIP3   OH238842   2.087   2.294   5.482  0.3297 -0.0456  0.0218
 5784TIP3    H138843   2.088   2.246   5.565 -1.0931 -0.4448 -0.1820
 5784TIP3    H238844   2.175   2.279   5.446  0.6977 -0.5434  1.0602
 5785TIP3   OH238845   2.543   3.272  16.033 -0.1763  0.2342  0.7042
 5785TIP3    H138846   2.636   3.281  16.012 -0.5087  0.4297 -0.7841
 5785TIP3    H238847   2.528   3.334  16.105  0.6504  0.8725  0.3355
 5786TIP3   OH238848   1.521   2.586  15.912 -0.0164  0.2456 -0.2649
 5786TIP3    H138849   1.523   2.492  15.928  1.9475  0.4501  1.0885
 5786TIP3    H238850   1.438   2.616  15.949  0.5566 -0.5852  1.7923
 5787TIP3   OH238851   2.615   1.627   6.433  0.6799  0.1477  0.5091
 5787TIP3    H138852   2.634   1.712   6.393  2.6848  0.1915  1.4392
 5787TIP3    H238853   2.546   1.590   6.377  1.1874  1.5069 -1.1251
 5788TIP3   OH238854   6.266   1.598   0.958 -0.3969 -0.0129 -0.2325
 5788TIP3    H138855   6.315   1.636   0.885  1.2734 -1.4170  0.0966
 5788TIP3    H238856   6.183   1.647   0.959  0.3550  1.4074 -1.7740
 5789TIP3   OH238857   1.007   3.982  11.544 -0.2678 -0.6867  0.3410
 5789TIP3    H138858   0.959   3.975  11.462  0.2220 -0.4076  0.0279
 5789TIP3    H238859   0.991   4.071  11.574 -0.0355 -0.6284  0.2919
 5790TIP3   OH238860   1.279   6.818   0.373 -0.6857 -0.5364 -0.0329
 5790TIP3    H138861   1.324   6.734   0.363 -0.5778 -0.6347  1.1000
 5790TIP3    H238862   1.198   6.808   0.323 -0.3193 -1.0455 -0.5261
 5791TIP3   OH238863   5.171   4.771   2.004  0.7276  0.0755  0.0506
 5791TIP3    H138864   5.108   4.831   1.965  0.8233  0.0277 -0.1791
 5791TIP3    H238865   5.136   4.683   1.986  0.4826  0.0684  0.5654
 5792TIP3   OH238866   2.853   3.652  11.027 -0.1113  0.4035 -0.3201
 5792TIP3    H138867   2.869   3.703  11.107 -1.0621  0.6123 -0.2492
 5792TIP3    H238868   2.933   3.663  10.975  0.3714  0.5572  0.4456
 5793TIP3   OH238869   0.249   2.291  14.251  0.0941  0.2054 -0.3988
 5793TIP3    H138870   0.154   2.282  14.248  0.1183 -1.3053  1.5135
 5793TIP3    H238871   0.265   2.365  14.309  0.1155  1.2287 -1.6623
 5794TIP3   OH238872   0.471   2.468  16.084  0.4703 -0.1439  0.0379
 5794TIP3    H138873   0.535   2.522  16.130  1.1550 -0.8611 -0.0468
 5794TIP3    H238874   0.412   2.531  16.042  0.7442  0.5233  0.6316
 5795TIP3   OH238875   3.819   3.303  14.225  0.1459  0.0389  0.1797
 5795TIP3    H138876   3.905   3.312  14.264  1.1119 -0.8711 -1.5800
 5795TIP3    H238877   3.826   3.225  14.169 -2.0059 -0.4358  0.4599
 5796TIP3   OH238878   3.973   2.115  17.202  0.0061 -0.0587 -0.0924
 5796TIP3    H138879   3.971   2.115  17.298  1.6972 -0.2521 -0.0188
 5796TIP3    H238880   3.905   2.177  17.176 -1.6966 -1.2995  1.1675
 5797TIP3   OH238881   2.362   5.353   4.865 -0.1026 -0.0261 -0.4436
 5797TIP3    H138882   2.329   5.442   4.876  0.6088  0.1856  0.0687
 5797TIP3    H238883   2.388   5.327   4.954  1.0774 -0.1844 -0.8215
 5798TIP3   OH238884   4.789   0.951   4.592 -0.1645 -0.0504  0.1885
 5798TIP3    H138885   4.767   1.003   4.669  0.7852  0.5971  0.0495
 5798TIP3    H238886   4.742   0.868   4.604  0.7324 -0.3578  1.9645
 5799TIP3   OH238887   5.068   4.788  12.976 -0.1833  0.2209  0.0520
 5799TIP3    H138888   5.065   4.870  13.026  2.7859  1.1978 -1.1992
 5799TIP3    H238889   5.081   4.720  13.042 -0.1017  1.0309  0.8896
 5800TIP3   OH238890   3.222   1.036   2.466  0.0298  0.4325 -0.2218
 5800TIP3    H138891   3.134   1.073   2.471 -0.7201 -1.2447 -0.2339
 5800TIP3    H238892   3.261   1.078   2.390 -2.1468 -1.4735 -2.5720
 5801TIP3   OH238893   0.740   3.163  15.387  1.0237  0.0717 -0.8130
 5801TIP3    H138894   0.768   3.238  15.440  1.2636 -0.3661 -0.3108
 5801TIP3    H238895   0.742   3.195  15.297 -0.1625  1.0792 -0.5128
 5802TIP3   OH238896   1.413   1.484  12.031 -0.1571  0.1406  0.1408
 5802TIP3    H138897   1.376   1.412  11.980  1.8218 -0.7834 -0.1214
 5802TIP3    H238898   1.366   1.481  12.114 -1.3673 -0.2699 -0.5451
 5803TIP3   OH238899   5.723   5.453  14.455 -0.5648 -0.5719  0.2059
 5803TIP3    H138900   5.669   5.476  14.531 -2.2079 -1.3830 -0.6323
 5803TIP3    H238901   5.776   5.379  14.485 -2.6068 -2.1838  0.1095
 5804TIP3   OH238902   1.254   0.707   2.734 -0.3020  0.1573  0.0336
 5804TIP3    H138903   1.324   0.658   2.777  0.7361  1.5865  0.0563
 5804TIP3    H238904   1.198   0.737   2.806 -0.3393 -0.0749  0.1041
 5805TIP3   OH238905   6.061   4.763   0.980  0.2464  0.2583  0.6305
 5805TIP3    H138906   5.974   4.736   0.950 -1.2795  3.8105  1.3273
 5805TIP3    H238907   6.121   4.733   0.911 -1.6370 -1.3217 -0.4182
 5806TIP3   OH238908   2.069   6.482   0.869 -0.0792  0.6906 -0.7179
 5806TIP3    H138909   2.052   6.391   0.841  0.8898  0.2435  0.0780
 5806TIP3    H238910   2.131   6.515   0.804  0.4592  0.3918 -0.3606
 5807TIP3   OH238911   4.135   0.603  12.914 -0.2180 -0.0318 -0.6094
 5807TIP3    H138912   4.195   0.678  12.922 -0.1101 -0.2221  0.4904
 5807TIP3    H238913   4.188   0.534  12.874 -0.3993  0.5487 -1.9072
 5808TIP3   OH238914   2.628   0.439  11.393  0.0554 -0.1588  0.1605
 5808TIP3    H138915   2.666   0.359  11.430  0.5266 -0.9554 -1.9073
 5808TIP3    H238916   2.594   0.412  11.307 -1.5422  1.4489  0.2210
 5809TIP3   OH238917   5.975   0.313   3.211 -0.0164  0.0886 -0.0681
 5809TIP3    H138918   5.937   0.401   3.206 -0.0397  0.1239  0.7340
 5809TIP3    H238919   6.067   0.327   3.232  0.0664 -0.0671 -0.3238
 5810TIP3   OH238920   1.516   3.941   6.266  0.5302 -0.3502  0.9356
 5810TIP3    H138921   1.519   3.876   6.196  1.4004  0.1064  0.5326
 5810TIP3    H238922   1.537   3.891   6.345  2.9238 -0.3161  0.4095
 5811TIP3   OH238923   5.175   4.477   1.441 -0.6185 -0.2728  0.6783
 5811TIP3    H138924   5.121   4.408   1.478 -1.2958 -0.1468 -0.0405
 5811TIP3    H238925   5.211   4.439   1.361 -0.4887 -0.0034  0.6071
 5812TIP3   OH238926   1.112   5.119   2.988  0.0833 -0.2512 -0.1090
 5812TIP3    H138927   1.021   5.146   2.975 -0.0219  0.2189  1.3835
 5812TIP3    H238928   1.106   5.037   3.038  0.4712 -0.9063 -1.1209
 5813TIP3   OH238929   1.285   4.543  12.156 -0.4834 -0.3100 -0.5805
 5813TIP3    H138930   1.341   4.527  12.081  1.7911 -1.2595  1.2179
 5813TIP3    H238931   1.333   4.607  12.209 -1.1572 -1.0185  0.9394
 5814TIP3   OH238932   4.956   2.888  13.562 -0.1448  0.1677 -0.1681
 5814TIP3    H138933   4.927   2.949  13.494  0.2016  1.6690  0.9776
 5814TIP3    H238934   4.895   2.903  13.634 -0.1084 -0.9410  0.1141
 5815TIP3   OH238935   6.704   1.667  15.299 -0.4259  0.2278 -0.0450
 5815TIP3    H138936   6.796   1.687  15.318 -0.2645  0.0544 -0.6252
 5815TIP3    H238937   6.671   1.746  15.258 -1.3328  1.3851  2.6946
 5816TIP3   OH238938   1.967   2.408   1.170 -0.3736 -0.2439  0.3580
 5816TIP3    H138939   1.899   2.468   1.140 -1.0683 -0.8028  0.7756
 5816TIP3    H238940   2.025   2.462   1.223 -1.0924  0.0219  0.8817
 5817TIP3   OH238941   1.336   1.354   3.758  0.4903 -0.3135  0.1327
 5817TIP3    H138942   1.300   1.442   3.754  1.3667  0.0298 -0.6307
 5817TIP3    H238943   1.276   1.301   3.706 -0.8836 -0.5097  1.8284
 5818TIP3   OH238944   3.536   2.928  16.094 -0.6972  0.2363 -0.3619
 5818TIP3    H138945   3.579   2.996  16.145  0.0572 -1.0515  0.7994
 5818TIP3    H238946   3.541   2.850  16.149 -0.6675 -0.9976 -2.0221
 5819TIP3   OH238947   3.036   4.884  11.449 -0.5467 -0.2243  0.0851
 5819TIP3    H138948   2.991   4.921  11.525  0.4412 -0.1386  0.6473
 5819TIP3    H238949   3.022   4.790  11.456 -0.7376 -0.1893  0.1849
 5820TIP3   OH238950   4.222   4.841  14.840  0.6751 -0.2710  0.0760
 5820TIP3    H138951   4.271   4.817  14.919 -0.1105 -2.2104  0.0302
 5820TIP3    H238952   4.233   4.936  14.833 -0.1961  0.1879  3.2046
 5821TIP3   OH238953   2.234   0.369   4.294 -0.1865  0.2046  0.5915
 5821TIP3    H138954   2.151   0.341   4.258 -0.3801  0.7427  0.6000
 5821TIP3    H238955   2.219   0.460   4.321 -0.0818 -0.1931  2.1191
 5822TIP3   OH238956   0.059   3.050  11.113  0.3271  0.1729 -0.3467
 5822TIP3    H138957  -0.016   3.028  11.058  0.5155 -0.4486 -0.3687
 5822TIP3    H238958   0.095   3.130  11.075  0.2231 -0.0352 -0.8906
 5823TIP3   OH238959   4.008   3.290   2.252  0.2098 -0.3335  0.1094
 5823TIP3    H138960   3.961   3.374   2.252  0.7728  0.0281 -1.4840
 5823TIP3    H238961   4.019   3.269   2.344  0.7730  1.7740  0.5939
 5824TIP3   OH238962   1.263   6.048   0.953 -0.3505 -0.2576 -0.2656
 5824TIP3    H138963   1.234   6.129   0.994  2.6781  1.0050 -0.3722
 5824TIP3    H238964   1.239   6.058   0.861  1.3258  1.2700 -0.5816
 5825TIP3   OH238965   1.400   0.767  14.187 -0.0459 -0.3337 -0.1908
 5825TIP3    H138966   1.469   0.749  14.251 -0.8323  0.8801  1.0909
 5825TIP3    H238967   1.445   0.808  14.114  0.6949 -0.2666  0.2879
 5826TIP3   OH238968   0.608   3.513  12.484  0.2075  0.2791 -0.1469
 5826TIP3    H138969   0.684   3.504  12.427  0.9500  0.0237  0.8404
 5826TIP3    H238970   0.625   3.592  12.535  1.0649 -1.0899  1.8180
 5827TIP3   OH238971   3.064   1.104  13.088  0.1133 -0.2111  0.6068
 5827TIP3    H138972   3.012   1.147  13.157 -0.3535 -0.1312  0.2145
 5827TIP3    H238973   3.091   1.021  13.127 -0.4722 -0.3396  0.7621
 5828TIP3   OH238974   3.994   3.059  15.545  0.4094  0.2981 -0.2575
 5828TIP3    H138975   4.006   2.965  15.551  0.4264  0.0323 -3.0512
 5828TIP3    H238976   4.073   3.091  15.503  0.0666  1.4438 -0.0624
 5829TIP3   OH238977   3.649   2.960  16.799  0.0164  0.2024  0.2064
 5829TIP3    H138978   3.663   2.886  16.858  0.3538  0.5000  0.5019
 5829TIP3    H238979   3.578   3.010  16.839 -0.7582 -0.3901 -0.4105
 5830TIP3   OH238980   3.799   3.949   5.401 -0.1102  0.4822 -0.1003
 5830TIP3    H138981   3.838   3.888   5.464  2.3836  1.0995 -0.9317
 5830TIP3    H238982   3.766   3.893   5.330 -1.2540 -0.0807  0.8313
 5831TIP3   OH238983   1.015   1.289  12.311 -0.0558  0.1074 -0.3394
 5831TIP3    H138984   0.984   1.210  12.356  1.4799  0.1468  0.8607
 5831TIP3    H238985   1.058   1.256  12.231  0.2000 -0.2423 -0.0613
 5832TIP3   OH238986   5.172   1.394   6.103 -0.1452  0.3458 -0.0562
 5832TIP3    H138987   5.231   1.377   6.177  0.2605 -1.0252 -0.6541
 5832TIP3    H238988   5.118   1.315   6.097 -1.8346  1.4177  0.2470
 5833TIP3   OH238989   0.491   6.396  11.550  0.1014  0.7969  0.4808
 5833TIP3    H138990   0.423   6.331  11.535  1.0252  0.1249 -0.9965
 5833TIP3    H238991   0.461   6.474  11.503 -0.5327  1.1431  1.4293
 5834TIP3   OH238992   4.444   6.101   0.209  0.1112 -0.5380 -0.0851
 5834TIP3    H138993   4.477   6.075   0.123  1.3023  0.0607  0.1647
 5834TIP3    H238994   4.366   6.153   0.190  0.8805  0.3720 -0.8765
 5835TIP3   OH238995   3.622   1.376   5.110  0.3001  0.3628  0.3388
 5835TIP3    H138996   3.632   1.389   5.204  1.4321 -0.6614  0.4034
 5835TIP3    H238997   3.628   1.281   5.099  0.2349  0.4738 -0.7647
 5836TIP3   OH238998   2.440   4.369  16.018  0.1287  0.7973 -0.0438
 5836TIP3    H138999   2.525   4.327  16.014  0.4966  1.4197  0.9227
 5836TIP3    H239000   2.443   4.437  15.950  0.1160  0.3317 -0.5171
 5837TIP3   OH239001   6.273   2.288   0.353 -0.4071 -0.6321  0.8276
 5837TIP3    H139002   6.234   2.202   0.336 -2.4427  0.0687  1.6319
 5837TIP3    H239003   6.330   2.274   0.428 -1.2720 -1.1709  1.4065
 5838TIP3   OH239004   0.725   4.409  16.400  0.0384 -0.1492  0.1163
 5838TIP3    H139005   0.750   4.319  16.421 -1.4429 -0.2444  1.6194
 5838TIP3    H239006   0.804   4.460  16.418  0.2174 -0.8694  1.5403
 5839TIP3   OH239007   6.427   2.311  14.981 -0.3543 -0.5182  0.4234
 5839TIP3    H139008   6.522   2.323  14.989 -0.5170  1.3504 -0.0276
 5839TIP3    H239009   6.391   2.353  15.059 -0.9052  0.7114 -0.4695
 5840TIP3   OH239010   0.126   0.546   6.011  0.1792  0.9507  1.0313
 5840TIP3    H139011   0.038   0.517   5.989  0.4354  1.5764 -1.0580
 5840TIP3    H239012   0.113   0.616   6.075 -0.9564  1.8291 -0.0946
 5841TIP3   OH239013   3.558   1.956   1.945 -0.5266  0.3914  0.4032
 5841TIP3    H139014   3.517   1.870   1.950 -0.2300  0.2134 -0.1456
 5841TIP3    H239015   3.500   2.007   1.888  0.0445  0.1050 -0.4684
 5842TIP3   OH239016   0.083   1.886  15.365  0.0797  0.8127  0.0579
 5842TIP3    H139017   0.066   1.980  15.361  0.4567  0.8642 -0.3944
 5842TIP3    H239018   0.164   1.878  15.415  0.5840  0.8010 -0.7408
 5843TIP3   OH239019   0.738   6.300  13.224  0.0690  0.3400 -0.1018
 5843TIP3    H139020   0.745   6.208  13.199  0.6755  0.6130 -1.0018
 5843TIP3    H239021   0.771   6.304  13.314 -0.1178 -0.3442 -0.0043
 5844TIP3   OH239022   1.202   2.695   1.585 -0.0670 -0.3118  0.5211
 5844TIP3    H139023   1.167   2.785   1.579 -0.1568 -0.4171 -2.6235
 5844TIP3    H239024   1.156   2.648   1.515  2.2955 -1.9423 -0.0492
 5845TIP3   OH239025   2.667   6.542   4.867  0.7356 -0.4577 -0.1954
 5845TIP3    H139026   2.758   6.555   4.843  0.9316  0.5744  0.9811
 5845TIP3    H239027   2.666   6.460   4.916  0.9143 -0.7828 -0.7298
 5846TIP3   OH239028   6.535   1.820  11.757 -0.0941  0.0985  0.5395
 5846TIP3    H139029   6.536   1.756  11.828  1.8217  0.3820  0.8056
 5846TIP3    H239030   6.489   1.895  11.793 -1.7777 -0.8395  0.4417
 5847TIP3   OH239031   2.900   3.245  15.491  0.4482 -0.6834 -0.3582
 5847TIP3    H139032   2.936   3.333  15.483 -0.5065 -0.1892  0.5217
 5847TIP3    H239033   2.974   3.192  15.523  0.5098  0.2469  1.1508
 5848TIP3   OH239034   3.244   0.674  15.143 -0.2788 -0.8705 -0.6369
 5848TIP3    H139035   3.280   0.753  15.183 -2.3136  0.5400 -1.3871
 5848TIP3    H239036   3.275   0.677  15.053  1.8584 -2.4597 -0.0408
 5849TIP3   OH239037   2.469   5.401   2.525  0.4714  0.0453  0.0690
 5849TIP3    H139038   2.482   5.494   2.503  0.6475 -0.0576 -0.2663
 5849TIP3    H239039   2.449   5.359   2.442 -1.6515  0.1198  0.5062
 5850TIP3   OH239040   3.536   2.339  12.946 -0.1121 -0.3393 -0.2779
 5850TIP3    H139041   3.491   2.373  13.024  0.0559 -0.9541  0.0966
 5850TIP3    H239042   3.563   2.417  12.898 -0.9884  0.0453 -0.1655
 5851TIP3   OH239043   3.578   2.991   4.560 -0.4194 -0.0119  0.1941
 5851TIP3    H139044   3.601   2.898   4.557  1.5270  0.4150  0.1550
 5851TIP3    H239045   3.627   3.025   4.635  1.0936  1.4491 -1.3410
 5852TIP3   OH239046   2.129   3.017   3.455  0.2418 -0.0447 -0.3533
 5852TIP3    H139047   2.195   3.033   3.523  0.2204  1.5076 -0.6528
 5852TIP3    H239048   2.088   3.102   3.442  0.3505 -0.2653 -2.4402
 5853TIP3   OH239049   5.152   6.801  11.181 -0.1344  0.1113  0.7124
 5853TIP3    H139050   5.230   6.826  11.131 -0.8856  1.0645 -0.0374
 5853TIP3    H239051   5.152   6.859  11.257  1.5646 -2.0346  2.4439
 5854TIP3   OH239052   2.475   0.959  14.454 -0.3804  0.4815  0.1102
 5854TIP3    H139053   2.498   1.051  14.466 -0.9712  1.1808 -3.1141
 5854TIP3    H239054   2.522   0.933  14.374  0.7709 -2.4399  1.5955
 5855TIP3   OH239055   2.824   3.319   2.628  0.6840 -0.0052 -0.4300
 5855TIP3    H139056   2.824   3.248   2.691  1.3622  0.4384  0.0866
 5855TIP3    H239057   2.816   3.276   2.543  0.0823 -0.6235 -0.0624
 5856TIP3   OH239058   6.096   1.789  14.764  0.2969  0.4369 -0.7851
 5856TIP3    H139059   6.159   1.754  14.701  1.4116  0.6191  0.2115
 5856TIP3    H239060   6.057   1.711  14.803  0.9471  0.3113 -0.3778
 5857TIP3   OH239061   2.171   0.920  12.262 -0.2521  0.0682 -0.8282
 5857TIP3    H139062   2.165   0.827  12.285 -0.6085  0.6464  1.7192
 5857TIP3    H239063   2.262   0.933  12.236  0.4732 -0.5204  1.2946
 5858TIP3   OH239064   3.180   1.217  14.017  0.1653 -0.2888 -0.1736
 5858TIP3    H139065   3.153   1.154  13.951  0.7397 -0.1254 -0.5708
 5858TIP3    H239066   3.119   1.203  14.090 -0.7598 -0.1654 -0.9018
 5859TIP3   OH239067   0.904   4.676   6.059  0.5363  0.0336  0.2381
 5859TIP3    H139068   0.937   4.756   6.020 -0.6155 -0.3325 -1.6180
 5859TIP3    H239069   0.811   4.673   6.035  0.6636 -2.1026 -0.2239
 5860TIP3   OH239070   0.319   3.402   3.126 -0.0654  0.1929 -0.6405
 5860TIP3    H139071   0.263   3.327   3.144  0.1717  0.1203 -0.1853
 5860TIP3    H239072   0.394   3.365   3.080  0.8500 -0.1321  1.0189
 5861TIP3   OH239073   6.036   5.183  16.971 -0.2128  0.4114 -0.0670
 5861TIP3    H139074   6.119   5.174  17.017 -0.7690 -0.3241  0.8295
 5861TIP3    H239075   6.032   5.275  16.945  0.1567  0.8250  1.2855
 5862TIP3   OH239076   1.071   2.800  14.587 -0.7772 -0.3653 -0.3171
 5862TIP3    H139077   0.987   2.811  14.633 -0.3989 -0.1183  0.3312
 5862TIP3    H239078   1.131   2.859  14.633 -0.3941 -0.0948 -1.1567
 5863TIP3   OH239079   5.035   0.883   0.967  0.1021 -0.0844 -0.1855
 5863TIP3    H139080   5.057   0.949   1.032  1.0093 -1.1800  0.6623
 5863TIP3    H239081   5.113   0.829   0.960  0.3530  0.4663 -2.8174
 5864TIP3   OH239082   1.761   4.653  16.150 -0.1470  0.2294  0.6284
 5864TIP3    H139083   1.703   4.726  16.132 -1.2933 -0.6242  0.7364
 5864TIP3    H239084   1.717   4.604  16.220  0.3628 -0.8011  0.2571
 5865TIP3   OH239085   0.029   4.946  12.498 -0.5083 -0.1387 -0.0526
 5865TIP3    H139086   0.116   4.919  12.525  0.4409  1.0998 -1.6858
 5865TIP3    H239087   0.028   4.935  12.403 -1.9141  0.4806 -0.1422
 5866TIP3   OH239088   3.361   2.445  15.602 -0.1251  0.5722  0.0263
 5866TIP3    H139089   3.350   2.410  15.514  1.2149 -1.0139  0.4353
 5866TIP3    H239090   3.274   2.476  15.626 -0.4827  1.1748 -1.8887
 5867TIP3   OH239091   5.326   3.570  12.310  0.0796  0.0244  0.1072
 5867TIP3    H139092   5.406   3.522  12.289  1.7275  1.0346  3.3536
 5867TIP3    H239093   5.269   3.504  12.350 -0.0025 -0.3332 -0.5871
 5868TIP3   OH239094   4.516   3.186  13.538 -0.4919 -0.2522 -0.0475
 5868TIP3    H139095   4.506   3.142  13.622  0.5708 -2.3248 -0.9481
 5868TIP3    H239096   4.555   3.121  13.481  1.0783  1.8370 -1.5128
 5869TIP3   OH239097   5.639   6.544  17.113 -0.2406  0.4768  0.6478
 5869TIP3    H139098   5.607   6.476  17.053 -1.9459  0.8126  1.1541
 5869TIP3    H239099   5.660   6.496  17.194  2.1341  0.0102 -0.1548
 5870TIP3   OH239100   3.190   5.444  17.160  0.0307 -0.0954 -0.1891
 5870TIP3    H139101   3.194   5.518  17.099  1.5347  0.3412  0.3898
 5870TIP3    H239102   3.159   5.483  17.242  0.8342 -0.1026  0.1185
 5871TIP3   OH239103   4.594   4.144  11.823  0.0879  0.0341  0.2578
 5871TIP3    H139104   4.576   4.170  11.733 -0.2479 -0.4386  0.1819
 5871TIP3    H239105   4.624   4.054  11.817  0.6427  0.1945  0.5698
 5872TIP3   OH239106   5.402   6.411   1.180 -0.1356 -0.2574 -0.1084
 5872TIP3    H139107   5.422   6.329   1.136  1.1644 -0.2073  0.3530
 5872TIP3    H239108   5.458   6.476   1.136  0.0057  0.0860  0.5649
 5873TIP3   OH239109   2.570   1.607  12.592 -0.4153 -0.5471 -0.5617
 5873TIP3    H139110   2.632   1.675  12.568  0.2520  0.1150  2.5370
 5873TIP3    H239111   2.624   1.531  12.615 -0.8967 -0.7608 -0.1112
 5874TIP3   OH239112   0.455   1.395   0.979  0.2811  0.6737  0.2316
 5874TIP3    H139113   0.486   1.485   0.966 -0.0597  0.9178  1.0139
 5874TIP3    H239114   0.447   1.359   0.891 -1.7968  2.1909 -0.2901
 5875TIP3   OH239115   3.785   1.080   4.634 -0.1883  0.3672  1.0005
 5875TIP3    H139116   3.871   1.054   4.668 -0.6097 -1.8919  0.4758
 5875TIP3    H239117   3.722   1.043   4.696 -0.8673 -1.2511 -0.5731
 5876TIP3   OH239118   0.497   3.621   0.645 -0.0671 -0.5679  0.5257
 5876TIP3    H139119   0.415   3.629   0.597 -1.2309 -1.3379  2.3001
 5876TIP3    H239120   0.521   3.529   0.638  1.1757 -0.1868 -0.7452
 5877TIP3   OH239121   1.633   6.595  11.842  0.3127  0.1227  0.0998
 5877TIP3    H139122   1.620   6.657  11.770  2.0714  1.5045  0.9158
 5877TIP3    H239123   1.569   6.621  11.908  1.7021  1.7859  0.8544
 5878TIP3   OH239124   2.263   2.292   1.227  0.4153  0.3091 -0.0699
 5878TIP3    H139125   2.226   2.229   1.166 -0.1840  2.0773 -1.6530
 5878TIP3    H239126   2.357   2.277   1.224  0.2939 -0.3608 -0.5917
 5879TIP3   OH239127   3.031   6.261   1.151  0.1626  0.3724  0.0384
 5879TIP3    H139128   3.018   6.355   1.158  0.0634  0.3736 -0.1882
 5879TIP3    H239129   2.953   6.228   1.108 -0.1707  0.0807  0.8512
 5880TIP3   OH239130   5.195   1.569  10.735  0.7537 -0.1842 -0.6526
 5880TIP3    H139131   5.269   1.609  10.690  0.2700 -0.9579 -2.2374
 5880TIP3    H239132   5.164   1.635  10.797  0.2797  1.7413 -2.8102
 5881TIP3   OH239133   1.714   1.986  12.248 -0.3201  0.1799 -0.0611
 5881TIP3    H139134   1.621   1.976  12.229 -0.1814 -0.7401 -0.3136
 5881TIP3    H239135   1.758   1.926  12.187  0.5607  1.7667 -1.0700
 5882TIP3   OH239136   3.853   4.780   5.375  0.4673  0.7815  0.4670
 5882TIP3    H139137   3.792   4.724   5.424 -0.3708  0.5041 -0.8345
 5882TIP3    H239138   3.939   4.743   5.393 -0.0524 -0.9129 -0.2880
 5883TIP3   OH239139   6.746   5.437   1.444 -0.3690  0.1946 -1.0214
 5883TIP3    H139140   6.828   5.483   1.421  0.3798  0.4419  1.7192
 5883TIP3    H239141   6.681   5.507   1.452 -0.1744  0.3389 -0.6436
 5884TIP3   OH239142   4.036   5.379  13.242 -0.2405  0.0156  0.1566
 5884TIP3    H139143   4.076   5.368  13.155  2.2744  0.5382  1.1637
 5884TIP3    H239144   4.016   5.472  13.248 -0.2301  0.0140  0.2145
 5885TIP3   OH239145   6.250   5.119  13.766  0.1592  0.3964 -0.0006
 5885TIP3    H139146   6.255   5.025  13.780  1.7108  0.4449 -0.0308
 5885TIP3    H239147   6.240   5.156  13.854  0.8345  0.2563  0.1400
 5886TIP3   OH239148   3.886   2.951   0.525  0.0049  0.3532  0.4124
 5886TIP3    H139149   3.971   2.933   0.564  0.7295 -0.5213 -1.4398
 5886TIP3    H239150   3.879   2.888   0.453 -2.2584  0.3390  0.5869
 5887TIP3   OH239151   4.803   6.007   1.444  0.5695 -0.1414 -0.3181
 5887TIP3    H139152   4.885   6.019   1.397  1.8108 -3.1518  0.8556
 5887TIP3    H239153   4.741   5.980   1.376  1.3289 -0.6787 -0.8206
 5888TIP3   OH239154   3.747   5.851  16.033 -0.5075  0.5913  0.5038
 5888TIP3    H139155   3.793   5.800  16.099  0.3898 -1.1139 -1.3303
 5888TIP3    H239156   3.692   5.787  15.987 -1.0848  1.7208 -0.4394
 5889TIP3   OH239157   6.646   1.868   2.124 -0.2724  0.2858  0.2443
 5889TIP3    H139158   6.703   1.872   2.047 -1.7015 -0.5422 -0.9098
 5889TIP3    H239159   6.565   1.911   2.097 -0.5219  0.7038  1.5692
 5890TIP3   OH239160   4.040   1.644  16.913  0.1027 -0.4723 -0.0241
 5890TIP3    H139161   3.997   1.581  16.971 -0.0079 -0.6314 -0.2751
 5890TIP3    H239162   4.044   1.725  16.964 -1.4243 -0.1538 -0.3489
 5891TIP3   OH239163   3.932   5.006   4.701 -0.2533 -0.4948  0.6066
 5891TIP3    H139164   3.851   4.972   4.661  1.2906 -1.3422 -2.0964
 5891TIP3    H239165   3.910   5.094   4.730 -2.0255 -0.5154 -0.5258
 5892TIP3   OH239166   0.731   4.130   1.900 -0.0575  0.2499  0.0106
 5892TIP3    H139167   0.673   4.147   1.826  0.6166 -0.7298 -0.7596
 5892TIP3    H239168   0.693   4.053   1.943  1.2056 -1.0466 -1.1072
 5893TIP3   OH239169   0.562   1.644   0.921 -0.4672  0.5506 -0.5483
 5893TIP3    H139170   0.636   1.603   0.877 -0.9257 -1.1711  0.2135
 5893TIP3    H239171   0.601   1.714   0.974  0.5671 -0.1069 -0.4257
 5894TIP3   OH239172   0.744   1.463   4.553 -0.4056  0.4748  0.4935
 5894TIP3    H139173   0.667   1.519   4.564 -0.1244  0.7345  1.1763
 5894TIP3    H239174   0.735   1.396   4.620 -0.5929 -0.1471 -0.1349
 5895TIP3   OH239175   5.564   1.402   3.393 -0.3584  0.1991  0.3776
 5895TIP3    H139176   5.614   1.369   3.319  0.0836  1.1578  0.2265
 5895TIP3    H239177   5.529   1.324   3.436  1.4018 -0.4969  0.5991
 5896TIP3   OH239178   2.065   5.857  13.525  0.3186  0.1130 -0.1373
 5896TIP3    H139179   2.061   5.767  13.557 -0.6956 -0.5780 -2.0471
 5896TIP3    H239180   2.048   5.911  13.603 -0.6005 -1.4040  0.7677
 5897TIP3   OH239181   2.038   1.898  15.307 -0.0895 -0.0861  0.2231
 5897TIP3    H139182   2.095   1.938  15.372  0.2436 -0.2345  0.0224
 5897TIP3    H239183   1.969   1.964  15.292  0.7994  0.6917 -0.5738
 5898TIP3   OH239184   4.301   1.749  12.550 -0.8371 -0.5819  0.2731
 5898TIP3    H139185   4.235   1.754  12.481 -0.9478  2.9035  0.4501
 5898TIP3    H239186   4.381   1.782  12.510 -0.3846 -0.4375  1.2509
 5899TIP3   OH239187   2.990   3.173  13.023 -0.1823  0.1797 -0.5258
 5899TIP3    H139188   2.925   3.118  12.979 -0.5635  0.5665 -0.4561
 5899TIP3    H239189   2.986   3.146  13.115  0.0845 -0.1138 -0.5986
 5900TIP3   OH239190   5.899   2.219  12.910 -0.6477 -0.3202 -0.6164
 5900TIP3    H139191   5.985   2.230  12.952 -1.2497 -0.9806  0.8725
 5900TIP3    H239192   5.863   2.307  12.905 -0.8234 -0.2889  0.8823
 5901TIP3   OH239193   2.223   2.706  14.154  0.1701 -0.0077 -0.0032
 5901TIP3    H139194   2.171   2.754  14.217 -0.5688 -0.1633 -0.4863
 5901TIP3    H239195   2.219   2.758  14.074 -1.4211 -1.2816 -0.8236
 5902TIP3   OH239196   1.119   5.749  12.211  0.0099 -0.1022  0.7615
 5902TIP3    H139197   1.110   5.806  12.135  1.4589  0.8166  1.2306
 5902TIP3    H239198   1.164   5.671  12.178  0.7064  0.3301  0.6622
 5903TIP3   OH239199   0.360   4.200   2.492 -0.2431  0.0359 -0.2405
 5903TIP3    H139200   0.394   4.178   2.578 -0.7218  0.0429 -0.0460
 5903TIP3    H239201   0.436   4.195   2.434  0.7088  2.6670  0.6175
 5904TIP3   OH239202   2.414   2.689   4.780  0.2040 -0.7961  0.2855
 5904TIP3    H139203   2.503   2.663   4.806 -0.1250 -0.7057  1.5631
 5904TIP3    H239204   2.409   2.667   4.688  2.2576  1.0144 -0.3509
 5905TIP3   OH239205   6.172   6.062  13.061  0.1577  0.2801 -0.6183
 5905TIP3    H139206   6.084   6.060  13.022 -0.2744 -1.4400  0.3220
 5905TIP3    H239207   6.196   6.154  13.059 -2.7689  1.2571  1.3584
 5906TIP3   OH239208   0.887   5.008   0.002 -0.1769  0.5750  0.5354
 5906TIP3    H139209   0.945   4.953  -0.050  0.7306  1.5126  0.5285
 5906TIP3    H239210   0.808   4.955   0.014  0.8609 -0.9256  0.9722
 5907TIP3   OH239211   6.563   4.125  16.621 -0.5384  0.1812  0.1478
 5907TIP3    H139212   6.473   4.106  16.648 -0.2779  0.9344  1.6698
 5907TIP3    H239213   6.608   4.041  16.624 -0.8396  0.0378  0.8816
 5908TIP3   OH239214   3.428   4.862  13.807  0.6953  0.3248 -0.1783
 5908TIP3    H139215   3.471   4.887  13.888  1.2317 -2.6664  0.5815
 5908TIP3    H239216   3.335   4.873  13.825  0.6799 -2.0184  1.6068
 5909TIP3   OH239217   2.767   6.577  11.013  0.3371 -0.1195  0.4688
 5909TIP3    H139218   2.831   6.632  11.059  0.3353 -1.2346  1.8638
 5909TIP3    H239219   2.820   6.512  10.967  0.2496 -0.8375  1.3527
 5910TIP3   OH239220   0.502   6.803   1.645 -0.4849 -0.6095 -0.1908
 5910TIP3    H139221   0.472   6.834   1.560  0.6241  0.7257 -0.1395
 5910TIP3    H239222   0.468   6.867   1.707 -0.4946 -1.0475  0.2588
 5911TIP3   OH239223   1.616   4.927   2.824 -0.0109  0.6888  0.0817
 5911TIP3    H139224   1.550   4.975   2.874 -0.1639  0.0530  0.4944
 5911TIP3    H239225   1.626   4.844   2.870 -0.4104 -0.0623 -1.1360
 5912TIP3   OH239226   3.635   5.014  11.278 -0.1263  0.3887  0.0076
 5912TIP3    H139227   3.660   5.083  11.216  0.4791 -1.2085 -1.6262
 5912TIP3    H239228   3.679   5.039  11.360  1.1802  1.2537 -0.9063
 5913TIP3   OH239229   5.294   5.777   1.902 -0.3412  0.1100  0.5797
 5913TIP3    H139230   5.254   5.845   1.957 -2.8700 -0.8887  0.0913
 5913TIP3    H239231   5.249   5.785   1.818  1.7086 -0.0366 -0.6083
 5914TIP3   OH239232   3.359   4.363  11.841  0.3405 -0.1021 -0.0274
 5914TIP3    H139233   3.422   4.433  11.822  0.5472  0.2485  1.8061
 5914TIP3    H239234   3.330   4.381  11.930 -0.7423 -1.5148 -0.0705
 5915TIP3   OH239235   4.006   2.766   5.052 -0.4507  0.0438  0.9010
 5915TIP3    H139236   3.946   2.841   5.048 -0.0119  0.4304  1.3380
 5915TIP3    H239237   3.966   2.707   5.116 -1.3704 -0.6267 -0.2593
 5916TIP3   OH239238   4.618   0.820  15.289 -0.9038  0.2380 -0.4644
 5916TIP3    H139239   4.581   0.896  15.335  0.0064  0.8312 -0.6814
 5916TIP3    H239240   4.573   0.820  15.204 -0.7536  0.6681 -0.5467
 5917TIP3   OH239241   3.591   0.579   4.110 -0.1890  0.0382 -0.2664
 5917TIP3    H139242   3.497   0.570   4.126 -0.4972  2.8159 -0.0809
 5917TIP3    H239243   3.632   0.529   4.181 -1.5776  1.9692  2.0431
 5918TIP3   OH239244   5.524   1.651   1.038 -0.3185 -0.2189 -0.5223
 5918TIP3    H139245   5.521   1.561   1.004  1.8426 -0.2577 -0.7636
 5918TIP3    H239246   5.586   1.696   0.981  1.1388  0.5301  1.5369
 5919TIP3   OH239247   6.218   6.526  13.213 -0.2461 -0.0429  0.1906
 5919TIP3    H139248   6.295   6.562  13.256 -0.5762  1.2319 -0.2439
 5919TIP3    H239249   6.179   6.600  13.166 -0.7803 -1.0397 -1.0086
 5920TIP3   OH239250   1.190   5.120   0.085 -0.1218 -0.3265 -0.6258
 5920TIP3    H139251   1.157   5.123  -0.004 -0.3545 -0.0348 -0.5342
 5920TIP3    H239252   1.280   5.155   0.079  0.4536 -1.8051 -0.9878
 5921TIP3   OH239253   3.707   3.079   1.257 -0.3464 -0.3160  0.3258
 5921TIP3    H139254   3.783   3.038   1.217  0.7968 -0.4864  2.5345
 5921TIP3    H239255   3.705   3.046   1.347 -1.6424  1.4725  1.0369
 5922TIP3   OH239256   0.312   3.872   2.308  0.0799 -0.3325  0.2108
 5922TIP3    H139257   0.404   3.848   2.319  0.4961  1.0601  0.0605
 5922TIP3    H239258   0.275   3.866   2.396  0.2875 -0.9655  0.2609
 5923TIP3   OH239259   2.842   6.395  12.828 -0.0394 -0.3464  0.3658
 5923TIP3    H139260   2.786   6.322  12.804 -0.9954  0.1937  0.8804
 5923TIP3    H239261   2.813   6.467  12.772  0.9120 -0.3457 -0.1589
 5924TIP3   OH239262   5.093   1.293  15.363 -0.1070  0.4758  0.0887
 5924TIP3    H139263   5.055   1.351  15.298 -0.3969 -0.9334 -1.0331
 5924TIP3    H239264   5.185   1.321  15.368 -0.4638  1.6866  0.3481
 5925TIP3   OH239265   5.453   0.103   0.481 -0.2896  0.2773 -0.3103
 5925TIP3    H139266   5.398   0.081   0.556  1.1075  0.0989  0.7014
 5925TIP3    H239267   5.466   0.198   0.487 -1.9782  0.6424 -1.6378
 5926TIP3   OH239268   3.037   4.211   1.469  0.6104  0.2183  0.2665
 5926TIP3    H139269   3.030   4.116   1.474  0.6160  0.2377  0.7090
 5926TIP3    H239270   3.101   4.234   1.537  0.9951  0.4955 -0.1775
 5927TIP3   OH239271   1.029   6.041  16.509  0.0486 -0.1956 -0.0807
 5927TIP3    H139272   0.965   5.975  16.485  0.4061  0.1453 -2.1946
 5927TIP3    H239273   1.107   5.992  16.533  0.1643 -0.5762 -1.1858
 5928TIP3   OH239274   4.670   5.858  13.775  0.0910 -0.3487  0.3171
 5928TIP3    H139275   4.758   5.893  13.781  0.0834 -0.4996  1.7516
 5928TIP3    H239276   4.678   5.783  13.716  1.0874 -0.8040  0.9963
 5929TIP3   OH239277   5.092   5.839   6.031  0.2663 -0.1370  0.5626
 5929TIP3    H139278   5.188   5.839   6.027  0.2713 -0.0242  0.6778
 5929TIP3    H239279   5.069   5.751   6.057  0.2952 -0.4957 -0.5557
 5930TIP3   OH239280   0.610   2.259  16.589 -0.2761  0.0124  0.0305
 5930TIP3    H139281   0.694   2.265  16.634 -0.1465 -0.0155 -0.2038
 5930TIP3    H239282   0.591   2.165  16.586 -1.4223  0.1306  2.0864
 5931TIP3   OH239283   4.459   6.488  15.063  0.1636 -0.2377 -0.3433
 5931TIP3    H139284   4.431   6.440  14.985  1.9715 -1.7339 -0.1277
 5931TIP3    H239285   4.382   6.487  15.121 -0.2923 -1.6058 -0.9478
 5932TIP3   OH239286   6.100   5.464  10.793  0.2475 -0.0480  0.0698
 5932TIP3    H139287   6.063   5.528  10.854  0.5491 -1.4979  1.8810
 5932TIP3    H239288   6.190   5.453  10.823  0.7466  0.0096 -1.3700
 5933TIP3   OH239289   2.938   2.154   5.272  0.3491  0.1501 -0.0230
 5933TIP3    H139290   2.910   2.110   5.192  1.6219 -0.7497 -0.0142
 5933TIP3    H239291   3.018   2.200   5.247  0.0460  0.9451  0.4326
 5934TIP3   OH239292   3.931   5.120  15.492 -0.0120 -0.9560 -0.0955
 5934TIP3    H139293   4.022   5.092  15.500  0.7388  0.4986 -2.5623
 5934TIP3    H239294   3.917   5.177  15.567  0.0218 -3.6530  2.1070
 5935TIP3   OH239295   3.603   0.417  13.958 -0.6026 -0.2389 -0.4525
 5935TIP3    H139296   3.614   0.504  13.996  1.0605 -0.1431 -1.0910
 5935TIP3    H239297   3.584   0.361  14.033  0.3928  0.3277  0.2425
 5936TIP3   OH239298   4.061   4.050  15.562 -0.5721 -0.0351  0.6035
 5936TIP3    H139299   3.984   4.094  15.526  0.6512  1.8331  0.1437
 5936TIP3    H239300   4.115   4.121  15.598  1.8677 -1.0393 -0.8330
 5937TIP3   OH239301   6.672   0.155  10.510  0.1941 -0.4347 -0.0835
 5937TIP3    H139302   6.737   0.188  10.448  1.2117 -1.4226  0.4358
 5937TIP3    H239303   6.603   0.119  10.454  0.5933 -0.3488 -0.6442
 5938TIP3   OH239304   6.426   0.789  12.902  0.0280 -0.7784  0.3706
 5938TIP3    H139305   6.433   0.851  12.829 -1.8891 -1.0056 -0.0595
 5938TIP3    H239306   6.414   0.844  12.979  0.2736 -0.5760  0.2650
 5939TIP3   OH239307   6.448   5.293  11.338  0.5479 -0.4644 -0.6055
 5939TIP3    H139308   6.374   5.351  11.324 -0.0908 -1.1424 -0.1631
 5939TIP3    H239309   6.495   5.292  11.255  0.5446  0.6291 -0.6301
 5940TIP3   OH239310   2.612   6.045   2.452 -0.1863  0.1906  0.1019
 5940TIP3    H139311   2.649   6.011   2.534  0.0191  0.7042  0.2317
 5940TIP3    H239312   2.518   6.050   2.468  0.0175  2.3104  1.1244
 5941TIP3   OH239313   1.241   3.197   1.185  0.6402  0.6953 -0.3912
 5941TIP3    H139314   1.265   3.282   1.149  0.1335  2.1677  2.5257
 5941TIP3    H239315   1.319   3.168   1.233 -0.0108  0.7254  0.7114
 5942TIP3   OH239316   3.254   6.568   2.774  0.4371 -0.0721  0.3253
 5942TIP3    H139317   3.273   6.599   2.862  1.6311 -1.6520  0.6646
 5942TIP3    H239318   3.196   6.635   2.737  2.0912  2.0335  1.3089
 5943TIP3   OH239319   5.265   1.951   1.310 -0.2545  0.0611 -0.6011
 5943TIP3    H139320   5.287   1.877   1.253 -0.4594  0.6847 -1.5202
 5943TIP3    H239321   5.170   1.960   1.300 -0.5627 -0.8699  1.1631
 5944TIP3   OH239322   4.337   3.562   0.451 -0.0915  0.3770 -0.0371
 5944TIP3    H139323   4.381   3.508   0.385 -1.2520 -0.1180 -0.4354
 5944TIP3    H239324   4.398   3.566   0.524 -0.8144 -3.4342  1.0046
 5945TIP3   OH239325   4.251   2.462   1.576 -0.0317  0.0485  0.2913
 5945TIP3    H139326   4.209   2.548   1.565  0.4475  0.1993 -0.4637
 5945TIP3    H239327   4.235   2.439   1.667 -0.4701  0.7801  0.4105
 5946TIP3   OH239328   2.406   6.418  15.624  0.0614  0.3499 -0.0425
 5946TIP3    H139329   2.419   6.457  15.710  1.4916  0.2163 -0.1769
 5946TIP3    H239330   2.319   6.447  15.597 -1.1337 -0.9565  2.1516
 5947TIP3   OH239331   3.579   5.396  13.993 -0.0967  0.3057  0.8358
 5947TIP3    H139332   3.661   5.396  14.042  1.1871  1.1984 -1.1705
 5947TIP3    H239333   3.556   5.489  13.984  0.5917  0.3117 -1.5338
 5948TIP3   OH239334   4.884   0.178   5.915  0.3355  0.0061  0.4463
 5948TIP3    H139335   4.808   0.189   5.972  0.0902  2.5520 -0.2477
 5948TIP3    H239336   4.911   0.268   5.893  1.1630 -0.8487 -2.4635
 5949TIP3   OH239337   0.457   2.857   3.988  0.8570  0.2925 -0.2999
 5949TIP3    H139338   0.522   2.840   3.920  3.3924  1.9601  1.5226
 5949TIP3    H239339   0.497   2.824   4.069  0.0904  2.5362  1.0901
 5950TIP3   OH239340   6.355   3.984   1.991 -0.0140  0.2165  0.3378
 5950TIP3    H139341   6.424   3.951   1.933  0.0925 -1.9188  1.5572
 5950TIP3    H239342   6.278   3.932   1.967 -0.4858  0.7076  0.7744
 5951TIP3   OH239343   0.202   4.386  12.132 -0.1634 -0.5511  0.5745
 5951TIP3    H139344   0.236   4.421  12.050 -1.9322 -1.0981 -0.4465
 5951TIP3    H239345   0.112   4.418  12.136  0.0642 -0.0223  2.6338
 5952TIP3   OH239346   2.274   2.230  10.841 -0.1522  0.1149 -0.0520
 5952TIP3    H139347   2.335   2.195  10.907 -1.1592 -1.1909  0.2314
 5952TIP3    H239348   2.326   2.235  10.761 -0.0804 -2.7538 -0.2811
 5953TIP3   OH239349   3.410   0.820  15.550 -0.6043  0.3568  0.3405
 5953TIP3    H139350   3.384   0.899  15.597 -0.2144 -0.1025  1.3573
 5953TIP3    H239351   3.506   0.823  15.549 -0.5743  1.2457 -2.0057
 5954TIP3   OH239352   0.006   0.178  16.239  0.5699  0.7188 -0.2593
 5954TIP3    H139353  -0.004   0.254  16.295  0.8006  1.0649 -0.6795
 5954TIP3    H239354   0.040   0.109  16.297 -0.8686  0.5353  0.4120
 5955TIP3   OH239355   4.956   0.543  12.855  0.2615  0.2002  0.2042
 5955TIP3    H139356   4.868   0.580  12.852  0.2892  0.2731  0.2975
 5955TIP3    H239357   4.947   0.457  12.814 -0.2418 -0.5615  1.8255
 5956TIP3   OH239358   2.545   1.313  13.841 -0.0025  0.2979  0.0169
 5956TIP3    H139359   2.499   1.246  13.893 -0.7369  1.2402  0.6055
 5956TIP3    H239360   2.558   1.271  13.756 -1.6782 -0.1285 -0.0657
 5957TIP3   OH239361   3.634   5.367   0.791  0.2928  0.1183 -0.6078
 5957TIP3    H139362   3.704   5.368   0.725  0.5486  1.3863 -0.3319
 5957TIP3    H239363   3.589   5.284   0.775  1.1562 -0.2069 -1.5278
 5958TIP3   OH239364   4.700   6.695  15.999  0.1668 -0.0652  0.3426
 5958TIP3    H139365   4.618   6.744  16.006 -0.0029 -0.4885  1.6207
 5958TIP3    H239366   4.761   6.742  16.057  0.7302  0.0221 -0.2988
 5959TIP3   OH239367   5.908   0.353  15.663  0.1079 -0.2978 -0.0514
 5959TIP3    H139368   5.909   0.296  15.586  0.4567 -0.0969 -0.2002
 5959TIP3    H239369   5.818   0.349  15.695 -0.6126  1.2336 -1.6704
 5960TIP3   OH239370   2.276   1.334  13.028 -0.1262  0.9489  0.7012
 5960TIP3    H139371   2.368   1.357  13.012 -0.2411  1.5426  0.8668
 5960TIP3    H239372   2.247   1.293  12.947  0.6583 -0.4515  1.1100
 5961TIP3   OH239373   5.745   0.484  15.163 -0.0532  0.5588  0.2023
 5961TIP3    H139374   5.700   0.404  15.191 -0.9106  0.2178 -1.9933
 5961TIP3    H239375   5.675   0.546  15.145  0.5640  1.4273  0.6900
 5962TIP3   OH239376   1.825   6.683   3.672  0.1143  0.1410 -0.3335
 5962TIP3    H139377   1.868   6.766   3.692  2.2834 -0.1431 -3.2199
 5962TIP3    H239378   1.896   6.619   3.667 -1.1714 -1.3275 -0.8701
 5963TIP3   OH239379   3.408   4.475   5.003 -0.2176 -0.2330 -0.6787
 5963TIP3    H139380   3.370   4.387   5.011  0.1795 -0.4176 -0.8291
 5963TIP3    H239381   3.482   4.475   5.063  1.3757 -0.8628 -2.5629
 5964TIP3   OH239382   4.063   0.677  11.695  0.5385 -0.0574  0.2907
 5964TIP3    H139383   3.998   0.686  11.625  1.4244 -1.3100 -0.7447
 5964TIP3    H239384   4.015   0.634  11.766 -0.9318  3.0461  1.3510
 5965TIP3   OH239385   2.509   5.039  10.700  0.4278  0.3330  0.2528
 5965TIP3    H139386   2.492   5.133  10.688  0.8952  0.4409  0.3836
 5965TIP3    H239387   2.599   5.036  10.734  0.4841 -0.1722  0.0670
 5966TIP3   OH239388   2.466   6.748  13.883  0.1432  0.2939 -0.5333
 5966TIP3    H139389   2.474   6.840  13.910  1.9141  0.8156 -2.5769
 5966TIP3    H239390   2.392   6.748  13.822 -0.3729  0.1898  0.0852
 5967TIP3   OH239391   1.850   4.458  16.406  0.4419 -0.0936 -0.4754
 5967TIP3    H139392   1.845   4.410  16.324  0.2117 -0.9478  0.0180
 5967TIP3    H239393   1.760   4.463  16.437  0.3502  1.3746 -0.8922
 5968TIP3   OH239394   0.428   2.837  13.272 -0.6543 -0.3036 -0.3667
 5968TIP3    H139395   0.468   2.750  13.267 -2.4329 -1.1776 -0.3987
 5968TIP3    H239396   0.334   2.820  13.261 -1.3143  1.3452  2.0788
 5969TIP3   OH239397   5.484   6.428   1.801 -0.1929  1.2602 -0.6051
 5969TIP3    H139398   5.472   6.399   1.711 -1.1179 -0.6187  0.0687
 5969TIP3    H239399   5.399   6.412   1.843  0.4821  1.2122  0.8191
 5970TIP3   OH239400   4.808   0.945  12.989 -0.4774  0.1826  0.1188
 5970TIP3    H139401   4.872   0.910  13.050 -0.3602 -0.3473 -0.3010
 5970TIP3    H239402   4.804   1.039  13.009 -3.2944 -0.4634  3.6040
 5971TIP3   OH239403   3.457   1.901   4.693 -0.2300  0.5492 -0.4124
 5971TIP3    H139404   3.437   1.807   4.691 -1.4186  0.7899 -2.3325
 5971TIP3    H239405   3.374   1.942   4.718 -1.1517  1.2956 -4.0687
 5972TIP3   OH239406   0.865   4.064  12.048  0.4385  0.5857 -0.9723
 5972TIP3    H139407   0.875   4.151  12.008 -0.6849  0.7118 -1.0176
 5972TIP3    H239408   0.881   4.003  11.977 -0.9422  0.8024 -1.5117
 5973TIP3   OH239409   5.733   3.095   2.990 -0.2785 -0.2974  0.4988
 5973TIP3    H139410   5.794   3.163   2.962  1.0609 -1.3461  0.7701
 5973TIP3    H239411   5.703   3.055   2.909  0.0666 -0.3515  0.3981
 5974TIP3   OH239412   3.443   5.174   3.858 -0.0483  0.4751  0.5024
 5974TIP3    H139413   3.526   5.185   3.905 -0.7170 -0.2868  1.9329
 5974TIP3    H239414   3.437   5.251   3.801  1.8558  0.2937 -0.0084
 5975TIP3   OH239415   0.417   1.697   3.018  0.0606 -0.7125 -0.0602
 5975TIP3    H139416   0.499   1.698   3.068  0.6597  2.3883 -0.8984
 5975TIP3    H239417   0.440   1.649   2.938  0.9292 -0.3252 -0.0584
 5976TIP3   OH239418   2.888   1.084  13.526  0.1680  0.0536 -0.0002
 5976TIP3    H139419   2.894   0.994  13.494 -0.6852  0.1544 -0.4916
 5976TIP3    H239420   2.794   1.101  13.531  0.2930  1.4748 -1.5769
 5977TIP3   OH239421   3.628   2.259   3.912 -0.0951 -0.4788 -0.6747
 5977TIP3    H139422   3.631   2.274   3.818 -0.3623 -2.3117 -1.0192
 5977TIP3    H239423   3.718   2.271   3.942 -0.0922  0.5606 -1.0638
 5978TIP3   OH239424   6.678   4.933  14.975  0.0946  0.1349 -0.3959
 5978TIP3    H139425   6.615   4.927  14.903  0.2772 -0.5489 -0.4961
 5978TIP3    H239426   6.652   5.013  15.022 -0.7867 -0.0886 -0.4929
 5979TIP3   OH239427   4.222   2.631   0.600 -0.7211  0.1162  0.0022
 5979TIP3    H139428   4.304   2.589   0.627 -0.3491  0.3789 -0.6963
 5979TIP3    H239429   4.153   2.573   0.634 -0.2515 -0.1523  0.5220
 5980TIP3   OH239430   4.497   2.837  11.550 -0.3687 -0.2102 -0.2382
 5980TIP3    H139431   4.590   2.850  11.531 -0.3010 -0.9577 -0.4915
 5980TIP3    H239432   4.452   2.896  11.490 -0.0353  1.3057  0.9659
 5981TIP3   OH239433   1.501   5.151  12.163  0.2809  0.3836  0.0479
 5981TIP3    H139434   1.578   5.176  12.214 -0.1985  0.8323  0.5442
 5981TIP3    H239435   1.446   5.229  12.161 -0.6000 -0.2132  0.4875
 5982TIP3   OH239436   6.475   4.931  12.317 -0.2414 -0.4364  0.1708
 5982TIP3    H139437   6.481   4.837  12.300  0.6241 -0.1547 -1.2255
 5982TIP3    H239438   6.496   4.939  12.411 -1.5886 -1.7246  0.6167
 5983TIP3   OH239439   1.212   5.166   3.697 -0.5513 -0.3017  0.1756
 5983TIP3    H139440   1.152   5.239   3.715  0.0697  0.4264 -0.6293
 5983TIP3    H239441   1.217   5.119   3.780 -0.1442  1.1801  1.0402
 5984TIP3   OH239442   1.176   5.297   6.756 -0.2517  0.2388 -0.4504
 5984TIP3    H139443   1.085   5.323   6.743 -0.3229 -0.0682 -0.5735
 5984TIP3    H239444   1.226   5.363   6.707 -0.3460  1.0108  0.4660
 5985TIP3   OH239445   2.038   4.243  15.636 -0.1684  0.0307  0.4473
 5985TIP3    H139446   2.001   4.332  15.629  0.7400  0.4816  1.1925
 5985TIP3    H239447   2.111   4.253  15.697  0.5450 -1.0537 -0.2220
 5986TIP3   OH239448   3.057   3.519   1.539  0.0226  0.0614  0.9435
 5986TIP3    H139449   2.967   3.496   1.519 -0.3610  1.1413  1.3609
 5986TIP3    H239450   3.087   3.451   1.600 -0.2143 -0.7851  0.1226
 5987TIP3   OH239451   0.412   6.355   3.445 -0.1427 -0.2734  0.6697
 5987TIP3    H139452   0.369   6.366   3.360  0.2408  0.9095  0.6059
 5987TIP3    H239453   0.504   6.340   3.424  0.4780  2.6413  0.8549
 5988TIP3   OH239454   2.292   6.120  17.101  0.4192  0.5817 -0.5583
 5988TIP3    H139455   2.289   6.072  17.184 -0.6427 -0.3482 -1.1056
 5988TIP3    H239456   2.385   6.130  17.082  0.6978  1.3793  1.0479
 5989TIP3   OH239457   0.736   6.281   3.722 -0.2502  0.0198 -0.5099
 5989TIP3    H139458   0.813   6.240   3.761 -1.3523 -0.4067  1.3283
 5989TIP3    H239459   0.755   6.375   3.727  0.2097 -0.0817 -0.2112
 5990TIP3   OH239460   6.794   3.358  12.496  0.5404  0.0858 -0.4204
 5990TIP3    H139461   6.834   3.407  12.567 -0.3378  1.8016 -1.0600
 5990TIP3    H239462   6.815   3.266  12.515  0.7358  0.5438  1.7601
 5991TIP3   OH239463   3.234   6.668  11.233  1.0846  0.1274  1.0267
 5991TIP3    H139464   3.316   6.692  11.276  1.6564 -1.6212  0.9749
 5991TIP3    H239465   3.240   6.707  11.146  1.9744 -0.1744  0.9386
 5992TIP3   OH239466   1.343   4.752  12.344 -0.0442  0.9564 -0.0804
 5992TIP3    H139467   1.417   4.805  12.373  0.3607 -0.5492  1.8532
 5992TIP3    H239468   1.266   4.796  12.379  0.3539 -0.1288  2.3488
 5993TIP3   OH239469   4.815   3.610  12.432  0.0889 -0.4317 -0.3667
 5993TIP3    H139470   4.763   3.655  12.365  0.5833 -0.3941 -0.7286
 5993TIP3    H239471   4.824   3.521  12.399  0.6996 -0.3017 -0.5669
 5994TIP3   OH239472   3.792   0.353   1.283  0.7450  0.1348 -0.2994
 5994TIP3    H139473   3.702   0.323   1.292  0.3037  1.4997 -0.0143
 5994TIP3    H239474   3.837   0.316   1.360  0.4458 -0.5404 -0.4393
 5995TIP3   OH239475   4.461   1.678  14.265 -0.2335  0.0490 -0.5677
 5995TIP3    H139476   4.532   1.728  14.305  0.2449 -0.8696 -0.2376
 5995TIP3    H239477   4.400   1.662  14.337 -0.0496 -0.4236 -0.5165
 5996TIP3   OH239478   0.105   5.401   5.255 -0.2506 -0.1964  0.4405
 5996TIP3    H139479   0.051   5.414   5.334  0.8181 -1.0609  1.3528
 5996TIP3    H239480   0.105   5.486   5.212 -1.0330  0.2422  1.2624
 5997TIP3   OH239481   1.814   5.678  10.948  0.2677  0.5212 -0.7097
 5997TIP3    H139482   1.789   5.655  11.037 -0.2956  1.7040 -0.5357
 5997TIP3    H239483   1.893   5.731  10.957  1.1767 -0.7334 -1.0512
 5998TIP3   OH239484   0.561   4.279  11.192 -0.2312  0.3827 -0.5493
 5998TIP3    H139485   0.513   4.225  11.129 -1.1699 -0.6909  1.0248
 5998TIP3    H239486   0.494   4.311  11.252  0.5001  2.2663 -0.6809
 5999TIP3   OH239487   0.523   3.638   3.718  0.4697 -0.0342  0.7498
 5999TIP3    H139488   0.475   3.679   3.645 -0.4976  0.8713  1.8503
 5999TIP3    H239489   0.510   3.544   3.704  0.1943  0.1212 -0.1716
 6000TIP3   OH239490   0.713   3.814  17.098  0.0857  0.1157 -0.2066
 6000TIP3    H139491   0.773   3.766  17.040  1.0958  0.5750  0.4260
 6000TIP3    H239492   0.644   3.751  17.119  1.9855 -1.5029  1.5526
 6001TIP3   OH239493   5.291   6.570  10.870 -0.5127  0.3785 -0.5334
 6001TIP3    H139494   5.329   6.560  10.957 -2.1170 -1.7672  0.0204
 6001TIP3    H239495   5.308   6.487  10.827 -2.0919  0.3795 -1.2367
 6002TIP3   OH239496   1.687   5.874  16.285 -0.1309 -0.0033  0.9633
 6002TIP3    H139497   1.604   5.832  16.305 -0.4771 -0.0435 -0.4378
 6002TIP3    H239498   1.676   5.964  16.315  0.1466 -0.5371  2.7970
 6003TIP3   OH239499   5.578   2.966  13.157 -0.5637  0.2937  0.4216
 6003TIP3    H139500   5.516   3.034  13.129 -2.1956 -1.6298 -0.8995
 6003TIP3    H239501   5.616   2.933  13.076  0.0680 -0.5202  1.0334
 6004TIP3   OH239502   5.719   5.123   3.978  0.8514 -0.0208 -0.4559
 6004TIP3    H139503   5.785   5.095   4.042  1.2592  2.1832  0.1461
 6004TIP3    H239504   5.767   5.129   3.895  1.9841  3.2569  0.2880
 6005TIP3   OH239505   2.240   4.338  13.533 -0.3864 -0.3985  0.5036
 6005TIP3    H139506   2.307   4.343  13.602 -0.8310  0.6178  0.8854
 6005TIP3    H239507   2.183   4.266  13.560  0.3688 -1.0638  0.3432
 6006TIP3   OH239508   1.897   2.124   1.095  1.3615  0.5048  0.2651
 6006TIP3    H139509   1.887   2.180   1.172  0.2785  0.1203  0.4233
 6006TIP3    H239510   1.990   2.129   1.073  1.7280  0.4555  1.7181
 6007TIP3   OH239511   0.822   1.217  17.013  0.7820 -0.0851  0.2786
 6007TIP3    H139512   0.786   1.284  17.071  1.0817  0.8080 -0.5502
 6007TIP3    H239513   0.914   1.241  17.003  0.8041 -0.4054 -0.3183
 6008TIP3   OH239514   4.380   0.397  16.215  0.0410 -0.1629 -0.4373
 6008TIP3    H139515   4.319   0.324  16.207  1.2952 -1.1676 -1.3065
 6008TIP3    H239516   4.450   0.363  16.271  1.0899  0.0170 -1.5860
 6009TIP3   OH239517   4.581   1.036   3.435  0.4240  0.4399 -0.2532
 6009TIP3    H139518   4.674   1.050   3.419  0.1204  1.9900 -0.8043
 6009TIP3    H239519   4.538   1.067   3.355 -0.6336  0.7391  0.4109
 6010TIP3   OH239520   5.484   5.366  12.968 -0.1295 -0.3811  0.7586
 6010TIP3    H139521   5.446   5.365  13.056  0.3325 -0.8496  0.9512
 6010TIP3    H239522   5.574   5.336  12.980 -0.0785 -0.4844  0.1213
 6011TIP3   OH239523   6.798   4.147   3.847 -0.1462  0.0554  0.0727
 6011TIP3    H139524   6.808   4.206   3.773 -1.1971  1.0399  0.6861
 6011TIP3    H239525   6.883   4.147   3.891  0.7671 -1.2049 -1.5639
 6012TIP3   OH239526   5.703   5.739   6.557  0.7146  0.1267  0.2797
 6012TIP3    H139527   5.746   5.672   6.504 -1.1531  0.1941 -1.4357
 6012TIP3    H239528   5.713   5.820   6.507  2.0925  1.0049  1.8579
 6013TIP3   OH239529   3.368   6.811  13.162  0.9144  0.0465  0.0293
 6013TIP3    H139530   3.279   6.809  13.127 -0.4163  1.7552  2.9481
 6013TIP3    H239531   3.398   6.720  13.157 -0.9090 -0.5323 -1.1969
 6014TIP3   OH239532   1.895   3.670  16.491 -0.2160 -0.3863 -0.0667
 6014TIP3    H139533   1.861   3.724  16.563 -2.6350  0.0542 -1.4198
 6014TIP3    H239534   1.916   3.586  16.531  2.1904  0.9873  1.8191
 6015TIP3   OH239535   1.192   6.721  15.417  0.6729 -0.0193 -0.5545
 6015TIP3    H139536   1.104   6.709  15.380  0.4854 -0.4233 -0.0059
 6015TIP3    H239537   1.218   6.633  15.445  1.9956 -0.2330 -2.2906
 6016TIP3   OH239538   0.082   5.469  12.368 -0.0063 -0.0335  0.4198
 6016TIP3    H139539   0.005   5.418  12.341  0.5725 -0.8848  0.3300
 6016TIP3    H239540   0.100   5.527  12.294  0.7235 -1.3550 -0.4815
 6017TIP3   OH239541   2.072   1.014  12.614  0.3474  0.3140 -0.2418
 6017TIP3    H139542   2.071   1.032  12.708  0.4669 -0.8254 -0.0051
 6017TIP3    H239543   2.016   1.082  12.576  0.8461  1.2029  0.5637
 6018TIP3   OH239544   2.269   1.584  12.775  0.1476  0.3154  0.5709
 6018TIP3    H139545   2.264   1.506  12.720  1.6418  2.3550 -2.7513
 6018TIP3    H239546   2.344   1.570  12.832  0.2786 -0.7266  0.1501
 6019TIP3   OH239547   2.552   0.460   3.474 -0.0733  0.9480  0.4626
 6019TIP3    H139548   2.629   0.438   3.421 -0.5028 -1.3409  0.6762
 6019TIP3    H239549   2.574   0.430   3.562 -0.6959  1.5051  0.8145
 6020TIP3   OH239550   6.347   3.965   1.413 -0.4868 -0.1011  0.2545
 6020TIP3    H139551   6.316   3.882   1.377  1.2404 -0.9654  0.6602
 6020TIP3    H239552   6.270   4.022   1.411 -1.7463 -1.7267  0.0522
 6021TIP3   OH239553   5.190   1.104  11.573  0.1054  0.1829  0.1697
 6021TIP3    H139554   5.265   1.139  11.526  0.8858  0.6106  1.6575
 6021TIP3    H239555   5.114   1.130  11.521  0.9484 -0.0090 -1.2124
 6022TIP3   OH239556   2.846   1.418  13.086 -0.0348 -0.9626  0.1555
 6022TIP3    H139557   2.884   1.383  13.166  0.7939  0.9881  0.6723
 6022TIP3    H239558   2.874   1.357  13.017  1.1350 -1.4619  1.0387
 6023TIP3   OH239559   6.650   5.775  16.709  0.0070 -0.4233  0.8561
 6023TIP3    H139560   6.650   5.679  16.706 -1.0491 -0.4200 -0.0413
 6023TIP3    H239561   6.742   5.799  16.722  0.6048 -1.5178 -0.9809
 6024TIP3   OH239562   4.221   4.916  16.819  0.0869 -0.0349 -0.4916
 6024TIP3    H139563   4.217   4.928  16.725  0.1717  2.0897 -0.2717
 6024TIP3    H239564   4.155   4.976  16.854 -1.0669 -1.9230  0.7589
 6025TIP3   OH239565   1.996   3.686   5.625  0.2986 -0.2848  0.0629
 6025TIP3    H139566   2.068   3.705   5.565  1.1583 -2.0596  0.4712
 6025TIP3    H239567   1.940   3.624   5.578 -0.9950  1.0383 -0.2358
 6026TIP3   OH239568   1.536   3.691  15.435 -0.4416 -0.1414  0.3448
 6026TIP3    H139569   1.503   3.743  15.508  0.3167 -1.5335  1.7522
 6026TIP3    H239570   1.611   3.741  15.402 -0.0721 -0.0343  1.3038
 6027TIP3   OH239571   4.052   5.625   1.682 -0.6148  0.7117 -0.0147
 6027TIP3    H139572   4.108   5.563   1.636 -1.3382  0.4095 -0.4839
 6027TIP3    H239573   4.113   5.673   1.739  0.1043  0.3072 -0.4275
 6028TIP3   OH239574   1.269   4.608   2.062  0.5981 -0.0765  0.0268
 6028TIP3    H139575   1.241   4.524   2.098  1.3032  0.1726  1.1768
 6028TIP3    H239576   1.228   4.673   2.119  0.8294  0.3470 -0.2903
 6029TIP3   OH239577   1.024   6.609   2.822  0.0535  0.6172  0.9283
 6029TIP3    H139578   0.999   6.692   2.863  0.0790  0.3674  1.4618
 6029TIP3    H239579   0.970   6.543   2.867  0.8864  0.2039  1.3507
 6030TIP3   OH239580   4.000   0.911  13.694 -0.4926 -0.3880  0.5411
 6030TIP3    H139581   4.070   0.975  13.679 -0.2278 -0.2283  2.2099
 6030TIP3    H239582   4.023   0.836  13.640 -0.0788  0.3906 -0.3990
 6031TIP3   OH239583   6.675   4.145  14.934  0.0212  0.5750 -0.0037
 6031TIP3    H139584   6.680   4.070  14.874  1.0270  1.5586 -1.1963
 6031TIP3    H239585   6.674   4.105  15.021  0.2366 -0.8401 -0.6129
 6032TIP3   OH239586   5.533   3.964   1.751 -0.2145  0.3507  1.1641
 6032TIP3    H139587   5.554   3.926   1.666  0.3267  1.1463  0.9377
 6032TIP3    H239588   5.459   3.912   1.782 -0.5417  0.1791  0.1286
 6033TIP3   OH239589   2.966   0.765  13.967 -0.0487  0.1342  0.3764
 6033TIP3    H139590   2.968   0.770  13.872 -1.7886 -0.9693  0.2389
 6033TIP3    H239591   2.948   0.673  13.987  0.6347  0.2705  1.7879
 6034TIP3   OH239592   5.217   1.533   2.732  0.5214 -0.1666  0.4337
 6034TIP3    H139593   5.291   1.480   2.763  1.1406 -0.5608 -1.5911
 6034TIP3    H239594   5.256   1.596   2.672 -0.9923 -2.3295 -3.1349
 6035TIP3   OH239595   0.181   5.323  14.744  0.4822 -0.4280 -0.0214
 6035TIP3    H139596   0.155   5.389  14.808  2.6415  1.3612 -0.8912
 6035TIP3    H239597   0.209   5.248  14.797  2.2129  0.9932  1.2052
 6036TIP3   OH239598   0.429   0.708  13.757 -0.2367 -0.0754  0.0654
 6036TIP3    H139599   0.507   0.744  13.715 -0.6294 -0.5269 -1.0831
 6036TIP3    H239600   0.399   0.779  13.814  0.5952  0.3704 -0.0186
 6037TIP3   OH239601   1.642   6.577   4.946  0.3345 -0.2405 -0.4006
 6037TIP3    H139602   1.695   6.527   5.009  0.1545 -0.4753 -0.4345
 6037TIP3    H239603   1.700   6.646   4.916  0.6240 -0.4940 -0.4332
 6038TIP3   OH239604   1.816   1.850   1.512  0.2641  0.6719 -0.1145
 6038TIP3    H139605   1.856   1.838   1.426 -1.3125  1.4943 -1.0102
 6038TIP3    H239606   1.887   1.835   1.574  1.0997 -1.4978 -1.4857
 6039TIP3   OH239607   5.297   1.303  12.963  0.3070  0.5143 -0.0095
 6039TIP3    H139608   5.341   1.223  12.990 -1.0565  0.3840  2.1022
 6039TIP3    H239609   5.346   1.373  13.005  0.1629  0.5965  0.0244
 6040TIP3   OH239610   1.372   5.528   4.282  0.1586 -0.3173  0.1050
 6040TIP3    H139611   1.421   5.451   4.313 -1.6019 -1.5529  0.0103
 6040TIP3    H239612   1.372   5.588   4.356  0.1681 -1.1295  0.7779
 6041TIP3   OH239613   1.426   0.257   2.357 -0.0178  0.0403  0.5620
 6041TIP3    H139614   1.437   0.193   2.287 -1.0654 -0.4440  0.8327
 6041TIP3    H239615   1.333   0.277   2.358 -0.1802 -0.6383  2.4176
 6042TIP3   OH239616   0.903   1.946   5.641 -0.5575  0.1020  0.2356
 6042TIP3    H139617   0.972   1.916   5.582  1.0048  0.5222  1.7616
 6042TIP3    H239618   0.915   2.041   5.646 -0.2092  0.0105  1.6970
 6043TIP3   OH239619   6.609   0.035  16.926 -0.4401 -0.0315 -0.1244
 6043TIP3    H139620   6.704   0.044  16.917 -0.4422 -0.8062 -1.1074
 6043TIP3    H239621   6.597  -0.056  16.954 -0.8558  0.3257  0.9003
 6044TIP3   OH239622   2.729   1.388  12.601 -0.3468 -0.4132  0.6689
 6044TIP3    H139623   2.672   1.328  12.553 -0.4868  1.5316 -1.7921
 6044TIP3    H239624   2.815   1.379  12.559 -0.6385  1.8240 -0.5465
 6045TIP3   OH239625   4.724   5.032  12.712 -0.3170 -0.1412  0.4268
 6045TIP3    H139626   4.701   5.032  12.619 -0.8980 -1.0323  0.5602
 6045TIP3    H239627   4.776   5.112  12.723  0.8899 -0.6922 -0.9338
 6046TIP3   OH239628   0.720   5.517  13.704 -0.3789 -0.0227  0.3228
 6046TIP3    H139629   0.810   5.529  13.673 -0.4975  0.1341  0.0328
 6046TIP3    H239630   0.666   5.550  13.633 -0.6429  2.4167  1.5489
 6047TIP3   OH239631   1.757   5.232  12.255  0.3306 -0.3242  0.1782
 6047TIP3    H139632   1.748   5.271  12.342  0.2777  0.4673 -0.1701
 6047TIP3    H239633   1.822   5.163  12.266 -0.4810 -0.9745  1.0816
 6048TIP3   OH239634   5.422   5.546   3.748 -0.4061 -0.5071  0.2328
 6048TIP3    H139635   5.404   5.453   3.760 -0.4384 -0.4742  0.4522
 6048TIP3    H239636   5.422   5.582   3.837 -2.3536  0.0708  0.0343
 6049TIP3   OH239637   0.761   4.951  11.595  0.9783  0.1128 -0.2250
 6049TIP3    H139638   0.726   4.957  11.684  0.2645  0.3189 -0.5070
 6049TIP3    H239639   0.848   4.988  11.600  0.9456  0.1081  0.3931
 6050TIP3   OH239640   3.037   4.485   4.988  0.6610  0.0443  0.4785
 6050TIP3    H139641   2.942   4.478   4.980  0.6321 -5.2742  1.7509
 6050TIP3    H239642   3.069   4.476   4.899  0.1161  2.7622 -0.0768
 6051TIP3   OH239643   0.990   5.017  12.563  0.1333 -0.1953  0.4859
 6051TIP3    H139644   0.982   5.093  12.505 -0.1709 -0.6199 -0.0401
 6051TIP3    H239645   0.911   5.019  12.617 -1.1426 -1.5009 -1.2115
 6052TIP3   OH239646   4.524   6.776  14.642  0.6153 -0.4644 -0.2227
 6052TIP3    H139647   4.484   6.829  14.573  1.0568 -0.3205 -0.3739
 6052TIP3    H239648   4.498   6.686  14.620 -1.1388 -0.2195  0.7192
 6053TIP3   OH239649   3.206   4.358  17.080  0.7945 -0.7250 -0.0030
 6053TIP3    H139650   3.248   4.368  17.165  0.1450  0.1407  0.2200
 6053TIP3    H239651   3.112   4.366  17.097  0.5161 -2.3396 -0.5410
 6054TIP3   OH239652   1.242   0.001  11.747 -0.5009 -0.6315 -0.0216
 6054TIP3    H139653   1.165   0.052  11.722 -1.1546 -1.0516  1.0504
 6054TIP3    H239654   1.210  -0.088  11.757  0.0610 -0.7642  0.6852
 6055TIP3   OH239655   1.453   4.274  11.911 -0.4297  0.0961  0.5264
 6055TIP3    H139656   1.393   4.205  11.936 -0.2865  0.8627  3.3183
 6055TIP3    H239657   1.397   4.344  11.879 -0.8102 -0.1984  0.5378
 6056TIP3   OH239658   3.807   1.489  13.538  0.2820  0.5889  0.7144
 6056TIP3    H139659   3.890   1.444  13.522 -0.2594 -0.7577  1.4593
 6056TIP3    H239660   3.829   1.582  13.542  1.4871  0.3940 -0.6699
 6057TIP3   OH239661   1.593   3.367   5.436 -0.1835  0.3297  0.1906
 6057TIP3    H139662   1.633   3.282   5.456 -2.1544 -0.4884  0.8486
 6057TIP3    H239663   1.549   3.353   5.352 -2.5267 -0.1082  1.4017
 6058TIP3   OH239664   5.382   1.951  17.147 -0.4293  0.5477 -0.4617
 6058TIP3    H139665   5.420   1.868  17.118  2.4633  1.7875 -0.5686
 6058TIP3    H239666   5.333   1.983  17.071 -1.4988 -0.9570 -0.4520
 6059TIP3   OH239667   3.160   6.569   1.414  0.3579 -0.4552  1.7908
 6059TIP3    H139668   3.130   6.571   1.505  0.3745 -1.4460  1.8289
 6059TIP3    H239669   3.181   6.660   1.394 -3.1018  0.4156  1.5920
 6060TIP3   OH239670   1.809   0.441   2.655  0.1034  0.2205 -0.3369
 6060TIP3    H139671   1.792   0.425   2.748  0.9399 -1.5987 -0.4601
 6060TIP3    H239672   1.722   0.454   2.616 -0.5471 -2.2235  0.1663
 6061TIP3   OH239673   3.243   1.902  15.483 -0.1251 -0.2967  0.1484
 6061TIP3    H139674   3.227   1.836  15.415 -0.6511  0.9940 -1.0378
 6061TIP3    H239675   3.164   1.956  15.483  1.4126  2.1332 -1.0456
 6062TIP3   OH239676   4.566   4.067  13.184 -0.0324 -0.2537 -0.5152
 6062TIP3    H139677   4.514   4.083  13.105 -0.1125 -1.9414 -0.8470
 6062TIP3    H239678   4.506   4.022  13.243  0.1540  0.6270  0.3699
 6063TIP3   OH239679   5.041   5.856  15.277  0.2307 -0.0513  0.5240
 6063TIP3    H139680   5.097   5.916  15.227 -1.0670 -0.1688 -1.1302
 6063TIP3    H239681   4.972   5.913  15.312  0.1950 -0.2500  0.7785
 6064TIP3   OH239682   5.658   6.770  16.372  0.4385  0.1742 -0.4855
 6064TIP3    H139683   5.617   6.785  16.457  1.1445 -1.1255  0.1233
 6064TIP3    H239684   5.592   6.797  16.308 -0.4633  0.2992  0.4719
 6065TIP3   OH239685   5.387   5.096  15.858 -0.6934 -0.3611 -0.1611
 6065TIP3    H139686   5.371   5.046  15.777  1.1006  0.8382 -1.3270
 6065TIP3    H239687   5.444   5.039  15.910  0.8144  0.1423 -1.2007
 6066TIP3   OH239688   3.806   4.111   1.785  1.3413  0.2790 -0.0541
 6066TIP3    H139689   3.786   4.170   1.857  0.5175  1.2299 -1.0186
 6066TIP3    H239690   3.800   4.166   1.706  0.5490 -1.0700 -0.9881
 6067TIP3   OH239691   4.567   3.806  12.684 -0.7031 -0.1999 -0.8324
 6067TIP3    H139692   4.493   3.867  12.687  0.5520  1.3438 -0.2882
 6067TIP3    H239693   4.642   3.861  12.662  0.1394 -1.9098 -2.4808
 6068TIP3   OH239694   4.829   3.182   2.145  0.4327  0.7655  0.3558
 6068TIP3    H139695   4.878   3.242   2.201  0.6457  0.3247  0.6408
 6068TIP3    H239696   4.869   3.097   2.159 -0.2071  0.4573  0.3484
 6069TIP3   OH239697   5.805   3.110  13.199 -0.0083  0.2437 -0.0870
 6069TIP3    H139698   5.770   3.123  13.288 -0.7231  0.1118 -0.3386
 6069TIP3    H239699   5.752   3.038  13.164 -0.3701  0.9158 -0.9544
 6070TIP3   OH239700   4.966   4.050  12.914 -0.8564  0.0161  0.0957
 6070TIP3    H139701   5.048   4.092  12.942 -0.1242 -0.4538 -1.2407
 6070TIP3    H239702   4.897   4.104  12.952  0.0632  0.7280  0.8186
 6071TIP3   OH239703   1.602   0.345  16.992  0.0340  0.5702 -0.2984
 6071TIP3    H139704   1.614   0.332  17.086 -4.2895 -2.5718  0.1178
 6071TIP3    H239705   1.652   0.274  16.951  2.5753  2.4110 -0.5750
 6072TIP3   OH239706   2.623   1.795   3.538 -0.2297 -0.3048 -0.2091
 6072TIP3    H139707   2.689   1.739   3.578  1.4125  0.0838 -2.2038
 6072TIP3    H239708   2.665   1.881   3.533 -2.4551  1.0767  2.2096
 6073TIP3   OH239709   5.040   5.637   5.418 -0.6630  0.4492 -0.4185
 6073TIP3    H139710   4.997   5.690   5.485 -0.1314  0.5884 -0.1798
 6073TIP3    H239711   5.123   5.682   5.402  0.1112 -0.6785  0.2975
 6074TIP3   OH239712   4.922   0.674  10.578 -0.3017  0.2840  0.0575
 6074TIP3    H139713   4.832   0.670  10.608  0.5081 -1.4685  2.5657
 6074TIP3    H239714   4.967   0.728  10.643  0.9205 -1.0690  0.4030
 6075TIP3   OH239715   5.678   2.157   6.225 -0.1514 -0.2953  0.2731
 6075TIP3    H139716   5.630   2.122   6.300 -2.1377  1.5437 -0.0219
 6075TIP3    H239717   5.723   2.234   6.259 -0.0852 -0.1362 -0.1629
 6076TIP3   OH239718   3.015   5.994  13.168 -0.1805  0.4800 -0.2048
 6076TIP3    H139719   3.014   6.087  13.191 -1.1934  0.7949 -1.3779
 6076TIP3    H239720   2.968   5.951  13.240  0.0226  0.9215  0.1935
 6077TIP3   OH239721   1.964   1.491   5.598  0.2882  0.9752 -0.3531
 6077TIP3    H139722   2.002   1.569   5.560 -0.8909  1.9630  0.4253
 6077TIP3    H239723   2.020   1.471   5.674  1.0674  0.5566 -1.0204
 6078TIP3   OH239724   4.134   1.567   3.356  0.4587 -0.0753 -0.6967
 6078TIP3    H139725   4.084   1.626   3.412  2.2477 -0.1050  1.0359
 6078TIP3    H239726   4.133   1.483   3.401  1.8623 -0.1221 -0.6998
 6079TIP3   OH239727   0.350   0.811   2.016  0.2144 -0.4515  0.5635
 6079TIP3    H139728   0.353   0.830   1.922 -0.7894  0.3975  0.6913
 6079TIP3    H239729   0.283   0.869   2.051 -0.9521 -2.2396  1.4741
 6080TIP3   OH239730   1.489   3.433  14.681  0.2922 -0.2854 -0.5789
 6080TIP3    H139731   1.546   3.439  14.605  0.4164  1.0535 -0.3949
 6080TIP3    H239732   1.511   3.349  14.721  2.2074  0.2393 -0.4531
 6081TIP3   OH239733   2.744   5.109  15.505 -0.3612 -0.3821  0.5909
 6081TIP3    H139734   2.654   5.124  15.476  0.1893  1.1880 -0.4390
 6081TIP3    H239735   2.798   5.154  15.440  1.2763 -2.6323  0.3089
 6082TIP3   OH239736   5.227   3.081  11.759  0.4446 -0.3638  0.2506
 6082TIP3    H139737   5.322   3.085  11.766  0.5804 -0.1074 -1.3719
 6082TIP3    H239738   5.196   3.152  11.816  1.2866  0.4376 -0.2602
 6083TIP3   OH239739   3.819   0.399   3.816  0.0718  0.7444  0.3897
 6083TIP3    H139740   3.904   0.364   3.787 -1.1539 -0.3275 -2.1844
 6083TIP3    H239741   3.824   0.493   3.798 -0.1826  0.3050 -2.4370
 6084TIP3   OH239742   2.899   1.036   1.037  0.5675 -0.1863  0.1935
 6084TIP3    H139743   2.909   1.067   0.947  6.4525 -2.0407 -0.2294
 6084TIP3    H239744   2.861   0.949   1.029  1.4110 -0.4959 -0.6310
 6085TIP3   OH239745   5.202   5.641  15.750  0.3180 -0.2785 -0.3448
 6085TIP3    H139746   5.243   5.556  15.766 -0.9716 -0.8443  0.0386
 6085TIP3    H239747   5.174   5.671  15.836  1.9002  1.1697 -0.2794
 6086TIP3   OH239748   1.635   0.898  14.890  0.8337 -0.9074 -0.2440
 6086TIP3    H139749   1.652   0.895  14.796  1.5977  0.0089 -0.1457
 6086TIP3    H239750   1.711   0.854  14.929  1.3137  0.1355  0.0189
 6087TIP3   OH239751   5.131   0.106  14.608  0.2177 -0.2573 -0.5629
 6087TIP3    H139752   5.124   0.115  14.513  1.2293  0.0983 -0.6210
 6087TIP3    H239753   5.077   0.176  14.643  1.0656  0.5992 -0.9087
 6088TIP3   OH239754   1.832   6.552   0.216  0.1041 -0.0769 -0.2221
 6088TIP3    H139755   1.830   6.516   0.304  0.4451 -0.7108 -0.4722
 6088TIP3    H239756   1.921   6.586   0.205  0.2397 -0.5194 -0.5257
 6089TIP3   OH239757   2.891   5.814  11.182  0.1071 -0.1171 -0.0455
 6089TIP3    H139758   2.873   5.828  11.275 -1.0955 -1.0629 -0.1142
 6089TIP3    H239759   2.986   5.804  11.177  0.4402  1.9941  0.7789
 6090TIP3   OH239760   1.371   1.165   4.738  0.1656  0.3954  0.0100
 6090TIP3    H139761   1.382   1.095   4.673 -0.1763  0.1601  0.2030
 6090TIP3    H239762   1.362   1.119   4.821 -0.3652  0.6547  0.1007
 6091TIP3   OH239763   0.998   3.839   2.555 -0.7738  0.7516  0.1424
 6091TIP3    H139764   0.905   3.847   2.532 -1.1839  0.3227  1.5385
 6091TIP3    H239765   1.010   3.746   2.575  0.5787  0.3098 -2.3980
 6092TIP3   OH239766   5.054   4.264  13.686 -0.3831 -0.7117 -0.0408
 6092TIP3    H139767   5.054   4.219  13.770  0.2051 -2.7943 -1.0975
 6092TIP3    H239768   5.146   4.282  13.667 -0.5088 -0.2612 -0.2437
 6093TIP3   OH239769   1.033   4.258  11.279 -0.0334 -0.6839  0.4414
 6093TIP3    H139770   1.076   4.214  11.206 -0.1338 -1.3874  0.7979
 6093TIP3    H239771   0.955   4.298  11.241  0.6895  0.2209 -0.1202
 6094TIP3   OH239772   2.106   5.727   6.764 -0.0203 -0.5542  0.0071
 6094TIP3    H139773   2.181   5.753   6.817  0.5234 -1.7424 -0.1453
 6094TIP3    H239774   2.080   5.807   6.718 -0.2895  0.4240  1.7622
 6095TIP3   OH239775   1.536   3.605  13.609  0.3851  0.2116  0.6196
 6095TIP3    H139776   1.485   3.598  13.528  2.5920 -1.2193 -0.7585
 6095TIP3    H239777   1.487   3.553  13.673 -0.4388 -0.2019 -0.3133
 6096TIP3   OH239778   2.607   2.491   3.734  0.3965 -0.0083 -0.1587
 6096TIP3    H139779   2.595   2.397   3.740  1.3331 -0.0869  0.8194
 6096TIP3    H239780   2.543   2.528   3.795  0.0688 -0.0168 -0.4991
 6097TIP3   OH239781   6.146   0.532  16.314 -0.2981 -0.4578 -0.7118
 6097TIP3    H139782   6.110   0.599  16.372  0.7792 -0.2072 -0.3060
 6097TIP3    H239783   6.220   0.495  16.363  1.3137  0.4927 -2.3114
 6098TIP3   OH239784   6.415   4.042   3.419 -0.1986 -0.6513  0.7916
 6098TIP3    H139785   6.337   4.096   3.422 -0.4849 -0.7814 -1.6152
 6098TIP3    H239786   6.384   3.956   3.389  0.6798 -1.1008  1.1278
 6099TIP3   OH239787   6.135   5.239   4.509 -0.2999  0.2082  0.0540
 6099TIP3    H139788   6.096   5.213   4.426 -1.6780 -1.2313  1.0829
 6099TIP3    H239789   6.114   5.332   4.518  1.2141  0.7985 -1.8677
 6100TIP3   OH239790   4.969   5.655  16.275 -0.6019  1.1698  0.3162
 6100TIP3    H139791   4.965   5.618  16.363 -1.0157  0.1805 -0.1017
 6100TIP3    H239792   4.903   5.606  16.226  0.3468  0.9712 -0.8069
 6101TIP3   OH239793   3.478   5.954  13.912  0.3803 -0.6201  0.3847
 6101TIP3    H139794   3.422   5.968  13.988  0.0538  1.9168 -0.2435
 6101TIP3    H239795   3.420   5.916  13.846  0.1321 -0.7545  0.6750
 6102TIP3   OH239796   2.313   2.803   2.108  0.4024 -0.0479 -0.2078
 6102TIP3    H139797   2.257   2.825   2.034  0.5246 -1.1667 -0.6537
 6102TIP3    H239798   2.291   2.712   2.129  1.1727 -0.1077  0.3955
 6103TIP3   OH239799   1.701   5.731  11.745  0.0486  0.4520  0.4545
 6103TIP3    H139800   1.753   5.721  11.824  2.7650 -1.9225 -1.4322
 6103TIP3    H239801   1.610   5.731  11.776  0.9997  0.4040  3.5690
 6104TIP3   OH239802   0.213   6.386  11.804 -0.3699 -0.1853 -0.3205
 6104TIP3    H139803   0.290   6.443  11.810 -0.8650  0.4509  0.0380
 6104TIP3    H239804   0.247   6.304  11.768  1.1176 -1.0726  2.7318
 6105TIP3   OH239805   5.688   2.935   5.103 -0.1135  0.5836 -0.5130
 6105TIP3    H139806   5.688   2.841   5.122 -1.2512  0.7360  0.3313
 6105TIP3    H239807   5.643   2.942   5.019  1.3822  0.2598 -1.3794
 6106TIP3   OH239808   3.871   5.967  13.485 -0.4798  0.3266  0.2960
 6106TIP3    H139809   3.811   5.993  13.555  0.2177  1.7051  0.4175
 6106TIP3    H239810   3.933   5.908  13.527 -1.0376 -0.1529  0.4522
 6107TIP3   OH239811   5.391   1.317   1.652 -0.3610  0.1685 -0.5748
 6107TIP3    H139812   5.412   1.375   1.725 -1.6544  0.3207 -0.2879
 6107TIP3    H239813   5.323   1.364   1.603 -1.9775 -1.3736  0.0737
 6108TIP3   OH239814   3.166   1.280   0.380 -0.2209 -0.1803  0.9042
 6108TIP3    H139815   3.246   1.326   0.407  1.1742 -2.6747  1.4386
 6108TIP3    H239816   3.129   1.248   0.463 -0.1313 -1.4700  0.4707
 6109TIP3   OH239817   1.864   6.401   0.435  0.1543 -0.0590 -0.2267
 6109TIP3    H139818   1.953   6.387   0.469  0.7679  1.5898 -1.0230
 6109TIP3    H239819   1.808   6.349   0.492  1.5601 -0.5816  0.7386
 6110TIP3   OH239820   6.522   2.959  12.517  0.3748  0.0367  0.6829
 6110TIP3    H139821   6.486   2.871  12.506  2.4324 -0.7025 -1.0320
 6110TIP3    H239822   6.604   2.945  12.565  0.5571  1.0485  0.6810
 6111TIP3   OH239823   3.951   2.818  10.881  0.0753  0.3388  0.4499
 6111TIP3    H139824   3.931   2.865  10.800 -1.1788 -1.7981 -0.5741
 6111TIP3    H239825   4.039   2.783  10.867  0.4600  1.2105  0.6488
 6112TIP3   OH239826   3.382   1.395  14.002  0.2692 -0.0896 -0.3893
 6112TIP3    H139827   3.316   1.326  14.013 -1.0678  0.6936 -2.6745
 6112TIP3    H239828   3.352   1.466  14.058  0.0389 -0.3331 -0.2029
 6113TIP3   OH239829   5.837   5.431  15.986 -0.4564  0.7377 -0.3928
 6113TIP3    H139830   5.897   5.424  15.911  0.7899 -0.1284  0.6374
 6113TIP3    H239831   5.895   5.442  16.062 -1.6370  0.5148  0.5610
 6114TIP3   OH239832   0.521   4.449  12.444  0.3100 -0.4380  0.1425
 6114TIP3    H139833   0.613   4.468  12.426  0.5238 -0.5562  1.0702
 6114TIP3    H239834   0.513   4.355  12.433 -0.0137 -0.2586 -1.2638
 6115TIP3   OH239835   0.165   4.459   4.451  0.1406  0.3607 -0.9441
 6115TIP3    H139836   0.191   4.394   4.386  0.3980  0.0187 -0.5037
 6115TIP3    H239837   0.247   4.501   4.477 -0.1325  1.5828 -1.9734
 6116TIP3   OH239838   1.251   3.402   5.405  0.4418 -0.3586 -0.0499
 6116TIP3    H139839   1.268   3.355   5.487  0.7060  0.1732  0.2052
 6116TIP3    H239840   1.155   3.403   5.398  0.3344  1.0703  1.1444
 6117TIP3   OH239841   6.382   0.722  10.580 -0.3865 -0.2535  0.1528
 6117TIP3    H139842   6.467   0.718  10.536  0.2002 -0.8458  1.2765
 6117TIP3    H239843   6.362   0.815  10.585  0.1207 -0.1154 -0.2632
 6118TIP3   OH239844   6.043   3.286   1.516 -0.2454 -0.1358  0.2422
 6118TIP3    H139845   5.960   3.334   1.512  0.5516  1.2039 -1.4820
 6118TIP3    H239846   6.048   3.241   1.431  2.1053  2.1987 -0.9740
 6119TIP3   OH239847   0.966   4.548  16.351  0.0827 -0.4735 -0.3868
 6119TIP3    H139848   1.025   4.478  16.323 -0.1388 -1.0545  0.5432
 6119TIP3    H239849   1.015   4.629  16.336 -0.6337 -0.5185 -4.0930
 6120TIP3   OH239850   0.643   1.139  15.931  0.2073  0.5343  0.0186
 6120TIP3    H139851   0.722   1.194  15.931  0.5671  0.0577 -0.8666
 6120TIP3    H239852   0.668   1.061  15.981 -0.0310  0.8088  0.5725
 6121TIP3   OH239853   3.026   0.853   4.421 -0.6118  0.0989 -0.2135
 6121TIP3    H139854   3.000   0.938   4.457  0.4496  0.3965 -0.1170
 6121TIP3    H239855   2.984   0.789   4.478 -1.2694  0.5530 -0.1727
 6122TIP3   OH239856   4.588   3.007   2.870  0.1727  0.2429 -0.0649
 6122TIP3    H139857   4.543   2.938   2.820  1.5584 -1.2431  0.6510
 6122TIP3    H239858   4.526   3.030   2.939  0.0760 -1.0694  0.3192
 6123TIP3   OH239859   4.890   4.022   0.055  0.8214 -0.3873 -0.2648
 6123TIP3    H139860   4.970   3.991   0.096  1.0227  0.8415  0.3410
 6123TIP3    H239861   4.885   4.115   0.079 -1.2410 -0.6360  0.4682
 6124TIP3   OH239862   1.555   0.070  11.242 -0.1960 -0.5732 -0.1893
 6124TIP3    H139863   1.557   0.105  11.153 -0.5051  0.2090  0.0956
 6124TIP3    H239864   1.466   0.036  11.252 -0.2706 -0.3468 -0.0699
 6125TIP3   OH239865   2.162   5.498   0.664  0.2255  0.1105 -0.3692
 6125TIP3    H139866   2.109   5.433   0.617 -0.3129  1.3658 -1.5540
 6125TIP3    H239867   2.248   5.491   0.623  0.4897 -0.6249  0.2834
 6126TIP3   OH239868   6.208   4.844  16.746  0.4229  0.1568 -0.3654
 6126TIP3    H139869   6.303   4.847  16.751  0.4153 -0.5555  0.5648
 6126TIP3    H239870   6.188   4.754  16.720 -0.0161 -0.1192  0.8317
 6127TIP3   OH239871   3.332   1.681   1.285  0.0652  0.0260 -0.0102
 6127TIP3    H139872   3.395   1.664   1.355 -0.5240 -1.3061  0.2288
 6127TIP3    H239873   3.293   1.766   1.308  0.1903 -0.1906  1.0352
 6128TIP3   OH239874   0.780   5.479   4.605  0.0852 -0.4192 -0.8540
 6128TIP3    H139875   0.722   5.425   4.552 -0.6334 -0.6904  0.1637
 6128TIP3    H239876   0.867   5.466   4.567 -0.1934 -1.6981 -1.0981
 6129TIP3   OH239877   2.740   5.294  14.200  0.8559  0.2760 -0.4165
 6129TIP3    H139878   2.659   5.274  14.247  0.1140  0.6130 -1.5019
 6129TIP3    H239879   2.788   5.352  14.258  0.7887 -0.7357  0.6780
 6130TIP3   OH239880   4.199   1.356  13.255 -0.5929  0.1325 -0.1595
 6130TIP3    H139881   4.169   1.355  13.164  0.4320  0.1040 -0.5050
 6130TIP3    H239882   4.283   1.400  13.252 -1.2910  1.6436  1.0263
 6131TIP3   OH239883   3.136   4.687  15.989 -0.4015  0.7344 -0.1433
 6131TIP3    H139884   3.179   4.614  15.944  0.7320  0.6903  0.9538
 6131TIP3    H239885   3.203   4.756  15.991 -0.7101  1.0203  0.7406
 6132TIP3   OH239886   6.652   4.494  12.606 -0.3909 -0.4547 -0.2629
 6132TIP3    H139887   6.631   4.411  12.648 -1.6241 -0.4619 -0.8539
 6132TIP3    H239888   6.733   4.477  12.557 -1.4810 -1.7908 -1.6881
 6133TIP3   OH239889   0.044   4.962   1.762  0.2198  0.0187  0.1943
 6133TIP3    H139890  -0.044   4.945   1.730  0.4205 -2.2495  0.6888
 6133TIP3    H239891   0.093   4.882   1.742  1.5883  0.3764  1.8523
 6134TIP3   OH239892   0.281   6.131   0.925 -0.0518 -0.4443  0.1842
 6134TIP3    H139893   0.215   6.088   0.980 -0.9226  1.5913  0.8352
 6134TIP3    H239894   0.322   6.195   0.983 -1.2552  2.0495 -1.5325
 6135TIP3   OH239895   0.735   4.559  16.976 -0.1159  0.2367 -0.1856
 6135TIP3    H139896   0.762   4.506  16.901  0.3138  0.3214 -0.0931
 6135TIP3    H239897   0.673   4.504  17.023  0.5670 -0.3212  0.0798
 6136TIP3   OH239898   5.164   3.669  12.995 -0.3398 -0.3248 -0.3838
 6136TIP3    H139899   5.082   3.693  12.951 -1.0666 -0.5216  0.8187
 6136TIP3    H239900   5.151   3.696  13.085  0.5546 -1.2427  0.0370
 6137TIP3   OH239901   2.844   1.201  14.504  0.2207 -0.3366 -0.0592
 6137TIP3    H139902   2.768   1.169  14.455 -0.7901  1.9234 -0.0936
 6137TIP3    H239903   2.889   1.260  14.442  1.3952 -0.8003  0.3272
 6138TIP3   OH239904   0.931   6.493   1.655  0.0504  0.2646 -0.4604
 6138TIP3    H139905   1.019   6.503   1.619  0.0558  4.3940  0.1954
 6138TIP3    H239906   0.873   6.490   1.578  0.5298  1.7876 -0.9051
 6139TIP3   OH239907   0.342   1.436   4.769 -0.0125  0.4370 -0.6380
 6139TIP3    H139908   0.429   1.474   4.774 -0.0073  0.2981  0.4847
 6139TIP3    H239909   0.283   1.510   4.780 -0.0438  0.4987 -1.1780
 6140TIP3   OH239910   4.058   2.955  14.284  0.0438  0.2383 -0.7573
 6140TIP3    H139911   4.063   2.929  14.376 -1.7006  0.2543 -0.6309
 6140TIP3    H239912   4.149   2.961  14.256  0.5914 -0.4223  0.7817
 6141TIP3   OH239913   5.946   4.217  12.344 -0.1159  0.6090  0.5433
 6141TIP3    H139914   5.894   4.216  12.425 -0.9501 -0.9531  0.0164
 6141TIP3    H239915   5.997   4.137  12.346  1.7917  1.7573  0.6800
 6142TIP3   OH239916   2.539   1.626  12.976  0.0804 -0.7255  0.2318
 6142TIP3    H139917   2.542   1.708  13.025  0.9547  0.4338 -1.6493
 6142TIP3    H239918   2.627   1.617  12.940 -0.3632 -1.8461 -0.6111
 6143TIP3   OH239919   2.767   2.472  14.851 -1.2106 -0.1142 -1.1832
 6143TIP3    H139920   2.783   2.389  14.807 -0.0302 -0.2677 -0.5154
 6143TIP3    H239921   2.672   2.483  14.849 -1.3450 -1.2885 -1.6210
 6144TIP3   OH239922   4.507   5.125   5.585  0.1997 -0.0257 -0.2515
 6144TIP3    H139923   4.520   5.107   5.678 -1.2008 -1.4899 -0.3008
 6144TIP3    H239924   4.518   5.040   5.543  0.8614  0.6313 -1.4465
 6145TIP3   OH239925   6.605   2.078  16.869 -0.2788  0.1089 -0.4205
 6145TIP3    H139926   6.637   2.130  16.943 -1.1536  0.5950 -0.3672
 6145TIP3    H239927   6.515   2.056  16.892  0.0723 -1.4736 -0.4387
 6146TIP3   OH239928   4.722   0.654  16.428  0.9764  0.1019  0.5627
 6146TIP3    H139929   4.729   0.559  16.440 -1.2639 -0.0995  0.7355
 6146TIP3    H239930   4.709   0.665  16.333  2.2300  0.3547  0.3989
 6147TIP3   OH239931   4.505   6.470  15.403 -0.0161  0.8566  0.1985
 6147TIP3    H139932   4.443   6.403  15.375 -0.7159  0.6759  2.0655
 6147TIP3    H239933   4.537   6.508  15.321 -0.1271 -1.2505 -0.9020
 6148TIP3   OH239934   0.104   4.261  15.554 -0.1807 -0.2348 -0.2619
 6148TIP3    H139935   0.162   4.186  15.565 -1.3958 -1.2779 -0.6502
 6148TIP3    H239936   0.143   4.313  15.485 -0.1643 -1.3872 -1.1416
 6149TIP3   OH239937   4.895   1.384  14.240 -0.2077  0.3294 -0.3105
 6149TIP3    H139938   4.891   1.308  14.298 -1.4204 -0.1150 -0.9279
 6149TIP3    H239939   4.841   1.359  14.165  0.3354  1.3605 -1.0657
 6150TIP3   OH239940   5.537   0.770   2.465 -0.5283 -0.0079 -0.0487
 6150TIP3    H139941   5.617   0.776   2.518 -0.9555 -1.6487  0.8690
 6150TIP3    H239942   5.565   0.791   2.376  0.7036  0.4740  0.4308
 6151TIP3   OH239943   2.044   3.780  14.523  0.0773  0.3752 -0.0942
 6151TIP3    H139944   2.066   3.728  14.601 -1.8076  0.7968  0.7623
 6151TIP3    H239945   2.022   3.716  14.456 -2.9624 -0.0616  1.1675
 6152TIP3   OH239946   6.494   5.415   0.971 -0.2388 -0.2724  0.0618
 6152TIP3    H139947   6.491   5.357   0.895 -0.4817  1.3852 -1.2480
 6152TIP3    H239948   6.577   5.394   1.014 -0.3870 -1.6592 -0.2767
 6153TIP3   OH239949   6.058   3.836  13.265 -0.3772 -0.1127  0.5225
 6153TIP3    H139950   6.036   3.780  13.190  1.0452 -0.4726  0.3600
 6153TIP3    H239951   5.974   3.848  13.310 -1.3855  0.5877 -1.4258
 6154TIP3   OH239952   3.639   6.494  11.700  0.1394  0.0911 -0.7828
 6154TIP3    H139953   3.666   6.408  11.732 -1.2471 -0.2386 -0.4682
 6154TIP3    H239954   3.556   6.478  11.655 -0.7435  1.4399  0.2998
 6155TIP3   OH239955   0.692   4.082  11.737  1.1780 -0.0729  0.7053
 6155TIP3    H139956   0.769   4.046  11.781  2.8469  2.1975 -0.1496
 6155TIP3    H239957   0.715   4.082  11.644 -1.3876 -2.6992 -0.0975
 6156TIP3   OH239958   0.831   0.640  13.279 -0.0334 -0.2215  0.4235
 6156TIP3    H139959   0.833   0.570  13.213 -0.3035 -1.0480  1.2661
 6156TIP3    H239960   0.738   0.653  13.297  0.0601 -0.6241  1.2614
 6157TIP3   OH239961   1.490   5.738  15.758 -0.2714 -0.3927  0.2567
 6157TIP3    H139962   1.515   5.810  15.815 -0.0982 -0.0404 -0.2558
 6157TIP3    H239963   1.572   5.691  15.741 -0.4795 -1.0714  1.0703
 6158TIP3   OH239964   5.953   0.973  14.262 -0.2893 -0.7997 -0.0791
 6158TIP3    H139965   5.942   0.887  14.222 -1.6616 -1.4813  1.5892
 6158TIP3    H239966   5.864   1.009  14.266 -0.2286 -0.7554  2.1827
 6159TIP3   OH239967   5.220   4.757  15.743  0.0078 -0.0040 -0.7088
 6159TIP3    H139968   5.158   4.751  15.670 -0.4397  0.2692 -0.3582
 6159TIP3    H239969   5.281   4.826  15.717 -1.2500  1.4301 -0.0386
 6160TIP3   OH239970   3.264   5.312  13.741 -0.2089 -0.0058  0.4479
 6160TIP3    H139971   3.199   5.241  13.739 -0.8494  0.5180  1.6513
 6160TIP3    H239972   3.291   5.316  13.832 -1.0065  2.0121  0.6417
 6161TIP3   OH239973   6.222   0.595   3.260 -0.5238  0.4059  0.0211
 6161TIP3    H139974   6.258   0.683   3.268  0.1157  0.2572 -1.1365
 6161TIP3    H239975   6.288   0.538   3.298  0.3486  0.1652 -1.8053
 6162TIP3   OH239976   5.683   4.381  15.386 -0.5208  0.4029  0.0521
 6162TIP3    H139977   5.683   4.418  15.475  0.7572  0.0614  0.2079
 6162TIP3    H239978   5.732   4.444  15.334 -2.7329  1.5063 -0.8494
 6163TIP3   OH239979   1.503   3.918  14.285 -0.6357 -0.3600 -1.0165
 6163TIP3    H139980   1.488   3.862  14.361 -0.3750  0.8937 -0.0232
 6163TIP3    H239981   1.421   3.967  14.275 -0.0715  0.7097 -0.4883
 6164TIP3   OH239982   6.006   1.523   5.690  0.0648  0.1243  0.2639
 6164TIP3    H139983   6.095   1.536   5.724 -0.0062 -0.4169  0.6728
 6164TIP3    H239984   6.018   1.474   5.609  0.1643  0.4051  0.1083
 6165TIP3   OH239985   6.713   3.442   4.610 -0.1312  0.5119 -0.7265
 6165TIP3    H139986   6.670   3.512   4.561 -0.4080  0.4024 -0.6430
 6165TIP3    H239987   6.790   3.484   4.649 -0.4455  0.8414 -0.4513
 6166TIP3   OH239988   2.455   3.103   0.931  0.0873  0.7502  0.6140
 6166TIP3    H139989   2.542   3.114   0.969  0.4028  2.6046 -0.5226
 6166TIP3    H239990   2.469   3.110   0.837 -1.2938  1.2240  0.4214
 6167TIP3   OH239991   1.542   1.691  14.409 -0.0752  0.0932 -0.3842
 6167TIP3    H139992   1.583   1.767  14.451 -2.2149  1.5793 -0.8052
 6167TIP3    H239993   1.532   1.627  14.479 -0.7278  1.3042  0.6709
 6168TIP3   OH239994   1.058   3.432   0.481  0.4983 -0.0023 -0.4111
 6168TIP3    H139995   1.115   3.372   0.529 -1.8553 -0.7570  1.6682
 6168TIP3    H239996   1.078   3.518   0.517 -0.1412 -0.3595  0.8611
 6169TIP3   OH239997   6.602   0.932   4.813 -0.2458 -0.8489 -0.0032
 6169TIP3    H139998   6.559   0.873   4.752  0.9636 -0.4842 -1.2516
 6169TIP3    H239999   6.644   0.998   4.758  1.9018 -1.1748  1.1188
 6170TIP3   OH240000   3.742   5.890  16.787  0.2619  0.1069 -0.5494
 6170TIP3    H140001   3.823   5.886  16.838 -0.4829 -1.1820  0.6012
 6170TIP3    H240002   3.674   5.910  16.851 -0.4189  0.6507 -1.4119
 6171TIP3   OH240003   2.359   0.433   4.061 -0.2724  0.1110  0.3231
 6171TIP3    H140004   2.351   0.414   4.154  0.9575  1.2734  0.6940
 6171TIP3    H240005   2.270   0.420   4.026 -0.5476 -1.2330  1.4557
 6172TIP3   OH240006   3.676   0.074  13.018 -0.7175  0.1415 -0.4974
 6172TIP3    H140007   3.690  -0.021  13.020 -0.6325  0.1631  1.2283
 6172TIP3    H240008   3.607   0.090  13.082  0.5093  1.4111  0.5912
 6173TIP3   OH240009   2.087   4.408  15.180 -0.1524 -0.3676 -0.1396
 6173TIP3    H140010   2.107   4.331  15.232 -0.1698  1.2922  2.5489
 6173TIP3    H240011   2.003   4.389  15.139 -1.1107 -1.1286  2.0088
 6174TIP3   OH240012   2.064   2.660  15.609 -0.0201  0.0629 -0.2348
 6174TIP3    H140013   2.140   2.718  15.608  0.6928 -0.8180 -2.3573
 6174TIP3    H240014   1.989   2.719  15.617  0.7962  1.0545  0.3497
 6175TIP3   OH240015   0.034   6.459   2.344  0.1230  0.0637  0.1978
 6175TIP3    H140016   0.012   6.371   2.373 -0.2889  0.9079  2.7080
 6175TIP3    H240017  -0.004   6.466   2.257 -2.4375 -1.2750  1.1125
 6176TIP3   OH240018   2.825   3.964   3.318 -0.3379  0.2568  0.1052
 6176TIP3    H140019   2.882   4.040   3.327 -0.4741  0.4588 -0.6645
 6176TIP3    H240020   2.763   3.971   3.391 -0.3136  0.8555  0.0733
 6177TIP3   OH240021   0.773   2.818  12.332 -0.1112 -0.0995  0.5660
 6177TIP3    H140022   0.732   2.900  12.360  0.0901  0.0968  0.2898
 6177TIP3    H240023   0.728   2.794  12.251 -0.5477 -0.5564  0.9364
 6178TIP3   OH240024   1.336   2.291   1.093  0.1387  0.0089 -0.1494
 6178TIP3    H140025   1.356   2.224   1.028 -0.8892  0.3810 -0.8735
 6178TIP3    H240026   1.294   2.362   1.044  1.2486  1.2330  0.5808
 6179TIP3   OH240027   0.827   1.161   4.376 -0.3753  0.6266  0.1829
 6179TIP3    H140028   0.741   1.137   4.412 -0.8274 -1.2687 -1.9766
 6179TIP3    H240029   0.882   1.086   4.395  0.0431  0.6531 -0.8803
 6180TIP3   OH240030   4.865   5.837   1.685  0.3830 -0.0271 -0.3725
 6180TIP3    H140031   4.776   5.832   1.720  0.7356  0.3303  0.5978
 6180TIP3    H240032   4.854   5.880   1.600 -0.2717  0.8346  0.1318
 6181TIP3   OH240033   5.761   5.082   2.421 -0.0685 -0.0554  0.0455
 6181TIP3    H140034   5.830   5.068   2.357  2.7974  0.5466  2.7483
 6181TIP3    H240035   5.748   5.177   2.423  0.1550 -0.0343  0.6227
 6182TIP3   OH240036   2.948   2.869  12.589  0.5536 -0.0708  0.7436
 6182TIP3    H140037   2.937   2.794  12.648  0.1689 -1.4289 -0.9805
 6182TIP3    H240038   3.033   2.854  12.547 -0.7488 -1.2051 -1.7447
 6183TIP3   OH240039   6.350   5.879  13.103 -0.4281 -0.3064 -0.4282
 6183TIP3    H140040   6.301   5.799  13.116 -1.9863  0.9788  2.3465
 6183TIP3    H240041   6.285   5.943  13.075 -0.2966  1.1728  2.3289
 6184TIP3   OH240042   3.947   6.629   4.780  0.2006  0.3724  0.2089
 6184TIP3    H140043   3.927   6.700   4.718 -1.3044  0.0180  0.2542
 6184TIP3    H240044   3.942   6.671   4.866 -3.1029 -0.2240  0.4008
 6185TIP3   OH240045   4.429   0.846  13.752 -0.4680 -0.1474 -0.7876
 6185TIP3    H140046   4.456   0.905  13.682  0.0971  0.6022  0.0409
 6185TIP3    H240047   4.471   0.881  13.830  0.6200 -2.1644 -0.4142
 6186TIP3   OH240048   3.807   4.535  15.989  0.2111 -0.4394  0.0801
 6186TIP3    H140049   3.788   4.540  15.895 -2.2080 -0.6353  0.4758
 6186TIP3    H240050   3.820   4.625  16.015  0.1389 -0.3062 -0.3292
 6187TIP3   OH240051   0.335   0.529  16.077  0.1172 -1.4961 -1.0308
 6187TIP3    H140052   0.356   0.562  15.989 -1.1346 -0.6709 -1.0445
 6187TIP3    H240053   0.390   0.451  16.087 -1.1975 -2.8525 -3.3858
 6188TIP3   OH240054   2.782   2.245   4.780 -0.7252  0.0559  0.3767
 6188TIP3    H140055   2.777   2.187   4.704 -0.0321  0.1096  0.2803
 6188TIP3    H240056   2.779   2.333   4.743  1.1644  0.1095  0.2483
 6189TIP3   OH240057   4.220   5.558  12.751 -0.3170  0.0020  0.4755
 6189TIP3    H140058   4.128   5.532  12.756 -0.3017 -0.0923  0.2505
 6189TIP3    H240059   4.226   5.612  12.672  0.1447 -1.3019 -0.4220
 6190TIP3   OH240060   5.094   4.165   4.463  0.1046  0.2504  0.3710
 6190TIP3    H140061   5.116   4.217   4.541  2.9382  0.0921 -0.1877
 6190TIP3    H240062   5.164   4.099   4.459  0.8921  1.0996 -3.0130
 6191TIP3   OH240063   5.600   0.333   4.388  0.0815 -0.2533  0.7018
 6191TIP3    H140064   5.522   0.299   4.432  0.1358 -0.3405  0.7313
 6191TIP3    H240065   5.599   0.294   4.301  0.3022 -0.5629  0.8382
 6192TIP3   OH240066   3.396   6.678   3.717 -0.1754  0.4165  0.2420
 6192TIP3    H140067   3.322   6.739   3.707 -1.0040 -0.8315 -1.7852
 6192TIP3    H240068   3.470   6.725   3.680 -0.4290  0.8156  0.2250
 6193TIP3   OH240069   1.561   4.189  17.045  0.4984  0.4674 -0.3685
 6193TIP3    H140070   1.472   4.166  17.072 -0.0637  1.5424 -1.1787
 6193TIP3    H240071   1.555   4.283  17.025  1.7049  0.4462 -0.8768
 6194TIP3   OH240072   4.081   3.353  14.095  0.2652  0.1709 -0.1300
 6194TIP3    H140073   4.022   3.379  14.025  0.7733 -2.4712 -1.6467
 6194TIP3    H240074   4.084   3.258  14.090  1.0915 -0.0630  2.8987
 6195TIP3   OH240075   1.551   0.668   3.628 -0.4109  0.2935  0.0309
 6195TIP3    H140076   1.486   0.612   3.586 -0.6939 -0.2932  1.1914
 6195TIP3    H240077   1.500   0.732   3.677 -0.0941  2.0283 -1.7793
 6196TIP3   OH240078   1.134   1.955  15.191  0.3822  0.0400 -0.0929
 6196TIP3    H140079   1.144   2.019  15.261  1.8524  0.9029 -1.0400
 6196TIP3    H240080   1.142   1.870  15.235  2.3016  0.5761  0.6866
 6197TIP3   OH240081   6.208   6.722   6.507  0.2645 -0.4773 -0.0722
 6197TIP3    H140082   6.128   6.678   6.537  0.5092 -1.5451 -0.9210
 6197TIP3    H240083   6.276   6.691   6.567  0.4809 -1.4621 -0.8135
 6198TIP3   OH240084   0.528   0.418  10.642  0.1564 -0.2359  0.3388
 6198TIP3    H140085   0.436   0.412  10.669 -0.2018 -1.3048 -0.9987
 6198TIP3    H240086   0.553   0.508  10.662 -1.8690  0.7712 -1.2568
 6199TIP3   OH240087   6.279   3.440  10.987  0.5671  0.6814  0.5008
 6199TIP3    H140088   6.354   3.383  10.974  0.1325  0.5524 -2.1085
 6199TIP3    H240089   6.315   3.529  10.984  0.6083  0.6644 -1.8606
 6200TIP3   OH240090   2.917   2.882   1.718 -0.2019  0.4927  0.3251
 6200TIP3    H140091   2.964   2.903   1.638  1.2676  2.5884  1.6110
 6200TIP3    H240092   2.826   2.872   1.691  0.4797 -0.4853 -1.7923
 6201TIP3   OH240093   6.770   3.390  16.873 -1.0280  0.3056  0.6150
 6201TIP3    H140094   6.814   3.406  16.956 -0.3880 -0.9454  0.5441
 6201TIP3    H240095   6.686   3.352  16.897 -1.2962  0.9583  0.7126
 6202TIP3   OH240096   1.314   3.214  16.637  0.2477  0.0792 -0.5466
 6202TIP3    H140097   1.340   3.302  16.608 -1.9663  0.6878 -0.8631
 6202TIP3    H240098   1.288   3.170  16.556  0.3528 -0.5110 -0.2584
 6203TIP3   OH240099   3.208   0.817  12.065 -0.3981  0.4459 -0.1715
 6203TIP3    H140100   3.159   0.886  12.020 -0.4348  0.2276 -0.4718
 6203TIP3    H240101   3.187   0.737  12.016  1.1994  0.5264 -1.0824
 6204TIP3   OH240102   0.642   2.403   0.939 -0.4089 -0.3228  0.3911
 6204TIP3    H140103   0.595   2.384   1.020 -0.7604  0.1804  0.3074
 6204TIP3    H240104   0.619   2.330   0.881 -0.2524 -0.6211  0.6999
 6205TIP3   OH240105   5.366   6.492  12.243  0.3777 -1.2468  0.0433
 6205TIP3    H140106   5.429   6.550  12.284  2.2042 -2.6864 -0.5757
 6205TIP3    H240107   5.293   6.549  12.219  2.0724  0.8014 -0.5504
 6206TIP3   OH240108   2.673   4.067  11.452 -0.0347  0.1018 -0.5881
 6206TIP3    H140109   2.700   4.158  11.439  2.7387 -0.5923 -0.4000
 6206TIP3    H240110   2.607   4.051  11.384  2.6481  1.0481 -3.7178
 6207TIP3   OH240111   3.334   6.421   4.386 -0.0050  0.6134 -0.6424
 6207TIP3    H140112   3.358   6.434   4.295  1.0399  0.5443 -0.3913
 6207TIP3    H240113   3.293   6.504   4.412  0.2564  0.8636 -1.0068
 6208TIP3   OH240114   2.525   6.487  15.892 -0.1883 -0.6238  0.1973
 6208TIP3    H140115   2.599   6.547  15.897  0.1166 -0.6966 -2.3094
 6208TIP3    H240116   2.548   6.416  15.952  0.0370  1.0622  2.2193
 6209TIP3   OH240117   1.958   6.426   3.768 -0.1898 -0.3039 -0.3474
 6209TIP3    H140118   1.923   6.403   3.854 -0.2582  1.7449  0.2273
 6209TIP3    H240119   2.032   6.484   3.787  0.5700 -0.7983 -1.6594
 6210TIP3   OH240120   3.515   6.463   2.829  0.5072 -0.3838 -0.0820
 6210TIP3    H140121   3.430   6.468   2.786 -0.6034 -1.7014  1.8508
 6210TIP3    H240122   3.499   6.490   2.919  2.1052 -0.8124  0.3698
 6211TIP3   OH240123   2.541   5.259   0.424  0.7781 -0.0756  0.6552
 6211TIP3    H140124   2.445   5.259   0.423  0.7426 -2.1752 -0.0304
 6211TIP3    H240125   2.565   5.348   0.398 -0.9680  0.4583  0.7207
 6212TIP3   OH240126   3.037   0.286   5.680  0.1707  0.1702 -0.3703
 6212TIP3    H140127   3.043   0.212   5.740  2.3313  1.0963  0.6465
 6212TIP3    H240128   2.983   0.350   5.726 -0.1126 -0.0249 -0.4298
 6213TIP3   OH240129   5.495   2.568   6.684  0.2353  0.7253 -0.3185
 6213TIP3    H140130   5.408   2.548   6.650  0.2202  2.3041 -1.2829
 6213TIP3    H240131   5.555   2.513   6.633 -0.0709  0.6193 -0.5621
 6214TIP3   OH240132   1.528   1.832   4.641  0.4424  0.0747  0.5762
 6214TIP3    H140133   1.581   1.761   4.604  0.1462  0.2560 -0.1972
 6214TIP3    H240134   1.449   1.788   4.672 -0.0405  0.1515 -0.5159
 6215TIP3   OH240135   2.157   0.692   0.094 -0.2290 -0.4117  0.2588
 6215TIP3    H140136   2.156   0.648   0.010 -0.7567  0.5772 -0.2716
 6215TIP3    H240137   2.233   0.751   0.089  0.3260 -1.0554  0.8650
 6216TIP3   OH240138   3.336   3.996   0.051  0.0393 -0.1545 -0.0706
 6216TIP3    H140139   3.314   3.931  -0.016  0.6537 -1.5762  1.0456
 6216TIP3    H240140   3.274   4.067   0.037 -1.2659 -1.3821 -0.7529
 6217TIP3   OH240141   5.592   1.411  15.332 -0.8016  0.4676 -0.1439
 6217TIP3    H140142   5.656   1.361  15.383  0.1222 -2.6907 -3.8799
 6217TIP3    H240143   5.639   1.490  15.306  0.0702  0.2248  0.6272
 6218TIP3   OH240144   2.995   6.267   4.551  0.6737  0.4787 -0.2627
 6218TIP3    H140145   2.991   6.219   4.467  3.7761 -1.4136  0.5229
 6218TIP3    H240146   3.030   6.353   4.528  1.1543  0.1078 -0.9548
 6219TIP3   OH240147   1.775   1.478   3.231 -0.4682 -0.2264  1.1864
 6219TIP3    H140148   1.689   1.475   3.273 -0.4645  2.0979  1.4811
 6219TIP3    H240149   1.818   1.398   3.259 -2.6513 -1.6425  0.7316
 6220TIP3   OH240150   6.393   0.567   1.012 -0.3213  0.2183 -0.0032
 6220TIP3    H140151   6.368   0.659   1.006  0.7071  0.4581 -1.1415
 6220TIP3    H240152   6.357   0.537   1.095  0.2861  1.9669  0.9429
 6221TIP3   OH240153   2.698   6.660   3.502 -0.5475 -0.0200  0.2306
 6221TIP3    H140154   2.708   6.743   3.455 -1.1164  0.6693  1.3032
 6221TIP3    H240155   2.696   6.593   3.433  3.1323  0.4749 -0.5614
 6222TIP3   OH240156   3.583   3.420  13.594  0.3002 -0.6849 -0.6903
 6222TIP3    H140157   3.564   3.505  13.556 -0.3005 -0.6366 -0.2888
 6222TIP3    H240158   3.679   3.417  13.599  0.3027  0.6830  0.8709
 6223TIP3   OH240159   2.693   6.728   2.780 -0.2746  0.0698  0.0806
 6223TIP3    H140160   2.626   6.665   2.756 -0.6898  0.8125 -0.7701
 6223TIP3    H240161   2.666   6.810   2.737  0.9977  0.4568 -0.0321
 6224TIP3   OH240162   2.872   3.128   1.411  0.0118 -0.1171 -0.4063
 6224TIP3    H140163   2.900   3.090   1.328 -2.3230 -0.0226 -1.3078
 6224TIP3    H240164   2.817   3.061   1.451  0.0792  0.3317  0.4665
 6225TIP3   OH240165   4.067   1.134  14.438 -0.6335 -0.3592 -0.1339
 6225TIP3    H140166   4.080   1.119  14.344  1.7732 -1.0017  0.2439
 6225TIP3    H240167   4.063   1.047  14.477  0.2269 -0.1008  0.5619
 6226TIP3   OH240168   0.093   6.665  11.955  0.1407 -0.2228 -0.3749
 6226TIP3    H140169   0.158   6.681  11.886  0.6434  0.1292  0.1656
 6226TIP3    H240170   0.015   6.712  11.926  0.8124  1.1998 -0.0110
 6227TIP3   OH240171   0.554   3.718  14.648 -0.3123 -0.0826 -0.2990
 6227TIP3    H140172   0.630   3.673  14.610  1.0232  0.9895  0.9639
 6227TIP3    H240173   0.547   3.682  14.736  0.1815  1.4133  0.3946
 6228TIP3   OH240174   4.914   0.609   6.151 -0.3506 -1.1801  0.1591
 6228TIP3    H140175   4.946   0.696   6.126  1.4641 -1.6469  0.6777
 6228TIP3    H240176   4.977   0.548   6.112 -0.1726 -2.1414  1.8332
 6229TIP3   OH240177   5.856   3.501   1.441 -0.5399 -0.0205  0.5641
 6229TIP3    H140178   5.931   3.558   1.421 -0.1439 -0.9239 -0.6061
 6229TIP3    H240179   5.782   3.543   1.397 -0.8404  1.0686  2.0163
 6230TIP3   OH240180   5.404   3.508  17.088 -0.7581 -0.3174 -1.0666
 6230TIP3    H140181   5.345   3.478  17.157 -0.6777 -1.7875 -1.5958
 6230TIP3    H240182   5.430   3.428  17.042  2.0448  0.1560 -0.5390
 6231TIP3   OH240183   5.534   5.535   1.909 -0.0678  0.4485  0.6154
 6231TIP3    H140184   5.535   5.471   1.981  0.4486  1.4814  1.5642
 6231TIP3    H240185   5.519   5.619   1.952  1.7365  1.2980 -0.2841
 6232TIP3   OH240186   1.990   0.648  14.605  0.2131  0.0258 -0.0581
 6232TIP3    H140187   1.953   0.642  14.693  1.6294  0.6978  0.6344
 6232TIP3    H240188   2.065   0.588  14.607  1.2595  1.2785 -0.2181
 6233TIP3   OH240189   0.373   6.093   4.023 -0.1397  0.4300 -0.6006
 6233TIP3    H140190   0.311   6.166   4.030  0.1951  0.5713  1.2355
 6233TIP3    H240191   0.459   6.135   4.030  0.0514 -0.1541  0.6127
 6234TIP3   OH240192   6.635   0.244   1.856 -1.0452 -0.2853 -0.1898
 6234TIP3    H140193   6.563   0.290   1.814 -2.3856 -0.1229  2.1381
 6234TIP3    H240194   6.662   0.301   1.927  0.8086 -0.7740 -0.4445
 6235TIP3   OH240195   1.564   3.482  11.587  0.1997 -0.0632 -0.1041
 6235TIP3    H140196   1.614   3.550  11.543 -0.0166 -0.2546 -0.6743
 6235TIP3    H240197   1.599   3.477  11.675 -0.0370  1.0429  0.0596
 6236TIP3   OH240198   2.671   3.207  14.567 -0.7327  0.2363 -0.1979
 6236TIP3    H140199   2.679   3.124  14.519 -2.4910  0.2216 -0.5519
 6236TIP3    H240200   2.700   3.273  14.504  2.2335 -0.1647  0.6160
 6237TIP3   OH240201   3.307   1.607   0.053 -0.2777  0.9615  0.1484
 6237TIP3    H140202   3.256   1.604  -0.028 -1.4966  2.6037  0.7896
 6237TIP3    H240203   3.395   1.633   0.025 -0.4865  0.7583 -0.7235
 6238TIP3   OH240204   4.842   6.794   3.890 -0.1711  0.1200 -0.3674
 6238TIP3    H140205   4.824   6.774   3.798  1.1427 -0.7816 -0.4539
 6238TIP3    H240206   4.922   6.847   3.887 -1.2625  1.8852  0.1474
 6239TIP3   OH240207   0.441   6.405  15.547  0.0365 -0.4075 -0.0144
 6239TIP3    H140208   0.492   6.453  15.482  0.1886 -0.7831 -0.1811
 6239TIP3    H240209   0.409   6.471  15.608 -0.0913 -0.0521 -0.4636
 6240TIP3   OH240210   3.522   6.374  15.563  0.2780  0.2466 -0.1244
 6240TIP3    H140211   3.612   6.343  15.552  0.0720 -0.3683 -0.1547
 6240TIP3    H240212   3.510   6.382  15.657 -0.1160 -1.1899 -0.0312
 6241TIP3   OH240213   2.368   3.680  16.943  0.0221 -0.5698  0.4095
 6241TIP3    H140214   2.305   3.682  16.871 -0.3039 -0.0417  0.6963
 6241TIP3    H240215   2.445   3.726  16.908  0.2102 -1.1242  0.0939
 6242TIP3   OH240216   5.100   1.085  11.895 -0.2500 -0.1257 -0.1786
 6242TIP3    H140217   5.087   1.107  11.987  0.6164  1.0675 -0.3236
 6242TIP3    H240218   5.030   1.133  11.849 -0.5721 -0.5779 -0.1645
 6243TIP3   OH240219   0.829   5.428   2.742 -0.0342  0.2362 -0.1971
 6243TIP3    H140220   0.747   5.379   2.741 -0.1767  0.4748 -0.3901
 6243TIP3    H240221   0.881   5.389   2.673  0.0455  0.0349 -0.0250
 6244TIP3   OH240222   1.688   3.125  12.631 -0.9766  0.6879  0.6816
 6244TIP3    H140223   1.773   3.114  12.674  0.2709  0.6066 -1.6721
 6244TIP3    H240224   1.647   3.198  12.678 -0.3762 -0.3345  2.9286
 6245TIP3   OH240225   5.083   3.135  15.641 -0.1935 -0.3878 -0.2502
 6245TIP3    H140226   5.011   3.177  15.688 -1.0377 -0.4599 -1.4255
 6245TIP3    H240227   5.076   3.042  15.664  0.8215 -0.1265  1.2551
 6246TIP3   OH240228   1.531   4.016  10.833  0.2851 -0.3789 -0.1455
 6246TIP3    H140229   1.478   4.086  10.872 -0.1285  0.4015 -2.0220
 6246TIP3    H240230   1.621   4.050  10.838  0.2466 -0.3096  0.1399
 6247TIP3   OH240231   5.843   2.780   3.756 -0.6341 -0.0373  0.0144
 6247TIP3    H140232   5.932   2.806   3.731 -0.7493 -0.1124 -0.4846
 6247TIP3    H240233   5.787   2.819   3.689 -1.0940  0.9622  0.9521
 6248TIP3   OH240234   6.647   0.605   6.528 -0.1712  0.5346 -0.1009
 6248TIP3    H140235   6.713   0.658   6.483  0.6061  0.4748  0.9175
 6248TIP3    H240236   6.565   0.627   6.485  0.6507 -0.3154 -2.2322
 6249TIP3   OH240237   5.630   4.027  14.049  0.1697  0.6117 -0.1998
 6249TIP3    H140238   5.615   4.121  14.035  0.0680  0.6472  0.1314
 6249TIP3    H240239   5.640   3.991  13.961  0.8760  1.0397 -0.3000
 6250TIP3   OH240240   0.616   1.245  16.719 -0.3639 -0.0976 -0.6516
 6250TIP3    H140241   0.565   1.287  16.651 -1.6956 -0.1654  0.2598
 6250TIP3    H240242   0.556   1.239  16.794  0.9640 -0.2323  0.4509
 6251TIP3   OH240243   1.478   5.432  14.080  0.4501  0.2797  0.1524
 6251TIP3    H140244   1.432   5.372  14.022  2.0094  1.2261 -2.1944
 6251TIP3    H240245   1.437   5.517  14.066  2.3052  1.0002 -1.4697
 6252TIP3   OH240246   4.361   4.316   2.620  0.3818  0.2276 -0.2924
 6252TIP3    H140247   4.418   4.257   2.571  0.8531 -0.4255  0.9912
 6252TIP3    H240248   4.349   4.392   2.563 -1.2605 -1.5996 -2.5324
 6253TIP3   OH240249   4.032   1.817   2.643  0.1700 -0.5778 -0.3196
 6253TIP3    H140250   3.948   1.805   2.598 -0.9597  0.6080  1.3793
 6253TIP3    H240251   4.016   1.888   2.705  3.1200  1.3652 -1.5889
 6254TIP3   OH240252   4.626   3.194  15.515  0.6520  0.5596  0.1993
 6254TIP3    H140253   4.703   3.162  15.563  0.9424 -1.0571 -1.2672
 6254TIP3    H240254   4.647   3.285  15.493  1.2483  0.7769  1.5685
 6255TIP3   OH240255   1.904   1.398  14.451  0.2134  0.3937 -0.0971
 6255TIP3    H140256   1.827   1.430  14.498  0.4735  3.3041 -1.4503
 6255TIP3    H240257   1.901   1.441  14.366  2.3531 -0.9027 -0.9320
 6256TIP3   OH240258   0.746   5.698   2.274  0.3817  0.2111  0.7368
 6256TIP3    H140259   0.771   5.776   2.223 -0.1666  1.6789  2.6121
 6256TIP3    H240260   0.771   5.624   2.218  0.6680  1.7168 -1.2362
 6257TIP3   OH240261   2.775   3.988  13.598  0.2859 -0.2985 -0.0819
 6257TIP3    H140262   2.807   4.075  13.574  0.5266  0.0391  1.3288
 6257TIP3    H240263   2.778   3.937  13.517  2.1511  0.4004 -0.5109
 6258TIP3   OH240264   1.196   0.075  15.134 -0.0651  0.8715  0.1084
 6258TIP3    H140265   1.119   0.112  15.092 -0.6964  0.5947  0.9935
 6258TIP3    H240266   1.162   0.027  15.209  1.1184  2.5158  1.7885
 6259TIP3   OH240267   1.171   0.256   0.320  0.6268 -0.5198  0.2118
 6259TIP3    H140268   1.109   0.273   0.391  0.1186  0.1916 -0.3830
 6259TIP3    H240269   1.236   0.197   0.358  2.2728  2.3725  2.2912
 6260TIP3   OH240270   6.693   1.872  17.082  0.2567 -0.2059 -0.2121
 6260TIP3    H140271   6.749   1.905  17.013  0.1868  0.6032  0.1065
 6260TIP3    H240272   6.675   1.948  17.137 -0.0390 -0.7419  0.4530
 6261TIP3   OH240273   2.231   2.835  12.943 -0.0212  0.0344 -0.0025
 6261TIP3    H140274   2.222   2.875  12.857 -0.2258 -0.9810 -0.4684
 6261TIP3    H240275   2.307   2.777  12.935 -0.0978 -0.1388  0.4724
 6262TIP3   OH240276   5.208   2.056  16.949 -0.0270  0.0802  0.3503
 6262TIP3    H140277   5.183   2.055  16.857 -1.4589 -1.5107  0.6955
 6262TIP3    H240278   5.144   2.114  16.991 -1.0424 -1.2296  0.6957
 6263TIP3   OH240279   4.716   2.617  11.394 -0.2885  0.2842  0.3541
 6263TIP3    H140280   4.736   2.551  11.461  0.8888  0.1023 -0.1468
 6263TIP3    H240281   4.800   2.636  11.353 -0.4229  2.8559  1.1308
 6264TIP3   OH240282   3.486   5.006   4.141  0.4720 -0.7661  0.2208
 6264TIP3    H140283   3.469   4.932   4.083  0.1756 -0.4780 -0.0721
 6264TIP3    H240284   3.556   5.055   4.098 -0.3362 -0.0738 -0.3735
 6265TIP3   OH240285   0.799   0.124   1.367  0.4783 -0.4996  0.3481
 6265TIP3    H140286   0.805   0.046   1.422 -2.9947 -1.1328  0.0722
 6265TIP3    H240287   0.744   0.096   1.293 -3.5419  2.8427  1.7281
 6266TIP3   OH240288   0.188   5.412  12.077 -0.5249 -0.1913 -0.2179
 6266TIP3    H140289   0.145   5.490  12.113  0.0393  0.2649 -0.5045
 6266TIP3    H240290   0.150   5.403  11.989  0.6199  0.7742 -0.8407
 6267TIP3   OH240291   5.293   5.895  11.473 -0.1876  0.6670 -0.8693
 6267TIP3    H140292   5.383   5.863  11.479  0.0219  1.3972  0.3019
 6267TIP3    H240293   5.284   5.954  11.548 -1.7889  0.2492 -0.7037
 6268TIP3   OH240294   5.254   0.548   4.534 -0.3656 -0.2016  0.4412
 6268TIP3    H140295   5.162   0.525   4.545  0.2225 -2.4861  1.0773
 6268TIP3    H240296   5.268   0.547   4.440 -0.3107 -3.1563  0.3897
 6269TIP3   OH240297   0.752   5.876   4.099  0.0615  0.0888  0.2531
 6269TIP3    H140298   0.792   5.791   4.078 -0.7943  0.0188 -1.1854
 6269TIP3    H240299   0.686   5.856   4.165  0.3439 -0.2498  0.4361
 6270TIP3   OH240300   0.185   1.599   2.664  0.1112 -0.2189 -0.5515
 6270TIP3    H140301   0.268   1.595   2.712 -0.3533 -0.1322  0.2906
 6270TIP3    H240302   0.206   1.567   2.577  0.8567 -1.0213 -0.0963
 6271TIP3   OH240303   3.363   5.612  15.938 -0.4056  0.0848 -0.0427
 6271TIP3    H140304   3.338   5.690  15.987  0.0473  0.4761 -0.4212
 6271TIP3    H240305   3.327   5.627  15.850  0.2030  0.1473 -0.2836
 6272TIP3   OH240306   6.449   3.818   3.755 -0.4259 -0.1676  0.2031
 6272TIP3    H140307   6.383   3.835   3.822 -0.4447  0.8294 -0.0512
 6272TIP3    H240308   6.425   3.876   3.683  1.4121  1.1595  0.5794
 6273TIP3   OH240309   4.302   3.096  16.945 -0.1355  0.4181  0.2126
 6273TIP3    H140310   4.382   3.131  16.983 -0.3280  1.3004 -0.1512
 6273TIP3    H240311   4.309   3.115  16.852 -0.5188  0.0022  0.0933
 6274TIP3   OH240312   4.334   5.701  13.806 -0.0785  0.0675 -0.4064
 6274TIP3    H140313   4.341   5.760  13.731  1.5085 -0.0564 -0.4058
 6274TIP3    H240314   4.377   5.748  13.878  0.3979 -0.6988 -0.1699
 6275TIP3   OH240315   2.021   1.361   3.389  0.3725  0.0540 -0.5572
 6275TIP3    H140316   1.946   1.386   3.444  0.4118  0.2795 -0.6091
 6275TIP3    H240317   2.091   1.420   3.416 -0.2226  1.7288 -2.4230
 6276TIP3   OH240318   6.257   1.978   4.183 -0.2794  0.4487  0.1831
 6276TIP3    H140319   6.187   1.991   4.247 -1.8088 -0.4625 -1.2305
 6276TIP3    H240320   6.335   1.959   4.236 -1.8568 -2.0238  1.8002
 6277TIP3   OH240321   2.391   4.999   4.214  0.0973  0.3188  0.4064
 6277TIP3    H140322   2.478   5.000   4.253  0.8170 -1.5891 -1.0041
 6277TIP3    H240323   2.406   5.022   4.122 -1.2414  2.3640  0.6265
 6278TIP3   OH240324   4.315   2.320   0.582 -0.7860 -0.6832 -0.3066
 6278TIP3    H140325   4.376   2.330   0.656  0.0204 -1.0888 -0.9009
 6278TIP3    H240326   4.229   2.320   0.623 -0.3803 -0.4728  0.5973
 6279TIP3   OH240327   4.457   4.345   5.078 -0.0116 -0.5235  0.4504
 6279TIP3    H140328   4.385   4.374   5.133 -0.6989  2.4157 -1.7602
 6279TIP3    H240329   4.415   4.312   4.999  0.7945  3.2214 -1.8179
 6280TIP3   OH240330   0.421   5.816  12.664 -0.0188  0.1689 -0.7998
 6280TIP3    H140331   0.360   5.887  12.682  1.0022  1.1093 -0.9241
 6280TIP3    H240332   0.372   5.736  12.685 -0.0022  0.9886  3.0570
 6281TIP3   OH240333   4.550   6.240  11.085  0.1280  0.8198  0.2808
 6281TIP3    H140334   4.500   6.158  11.075 -0.5183  1.1903  0.3964
 6281TIP3    H240335   4.572   6.243  11.178 -0.1307  0.9365  0.3386
 6282TIP3   OH240336   5.705   0.073  16.699 -0.1283 -0.3842 -0.3776
 6282TIP3    H140337   5.676  -0.017  16.711 -0.3691 -0.1611  0.9040
 6282TIP3    H240338   5.768   0.069  16.627 -0.2110 -1.5491 -0.4071
 6283TIP3   OH240339   3.558   1.969   3.185  0.4634 -0.3810 -0.2336
 6283TIP3    H140340   3.645   1.960   3.145  0.6370 -1.3262  0.3106
 6283TIP3    H240341   3.509   1.893   3.153  0.7743 -1.4526  1.6865
 6284TIP3   OH240342   5.675   5.304   0.836  0.0051  0.6144  0.0462
 6284TIP3    H140343   5.713   5.328   0.921  0.9130  1.2552 -0.5274
 6284TIP3    H240344   5.671   5.208   0.838  1.2528  0.5480  0.2973
 6285TIP3   OH240345   4.109   1.809  13.811 -0.8844 -0.4696  0.0249
 6285TIP3    H140346   4.062   1.801  13.728 -2.1713  1.8012  0.4550
 6285TIP3    H240347   4.091   1.726  13.856 -0.7507 -1.4447 -1.6347
 6286TIP3   OH240348   0.379   4.605   4.546 -0.6084 -0.2283 -0.7172
 6286TIP3    H140349   0.365   4.699   4.540 -1.7889 -0.3784 -0.6341
 6286TIP3    H240350   0.474   4.594   4.541 -0.5407  0.8031 -3.0559
 6287TIP3   OH240351   2.953   0.060  16.026 -0.1024 -0.3727  0.2888
 6287TIP3    H140352   2.989   0.074  16.114  0.8712 -1.1687  0.0245
 6287TIP3    H240353   2.980  -0.028  16.003  1.8754  0.6919 -1.8513
 6288TIP3   OH240354   1.122   5.144   4.983  0.5472  0.1965  0.0313
 6288TIP3    H140355   1.076   5.201   4.921 -0.0176 -0.1904  0.0812
 6288TIP3    H240356   1.083   5.058   4.969  1.7383 -0.2925 -0.4047
 6289TIP3   OH240357   2.904   6.367  16.077 -0.2175  0.0727  0.1087
 6289TIP3    H140358   2.819   6.409  16.068 -0.0706  0.2078 -0.7853
 6289TIP3    H240359   2.922   6.368  16.171 -0.9365  0.5575  0.2480
 6290TIP3   OH240360   1.619   5.256   4.930  0.1980  0.0306  0.0654
 6290TIP3    H140361   1.569   5.224   5.004  1.8279 -2.4893  0.2055
 6290TIP3    H240362   1.626   5.181   4.871  0.5780  1.4075 -1.7485
 6291TIP3   OH240363   0.788   2.753   0.205  0.1287  0.6011  0.3289
 6291TIP3    H140364   0.709   2.771   0.155 -0.2891  0.7842  1.0419
 6291TIP3    H240365   0.806   2.660   0.191 -0.0026  0.6462 -0.1339
 6292TIP3   OH240366   4.052   2.529  12.158  0.3320  0.7459  0.0309
 6292TIP3    H140367   3.980   2.543  12.096 -0.6417  0.6280  1.1018
 6292TIP3    H240368   4.126   2.503  12.103 -1.0236 -1.3190 -0.9633
 6293TIP3   OH240369   5.247   4.593   6.332  0.0001 -0.4086  0.0308
 6293TIP3    H140370   5.220   4.664   6.390 -1.4520 -0.5312 -0.4609
 6293TIP3    H240371   5.292   4.531   6.389 -0.4938 -0.0447  0.8253
 6294TIP3   OH240372   6.483   4.475   4.252 -0.4971  0.3342  0.2012
 6294TIP3    H140373   6.531   4.400   4.215  0.3585  0.7071  0.5218
 6294TIP3    H240374   6.481   4.540   4.182 -0.2127  0.4541  0.3018
 6295TIP3   OH240375   0.842   4.718  14.048 -0.2185 -0.0263 -0.0125
 6295TIP3    H140376   0.756   4.758  14.033 -1.0326 -1.6564  0.0419
 6295TIP3    H240377   0.852   4.655  13.976  0.8776  0.0391  0.0655
 6296TIP3   OH240378   6.109   5.931  15.815  0.2799  0.3628 -0.3061
 6296TIP3    H140379   6.113   5.836  15.821  1.8069  0.3517 -1.0372
 6296TIP3    H240380   6.165   5.962  15.886 -0.6841  0.7500  0.3077
 6297TIP3   OH240381   3.926   4.267  16.507 -0.2928  1.1167  0.2592
 6297TIP3    H140382   3.881   4.324  16.445 -1.1082  0.7227  0.4739
 6297TIP3    H240383   3.905   4.303  16.593 -2.9797 -0.9165  0.5797
 6298TIP3   OH240384   0.530   5.771  11.484  0.3682 -0.2354 -0.0390
 6298TIP3    H140385   0.595   5.719  11.532 -0.0003  0.1816  0.9398
 6298TIP3    H240386   0.446   5.741  11.519  0.1016  0.1468 -0.3558
 6299TIP3   OH240387   5.998   2.027   5.098 -0.4240 -0.1837  0.0547
 6299TIP3    H140388   6.048   1.958   5.053 -0.5509  0.1732 -0.6604
 6299TIP3    H240389   6.063   2.093   5.120 -0.3489 -0.3952  0.4712
 6300TIP3   OH240390   3.805   3.074  14.055 -0.4892 -0.3230 -0.3823
 6300TIP3    H140391   3.714   3.048  14.040 -0.7484 -0.7216  1.6859
 6300TIP3    H240392   3.831   3.116  13.972 -3.1267  1.4951 -0.4291
 6301TIP3   OH240393   3.685   0.498  10.673  0.3031 -0.1032  0.2957
 6301TIP3    H140394   3.631   0.431  10.715  1.9022 -0.3706  2.0759
 6301TIP3    H240395   3.770   0.455  10.661  0.8128  1.0303 -0.2967
 6302TIP3   OH240396   6.007   6.052   1.341 -0.3782  0.7200  0.5174
 6302TIP3    H140397   6.101   6.040   1.352 -0.1408  1.5675 -0.4742
 6302TIP3    H240398   5.970   5.965   1.352  0.6299  0.1940 -0.1563
 6303TIP3   OH240399   4.352   6.213   0.562 -0.4518  0.2753 -0.1163
 6303TIP3    H140400   4.369   6.274   0.489 -1.3530 -0.0533 -0.6069
 6303TIP3    H240401   4.267   6.175   0.542 -0.6073  0.0136  1.0062
 6304TIP3   OH240402   0.834   4.747   1.065  0.2314 -0.1783 -0.4443
 6304TIP3    H140403   0.840   4.664   1.111 -0.3594  0.7236  1.3392
 6304TIP3    H240404   0.915   4.793   1.087 -0.0172  0.2304 -0.3598
 6305TIP3   OH240405   3.094   5.811  13.578  0.3149  0.1654  0.1231
 6305TIP3    H140406   3.029   5.851  13.520 -1.0097 -2.0560 -0.0050
 6305TIP3    H240407   3.100   5.720  13.550  0.6270 -0.6606  2.6050
 6306TIP3   OH240408   5.025   3.024  11.556  0.4538  0.3931  0.1620
 6306TIP3    H140409   5.005   2.932  11.541 -1.1905  0.9613 -1.4396
 6306TIP3    H240410   5.066   3.025  11.643 -0.9532 -1.6628  0.9423
 6307TIP3   OH240411   0.621   4.102   4.091  0.8291 -0.1673  0.0560
 6307TIP3    H140412   0.582   4.167   4.149  1.3062  0.0924  0.0826
 6307TIP3    H240413   0.554   4.034   4.084 -0.2006  0.9134 -0.9885
 6308TIP3   OH240414   2.171   2.420   4.369  0.4299  0.1514  0.1735
 6308TIP3    H140415   2.167   2.514   4.388 -2.2640  0.2683 -0.6316
 6308TIP3    H240416   2.084   2.387   4.390  1.6578 -2.4704  1.5982
 6309TIP3   OH240417   1.312   6.539   3.692 -0.0742 -0.1266 -0.2990
 6309TIP3    H140418   1.357   6.594   3.628 -0.8752 -1.2909 -1.9335
 6309TIP3    H240419   1.355   6.559   3.775  1.8818  0.5008 -1.3973
 6310TIP3   OH240420   1.906   0.674  13.365  0.2460 -0.0091 -0.3295
 6310TIP3    H140421   1.946   0.657  13.280  2.1185  1.4957  0.1822
 6310TIP3    H240422   1.879   0.766  13.361 -0.6138 -0.2160  0.3509
 6311TIP3   OH240423   2.640   3.674   3.078  0.5309 -0.1109 -0.1170
 6311TIP3    H140424   2.604   3.594   3.118  0.4281 -0.9567 -1.7821
 6311TIP3    H240425   2.562   3.726   3.056  0.6442  1.2311  2.3684
 6312TIP3   OH240426   0.590   1.131   4.577 -0.7367 -0.2337 -0.2859
 6312TIP3    H140427   0.664   1.180   4.612 -0.8910 -0.4165  0.3134
 6312TIP3    H240428   0.603   1.041   4.609 -0.0546 -0.7840 -1.9875
 6313TIP3   OH240429   3.236   2.369   5.286 -0.0856 -0.0694 -0.4377
 6313TIP3    H140430   3.264   2.460   5.283  0.3922 -0.1842 -4.1966
 6313TIP3    H240431   3.293   2.327   5.350  1.3521  1.7736 -0.4582
 6314TIP3   OH240432   0.210   1.402  11.307 -0.0613  0.6696 -0.1371
 6314TIP3    H140433   0.116   1.398  11.324 -0.4711  2.3135 -1.6999
 6314TIP3    H240434   0.235   1.492  11.330  1.2923  0.0781  0.8769
 6315TIP3   OH240435   6.425   3.675   2.067 -0.2870 -0.0501  0.3168
 6315TIP3    H140436   6.354   3.638   2.015 -0.7055  0.9167  0.1792
 6315TIP3    H240437   6.477   3.727   2.005  1.0675 -1.4317  0.2329
 6316TIP3   OH240438   4.242   6.410  17.150  0.1204 -0.5444 -0.2323
 6316TIP3    H140439   4.257   6.494  17.108  1.5938 -0.9578 -0.5722
 6316TIP3    H240440   4.329   6.381  17.179 -0.5319 -1.3517  1.0345
 6317TIP3   OH240441   6.067   2.873  12.983 -0.1447 -0.2549 -0.2406
 6317TIP3    H140442   5.973   2.890  12.975 -0.4867 -0.1534  3.0306
 6317TIP3    H240443   6.073   2.785  13.020  0.9015  0.7384  2.0990
 6318TIP3   OH240444   2.367   6.271   0.480  0.2874 -0.5568 -0.1852
 6318TIP3    H140445   2.418   6.266   0.400  0.8083  0.5047  0.0567
 6318TIP3    H240446   2.431   6.254   0.550  0.2566  0.4097  0.0965
 6319TIP3   OH240447   2.429   4.108   5.228  0.5369 -0.2051 -0.6496
 6319TIP3    H140448   2.434   4.203   5.218  0.6306 -0.0675  0.5532
 6319TIP3    H240449   2.516   4.077   5.202  1.3358  0.2963  1.2530
 6320TIP3   OH240450   2.455   4.086  10.412 -0.4374  0.3851 -0.1682
 6320TIP3    H140451   2.529   4.026  10.404 -1.2405 -0.7158  0.4518
 6320TIP3    H240452   2.450   4.129  10.326  0.7828  0.3524 -0.2868
 6321TIP3   OH240453   0.262   0.289   0.903 -0.4746 -0.1106  0.5217
 6321TIP3    H140454   0.256   0.198   0.873  1.7427  0.3414 -1.5977
 6321TIP3    H240455   0.171   0.319   0.908 -1.1664 -1.8617 -0.5988
 6322TIP3   OH240456   5.513   2.121  16.919  0.0361  0.1960  0.4162
 6322TIP3    H140457   5.490   2.158  16.834 -0.0550 -0.0028  0.3554
 6322TIP3    H240458   5.457   2.044  16.929  2.2370 -1.6938 -0.7650
 6323TIP3   OH240459   5.907   2.160   0.816  0.6837 -0.1142 -0.2422
 6323TIP3    H140460   5.878   2.251   0.807  1.5423  0.0655 -1.2086
 6323TIP3    H240461   5.843   2.109   0.765  0.1962 -0.0711  0.3091
 6324TIP3   OH240462   3.536   5.489   5.309 -0.0565 -0.1199 -0.1268
 6324TIP3    H140463   3.517   5.404   5.349  0.5027 -0.5014 -0.6489
 6324TIP3    H240464   3.453   5.517   5.272  0.2825 -1.6885 -2.2335
 6325TIP3   OH240465   2.537   2.568   1.957  0.2566  0.0642 -0.8490
 6325TIP3    H140466   2.547   2.481   1.997 -1.5814 -0.8223 -2.1703
 6325TIP3    H240467   2.452   2.564   1.913  0.5774  2.2225 -1.7590
 6326TIP3   OH240468   2.545   5.237   2.247  0.3068  0.0512 -0.2500
 6326TIP3    H140469   2.452   5.248   2.227  0.6033  0.1680 -1.6567
 6326TIP3    H240470   2.568   5.154   2.205  1.4201  1.2861 -2.1966
 6327TIP3   OH240471   2.672   3.575  16.739  0.7804  0.4775 -0.7444
 6327TIP3    H140472   2.675   3.519  16.817 -0.1085  1.8976  0.3721
 6327TIP3    H240473   2.587   3.556  16.700  0.0946  1.6264  0.1299
 6328TIP3   OH240474   1.479   1.937   3.518 -0.4364  0.3805  0.2697
 6328TIP3    H140475   1.421   1.994   3.569 -0.3656  0.2740  0.4727
 6328TIP3    H240476   1.545   1.996   3.481 -0.0640  0.3771  0.8943
 6329TIP3   OH240477   3.035   3.973   0.392 -0.0737  0.5577 -0.2504
 6329TIP3    H140478   3.003   3.990   0.481 -0.0491 -0.1722 -0.0939
 6329TIP3    H240479   3.093   4.047   0.373  0.5026  0.3592  0.6315
 6330TIP3   OH240480   0.816   3.257  12.486 -0.0394  0.6713 -0.2377
 6330TIP3    H140481   0.785   3.346  12.474  1.7371  1.1882 -1.5260
 6330TIP3    H240482   0.881   3.263  12.557 -1.4164 -0.0384  1.1498
 6331TIP3   OH240483   3.041   1.581   3.796 -0.7793 -0.2373  0.5954
 6331TIP3    H140484   2.955   1.603   3.758  0.5543  1.8327 -1.5031
 6331TIP3    H240485   3.069   1.661   3.840 -1.3343 -1.9499  4.4945
 6332TIP3   OH240486   0.555   0.720  10.817 -0.3889 -0.4754  0.2502
 6332TIP3    H140487   0.481   0.730  10.758  0.3527  0.9446 -0.4792
 6332TIP3    H240488   0.630   0.705  10.759  0.4217  1.3360  0.7701
 6333TIP3   OH240489   5.223   6.558  14.890 -0.2829 -0.2311 -0.7114
 6333TIP3    H140490   5.158   6.623  14.863 -2.4890 -2.1163 -0.2543
 6333TIP3    H240491   5.214   6.487  14.826  2.2062 -0.0946 -1.3179
 6334TIP3   OH240492   3.682   0.536  13.545  0.3165  0.5101 -0.9733
 6334TIP3    H140493   3.691   0.586  13.464  1.3878  1.3179 -0.3860
 6334TIP3    H240494   3.713   0.595  13.614 -0.5789 -0.1477  0.0388
 6335TIP3   OH240495   2.523   1.330   0.974 -0.1855  0.2183  0.2436
 6335TIP3    H140496   2.575   1.261   1.013 -0.7286 -0.5249 -0.3004
 6335TIP3    H240497   2.556   1.411   1.012  1.2295 -0.2431  0.0422
 6336TIP3   OH240498   3.194   5.578  11.392  0.6928 -0.7455 -0.2302
 6336TIP3    H140499   3.155   5.602  11.476  1.5112 -2.2226  0.6108
 6336TIP3    H240500   3.286   5.561  11.412  0.9565 -0.8680 -1.4791
 6337TIP3   OH240501   5.351   0.938  15.304  0.4238  0.0257 -0.0488
 6337TIP3    H140502   5.356   1.030  15.278 -1.3361  0.5550  1.2043
 6337TIP3    H240503   5.294   0.939  15.382 -0.5730 -2.2374 -0.6630
 6338TIP3   OH240504   1.241   3.467   0.022  0.4470  0.2910 -0.3389
 6338TIP3    H140505   1.253   3.536   0.087 -1.6594  0.8719 -0.5101
 6338TIP3    H240506   1.241   3.386   0.073  0.1759  0.6338  0.2108
 6339TIP3   OH240507   4.417   2.725   0.374  0.3829  0.0420  0.3757
 6339TIP3    H140508   4.450   2.662   0.309 -0.0371  0.2526 -0.0505
 6339TIP3    H240509   4.342   2.680   0.414  0.6053 -0.0636  0.6726
 6340TIP3   OH240510   2.892   4.398   3.311 -0.2868 -0.1276  0.3741
 6340TIP3    H140511   2.950   4.474   3.321 -0.2823  0.0131 -0.5944
 6340TIP3    H240512   2.833   4.423   3.239 -1.0233 -0.5948  0.8069
 6341TIP3   OH240513   5.130   5.300  13.831 -0.0743 -0.1000  0.3782
 6341TIP3    H140514   5.092   5.212  13.826 -0.2688 -0.1180  1.7442
 6341TIP3    H240515   5.078   5.345  13.898  1.4880  0.2696  1.4133
 6342TIP3   OH240516   6.144   0.869   3.949 -0.3920  0.0373 -0.0920
 6342TIP3    H140517   6.085   0.799   3.923  0.0320 -0.5547  0.4918
 6342TIP3    H240518   6.163   0.916   3.868  0.7744 -1.6518 -0.8695
 6343TIP3   OH240519   3.869   3.053  14.868  0.4725 -0.2278 -0.3285
 6343TIP3    H140520   3.785   3.071  14.911  0.4673  1.8430 -1.1059
 6343TIP3    H240521   3.927   3.027  14.939 -0.5157 -0.5789  0.3833
 6344TIP3   OH240522   0.242   4.418  12.389 -0.3678  0.8119  0.5558
 6344TIP3    H140523   0.252   4.413  12.294 -0.6302  0.3410  0.5494
 6344TIP3    H240524   0.331   4.416  12.423 -0.3131 -2.5254  0.4772
 6345TIP3   OH240525   6.467   4.762   0.863 -0.1897  0.3044 -0.3556
 6345TIP3    H140526   6.414   4.688   0.834 -0.6549  0.7804 -0.7316
 6345TIP3    H240527   6.527   4.779   0.791 -0.6183  0.7972 -0.6022
 6346TIP3   OH240528   2.892   6.245  15.068  0.0102  0.5359 -0.1106
 6346TIP3    H140529   2.986   6.249  15.084 -0.2104  2.6241  1.0698
 6346TIP3    H240530   2.859   6.330  15.098 -2.3657 -0.4536  0.3303
 6347TIP3   OH240531   1.561   5.391   6.384 -0.4927 -0.1186 -0.2800
 6347TIP3    H140532   1.470   5.367   6.400 -0.4174  1.3787  3.4484
 6347TIP3    H240533   1.612   5.323   6.427  0.1458 -0.1626 -1.0771
 6348TIP3   OH240534   2.515   1.983   0.473  0.1008 -0.2414 -0.3279
 6348TIP3    H140535   2.556   2.002   0.388  1.0056  0.6010  0.2710
 6348TIP3    H240536   2.428   2.023   0.466  0.1944 -0.1074 -0.8342
 6349TIP3   OH240537   3.494   3.378   1.857 -0.4496 -0.1615 -0.4889
 6349TIP3    H140538   3.477   3.353   1.766  0.1513  0.4025 -0.7649
 6349TIP3    H240539   3.515   3.296   1.901  1.6085 -0.2045 -1.4060
 6350TIP3   OH240540   2.027   4.292   5.158 -0.3161 -0.1880  0.3438
 6350TIP3    H140541   1.943   4.253   5.131 -0.6247 -1.8444  3.2952
 6350TIP3    H240542   2.090   4.221   5.148  0.4693  0.5841 -0.3537
 6351TIP3   OH240543   5.006   1.899  11.203 -0.0579 -0.0871 -0.5719
 6351TIP3    H140544   5.070   1.940  11.145  0.0860  1.0009  0.3395
 6351TIP3    H240545   4.921   1.926  11.168  0.0404  1.7728  0.5410
 6352TIP3   OH240546   4.092   3.084   2.438 -0.2883 -0.3695  0.0004
 6352TIP3    H140547   4.048   3.020   2.493 -1.0332 -0.5884 -0.8219
 6352TIP3    H240548   4.069   3.058   2.348 -0.8120  1.1997 -0.3425
 6353TIP3   OH240549   1.727   2.230   3.033  0.1706  0.8420 -0.5170
 6353TIP3    H140550   1.688   2.273   2.956  0.3636  2.8016  0.4091
 6353TIP3    H240551   1.706   2.288   3.106  1.1803 -0.2622  0.6965
 6354TIP3   OH240552   4.877   6.415   3.741  0.1465  0.2458 -0.2736
 6354TIP3    H140553   4.970   6.398   3.757 -0.1494 -0.7330  0.5172
 6354TIP3    H240554   4.834   6.394   3.824 -0.8629  0.0061 -0.8384
 6355TIP3   OH240555   5.745   0.680  14.473  0.0788  0.1208 -0.2077
 6355TIP3    H140556   5.717   0.656  14.561 -1.0035  0.3616 -0.4718
 6355TIP3    H240557   5.734   0.775  14.469  1.7994  0.3561 -0.0394
 6356TIP3   OH240558   0.057   1.350  16.549 -0.0119 -0.2723 -0.1907
 6356TIP3    H140559  -0.022   1.403  16.555 -0.1058 -0.3951 -0.3372
 6356TIP3    H240560   0.107   1.372  16.627 -0.4919 -0.6794  0.2406
 6357TIP3   OH240561   4.679   0.592  12.870 -0.4117  0.4378 -0.1049
 6357TIP3    H140562   4.649   0.552  12.951  2.2312  0.4961  0.9993
 6357TIP3    H240563   4.672   0.687  12.886  1.1715  0.4733  0.5588
 6358TIP3   OH240564   5.545   1.387  15.738 -0.3105  0.1570  0.3079
 6358TIP3    H140565   5.565   1.472  15.778 -1.8852  0.7070  0.0088
 6358TIP3    H240566   5.450   1.390  15.722 -0.2849 -1.4094 -0.3029
 6359TIP3   OH240567   5.974   5.406   2.730 -0.4660 -0.1291  0.1467
 6359TIP3    H140568   6.044   5.370   2.784  0.9532  0.7541 -1.0165
 6359TIP3    H240569   5.899   5.349   2.746  0.7793 -1.6717  0.7214
 6360TIP3   OH240570   0.302   6.067  10.843  0.2316 -0.4213  0.1016
 6360TIP3    H140571   0.379   6.111  10.808  1.3557 -1.8131  0.6983
 6360TIP3    H240572   0.277   6.005  10.775 -1.7704  1.4983 -1.0377
 6361TIP3   OH240573   5.153   0.488   4.004  0.7501  0.4697  0.1719
 6361TIP3    H140574   5.182   0.425   4.070  1.2129  1.4875  0.9651
 6361TIP3    H240575   5.066   0.516   4.033  1.0159  1.0308  0.4476
 6362TIP3   OH240576   3.782   5.647   1.718 -0.2561 -0.1584  0.6139
 6362TIP3    H140577   3.877   5.637   1.717 -0.2543 -0.1382  0.3578
 6362TIP3    H240578   3.754   5.608   1.801 -0.1271 -1.1868  0.1981
 6363TIP3   OH240579   2.294   1.958   3.823 -0.1883  0.3502 -0.2652
 6363TIP3    H140580   2.225   1.915   3.771  0.4418 -1.2554  0.1697
 6363TIP3    H240581   2.247   2.000   3.895 -0.7270 -0.6108 -0.0440
 6364TIP3   OH240582   5.108   5.487   1.976  0.0558  0.1756  0.3148
 6364TIP3    H140583   5.015   5.472   1.959 -0.5981  1.6511  2.2649
 6364TIP3    H240584   5.151   5.466   1.893 -2.0127 -0.3887 -0.6809
 6365TIP3   OH240585   4.519   1.231  15.632  0.1411  0.4895 -0.5470
 6365TIP3    H140586   4.472   1.174  15.692  0.5599 -0.0572 -0.7275
 6365TIP3    H240587   4.611   1.202  15.637  0.3555  1.1241 -0.6647
 6366TIP3   OH240588   3.514   1.899   0.627 -0.0089 -0.0923 -0.2808
 6366TIP3    H140589   3.467   1.948   0.560 -1.8431 -0.2218  0.8414
 6366TIP3    H240590   3.538   1.964   0.692  0.2487 -0.2274 -0.2378
 6367TIP3   OH240591   2.047   0.995   4.130  0.0545 -0.5474 -0.1246
 6367TIP3    H140592   2.094   1.023   4.052  0.8397 -2.3746 -0.3519
 6367TIP3    H240593   2.066   1.063   4.195  0.5009  0.3023 -1.1119
 6368TIP3   OH240594   3.247   0.705   0.670 -0.0227 -0.3913 -0.5249
 6368TIP3    H140595   3.296   0.728   0.591  1.7541  0.3032  0.7170
 6368TIP3    H240596   3.282   0.619   0.695 -0.1753 -0.3502 -0.1727
 6369TIP3   OH240597   6.211   3.079  16.649 -0.5231  0.4187  0.0309
 6369TIP3    H140598   6.184   3.003  16.599  1.0536  0.0819 -0.3618
 6369TIP3    H240599   6.222   3.149  16.584 -0.9002  0.6769  0.2408
 6370TIP3   OH240600   0.902   2.829   2.490 -0.6874  0.0872 -0.0520
 6370TIP3    H140601   0.908   2.737   2.513 -0.0883 -0.3390 -1.8150
 6370TIP3    H240602   0.988   2.852   2.455 -0.7052  1.4288  0.6831
 6371TIP3   OH240603   4.300   4.903  13.998  0.1502 -0.1998 -0.1834
 6371TIP3    H140604   4.319   4.862  13.913 -0.0390 -1.4778  0.3620
 6371TIP3    H240605   4.212   4.938  13.988 -0.2199 -1.1111 -0.2583
 6372TIP3   OH240606   5.316   5.147  10.507  0.1961  0.0741  0.3785
 6372TIP3    H140607   5.262   5.208  10.456  0.5699  0.6659  0.6798
 6372TIP3    H240608   5.267   5.135  10.588  0.3537  0.3481  0.5142
 6373TIP3   OH240609   5.958   2.007   6.015 -0.3052  0.4182  0.7744
 6373TIP3    H140610   5.913   1.927   5.989 -1.6804  1.6655 -0.8296
 6373TIP3    H240611   5.919   2.076   5.962  0.5973  2.2397  2.3495
 6374TIP3   OH240612   4.750   1.061   4.083  0.1700 -0.5582 -0.3479
 6374TIP3    H140613   4.705   1.144   4.068  0.1189 -0.2832  1.1846
 6374TIP3    H240614   4.731   1.009   4.006  0.2322  0.8656 -1.3614
 6375TIP3   OH240615   3.027   3.384  17.173 -0.4306 -0.1753 -0.1156
 6375TIP3    H140616   3.096   3.391  17.239 -0.9843  1.6606  0.3411
 6375TIP3    H240617   2.952   3.429  17.212 -1.0346  0.2260 -1.6637
 6376TIP3   OH240618   2.835   3.442   4.730 -0.0938  0.6132 -0.1879
 6376TIP3    H140619   2.878   3.396   4.803 -0.3829  0.3032 -0.2134
 6376TIP3    H240620   2.837   3.534   4.757  0.9774  0.6646 -0.3843
 6377TIP3   OH240621   2.397   5.176   6.393 -0.5438  0.0916 -0.2565
 6377TIP3    H140622   2.354   5.148   6.473 -0.5972 -0.9478 -0.6328
 6377TIP3    H240623   2.490   5.182   6.415 -0.6332  0.4232  0.0376
 6378TIP3   OH240624   1.580   2.787   0.940 -0.8959  0.4852  0.2397
 6378TIP3    H140625   1.546   2.857   0.885 -0.4413  0.0054 -0.6718
 6378TIP3    H240626   1.509   2.723   0.944 -1.3487  1.0141  1.1532
 6379TIP3   OH240627   5.410   5.986  11.043 -0.1160  0.2839 -0.0213
 6379TIP3    H140628   5.337   6.049  11.051  0.0730  0.6017 -0.7211
 6379TIP3    H240629   5.375   5.905  11.080 -0.4764  0.7147  0.6007
 6380TIP3   OH240630   6.528   0.587  14.539  0.0066 -0.1191 -0.6360
 6380TIP3    H140631   6.456   0.557  14.484  1.2307  1.3700 -3.2396
 6380TIP3    H240632   6.582   0.509  14.554 -2.3434 -1.4172  1.9332
 6381TIP3   OH240633   4.076   0.841  14.285 -0.0081 -0.2426  0.2978
 6381TIP3    H140634   3.988   0.809  14.307 -0.6039  0.9825 -0.1930
 6381TIP3    H240635   4.085   0.822  14.192 -0.7350  1.7249 -0.2244
 6382TIP3   OH240636   4.019   0.887   0.143  0.1207 -0.3508 -0.2336
 6382TIP3    H140637   3.942   0.852   0.100 -0.9237  1.7568 -0.2156
 6382TIP3    H240638   4.052   0.953   0.082  1.8137 -1.0633 -0.1471
 6383TIP3   OH240639   2.143   4.426   3.885  0.4785 -0.0056  0.2442
 6383TIP3    H140640   2.211   4.358   3.892  0.6318  0.1827  0.6034
 6383TIP3    H240641   2.080   4.390   3.823  0.6154 -0.4339  0.3482
 6384TIP3   OH240642   5.192   3.689  15.083 -0.2462 -0.2753  0.4434
 6384TIP3    H140643   5.243   3.611  15.106  3.0149  1.2652 -0.9401
 6384TIP3    H240644   5.232   3.759  15.135  0.5502  1.3934 -2.2471
 6385TIP3   OH240645   4.339   4.142  15.708 -0.4847  0.4601 -0.2875
 6385TIP3    H140646   4.332   4.226  15.753  0.7757  0.5419 -0.2310
 6385TIP3    H240647   4.364   4.080  15.777  0.0496  0.3217 -0.6048
 6386TIP3   OH240648   3.589   1.130  15.627  0.1769  0.3883 -0.0407
 6386TIP3    H140649   3.659   1.066  15.617  0.9490  0.9670  1.3831
 6386TIP3    H240650   3.593   1.157  15.718 -1.7225  0.6718  0.0144
 6387TIP3   OH240651   4.868   4.126   2.155 -0.2782 -0.7635 -0.4978
 6387TIP3    H140652   4.787   4.177   2.164  0.2340 -0.2740  3.7737
 6387TIP3    H240653   4.839   4.035   2.154 -0.9527 -0.5914  0.9258
 6388TIP3   OH240654   2.111   5.345  13.114  0.0227 -0.1807  0.1516
 6388TIP3    H140655   2.072   5.420  13.068 -2.1520 -1.6284 -0.5261
 6388TIP3    H240656   2.171   5.384  13.177  1.0062  2.0157 -1.9634
 6389TIP3   OH240657   0.947   3.387   0.844 -0.5515  0.5984  0.1065
 6389TIP3    H140658   0.972   3.430   0.926 -2.5478  0.0667  1.0526
 6389TIP3    H240659   0.921   3.299   0.871  0.2063 -0.0981 -1.3359
 6390TIP3   OH240660   6.356   4.283  17.075 -0.3990 -0.1113 -0.4256
 6390TIP3    H140661   6.363   4.211  17.013 -1.0064  1.1738 -2.0720
 6390TIP3    H240662   6.394   4.358  17.030 -1.7907  1.1161  0.3193
 6391TIP3   OH240663   0.010   3.834  13.363 -0.1246  0.1208  0.1180
 6391TIP3    H140664  -0.071   3.885  13.363  0.7830  1.6673  1.4728
 6391TIP3    H240665   0.039   3.835  13.454  1.4483 -0.3328 -0.3448
 6392TIP3   OH240666   1.531   1.024   3.654  0.0716  0.0131 -0.1321
 6392TIP3    H140667   1.466   0.966   3.695  0.9848 -0.5171  0.6102
 6392TIP3    H240668   1.505   1.028   3.562 -0.2299 -1.2818 -0.1267
 6393TIP3   OH240669   0.693   4.390   3.760  0.1246 -0.3867  0.0075
 6393TIP3    H140670   0.694   4.452   3.687  0.2214  0.6171  0.8384
 6393TIP3    H240671   0.785   4.384   3.786 -0.0158 -0.0471  0.6028
 6394TIP3   OH240672   4.762   1.487   5.173  0.3130  0.5383 -0.1535
 6394TIP3    H140673   4.761   1.574   5.212  0.8117  0.8672 -0.8625
 6394TIP3    H240674   4.680   1.481   5.125  0.1630  0.5135  0.1013
 6395TIP3   OH240675   0.235   1.829   1.517  0.3968  0.3397 -0.2673
 6395TIP3    H140676   0.146   1.794   1.525 -0.6872  2.5757 -1.6626
 6395TIP3    H240677   0.249   1.878   1.598  1.0079 -1.1942  0.6176
 6396TIP3   OH240678   1.018   4.636  11.352  0.8399  0.5133 -0.5732
 6396TIP3    H140679   0.965   4.561  11.380  1.4436 -0.4142 -1.8407
 6396TIP3    H240680   1.073   4.656  11.428 -0.0490  0.3421  0.1313
 6397TIP3   OH240681   1.976   2.476   3.487 -0.0572  0.0735  0.4711
 6397TIP3    H140682   1.993   2.386   3.458 -0.7883  0.0097  0.2102
 6397TIP3    H240683   2.062   2.515   3.498  0.2995 -0.9487  1.5118
 6398TIP3   OH240684   2.075   2.302  11.450  0.5536  0.2374 -0.0493
 6398TIP3    H140685   2.113   2.346  11.526  0.0170 -0.6242  0.7406
 6398TIP3    H240686   1.983   2.289  11.473  0.4799 -0.4219 -0.6584
 6399TIP3   OH240687   6.754   2.968   3.454 -0.3678  0.8131  0.0288
 6399TIP3    H140688   6.839   2.929   3.472 -0.6100  0.1028 -0.3168
 6399TIP3    H240689   6.773   3.059   3.433  0.4467  0.3956 -1.1937
 6400TIP3   OH240690   0.121   1.177  14.028  0.1367 -0.2104  0.0306
 6400TIP3    H140691   0.108   1.085  14.051 -1.7536  0.1012  0.4147
 6400TIP3    H240692   0.131   1.221  14.112 -2.4362  0.3501  0.1164
 6401TIP3   OH240693   4.494   2.461  16.397 -0.7295 -0.0734 -0.0354
 6401TIP3    H140694   4.462   2.550  16.415  0.2698  0.7485 -1.9511
 6401TIP3    H240695   4.588   2.472  16.386 -0.8183 -0.9895 -2.1854
 6402TIP3   OH240696   5.225   1.596  12.734 -0.7876  0.4781  0.1672
 6402TIP3    H140697   5.259   1.654  12.803  0.6761  0.3747 -0.4219
 6402TIP3    H240698   5.302   1.547  12.705 -1.7959 -0.9624 -0.1286
 6403TIP3   OH240699   0.292   5.410  11.479  0.1611 -0.0169 -0.3836
 6403TIP3    H140700   0.279   5.501  11.504 -1.1061 -1.0480  3.4005
 6403TIP3    H240701   0.213   5.387  11.430  0.1143  0.6964 -0.6473
 6404TIP3   OH240702   4.638   3.549   0.581  1.2587  0.4663 -0.4381
 6404TIP3    H140703   4.643   3.605   0.659  1.8790 -0.0514 -0.0923
 6404TIP3    H240704   4.654   3.608   0.508 -2.4314  1.6044 -0.5098
 6405TIP3   OH240705   6.179   4.427   5.483  0.4034  0.4768 -0.6400
 6405TIP3    H140706   6.172   4.491   5.411 -1.5409  0.0955 -0.8349
 6405TIP3    H240707   6.090   4.418   5.515  0.7506 -1.6674 -0.1785
 6406TIP3   OH240708   1.248   5.517  12.112  0.1042 -0.2925  0.4849
 6406TIP3    H140709   1.318   5.490  12.171  1.4136 -1.8471 -1.6562
 6406TIP3    H240710   1.289   5.522  12.026 -2.5529 -2.3199 -1.0676
 6407TIP3   OH240711   6.230   3.612  14.862  0.2613 -0.1623 -0.0654
 6407TIP3    H140712   6.151   3.557  14.867  0.6196 -0.6902 -0.0721
 6407TIP3    H240713   6.197   3.701  14.859 -0.4340 -0.4261 -1.9660
 6408TIP3   OH240714   3.968   2.118   0.871 -0.5038 -0.4451  0.3970
 6408TIP3    H140715   3.971   2.123   0.967 -1.3875 -1.0976  0.4673
 6408TIP3    H240716   3.992   2.027   0.851 -0.0589 -0.2430 -0.0215
 6409TIP3   OH240717   3.130   5.983  15.496 -0.3941  0.5654  0.7392
 6409TIP3    H140718   3.095   5.895  15.509  0.3657  0.4856  2.3857
 6409TIP3    H240719   3.143   6.017  15.584  0.9416  1.6836  0.1340
 6410TIP3   OH240720   5.860   2.830  16.479  0.0920  0.2986  0.3018
 6410TIP3    H140721   5.952   2.820  16.505 -0.0477 -0.8801  0.3614
 6410TIP3    H240722   5.814   2.764  16.530 -0.8352  1.0181  0.4207
 6411TIP3   OH240723   2.003   0.549  14.344 -0.2261 -0.5869  0.2236
 6411TIP3    H140724   1.992   0.613  14.414  1.1186 -1.7678  1.5670
 6411TIP3    H240725   1.932   0.569  14.282 -0.5977  1.3645  1.2091
 6412TIP3   OH240726   5.937   1.361   2.378  0.9582 -0.6585  0.3316
 6412TIP3    H140727   6.029   1.384   2.396  1.5002 -2.2979 -0.1621
 6412TIP3    H240728   5.925   1.277   2.421 -0.3840 -0.3883  0.5110
 6413TIP3   OH240729   5.969   1.680  11.677 -0.2081  0.5943 -0.2171
 6413TIP3    H140730   5.884   1.657  11.716 -1.2346  2.1134 -1.4255
 6413TIP3    H240731   6.013   1.731  11.745  0.1883 -0.9905  0.7732
 6414TIP3   OH240732   4.669   2.584  11.913 -0.1315 -0.2183 -0.1253
 6414TIP3    H140733   4.719   2.515  11.871  0.2416 -0.1477  0.1976
 6414TIP3    H240734   4.662   2.556  12.005 -1.6943 -0.8190 -0.3881
 6415TIP3   OH240735   4.016   3.193  16.310 -0.7646 -0.1287  0.2244
 6415TIP3    H140736   3.975   3.106  16.316  2.3130 -1.6629  1.3456
 6415TIP3    H240737   4.055   3.194  16.223 -1.5415  0.5489 -0.1281
 6416TIP3   OH240738   6.700   4.076   5.695 -0.5886 -1.1042 -0.0867
 6416TIP3    H140739   6.746   4.027   5.627  0.4242 -2.1040  1.2436
 6416TIP3    H240740   6.751   4.155   5.707 -0.1319 -1.4434  0.2504
 6417TIP3   OH240741   3.870   0.652   0.382  0.1666 -0.4154 -0.5067
 6417TIP3    H140742   3.818   0.575   0.360  0.4410 -0.3974 -1.2475
 6417TIP3    H240743   3.939   0.619   0.441 -0.6661 -0.4338  0.4854
 6418TIP3   OH240744   5.072   3.498  13.903  0.2211  0.7836  0.0053
 6418TIP3    H140745   5.137   3.503  13.833  0.7335  0.3460  0.4374
 6418TIP3    H240746   5.021   3.420  13.883 -0.6601  1.5277 -0.7322
 6419TIP3   OH240747   2.628   6.520   5.495 -0.2688  0.1624 -1.1162
 6419TIP3    H140748   2.722   6.527   5.478 -0.4340 -0.4167 -2.3801
 6419TIP3    H240749   2.620   6.536   5.589  1.3131 -1.6109 -0.5947
 6420TIP3   OH240750   5.764   1.929   4.620 -0.2329 -0.6413  0.3251
 6420TIP3    H140751   5.736   1.991   4.553 -1.0127  0.0546  1.2603
 6420TIP3    H240752   5.859   1.930   4.616 -0.2206  0.8001  0.4592
 6421TIP3   OH240753   2.352   5.910  15.939  0.2261  0.0337  0.8422
 6421TIP3    H140754   2.331   5.903  16.033  0.9043  1.8184  1.1524
 6421TIP3    H240755   2.446   5.923  15.936  0.2860 -0.5374 -0.1371
 6422TIP3   OH240756   3.001   5.590  13.023  0.1959  0.3269 -0.2058
 6422TIP3    H140757   2.907   5.598  13.039  0.4988  0.8494  1.5225
 6422TIP3    H240758   3.034   5.541  13.099  1.2730 -0.1438 -0.9597
 6423TIP3   OH240759   5.993   4.416  14.758 -0.0966 -0.1631 -0.6611
 6423TIP3    H140760   6.064   4.389  14.700  1.2632  0.4878  0.6445
 6423TIP3    H240761   5.931   4.343  14.756  1.6033 -1.6927 -0.2218
 6424TIP3   OH240762   5.789   5.470   1.064  0.6169  0.2425 -0.1281
 6424TIP3    H140763   5.829   5.556   1.050  2.6036 -0.9118 -2.1551
 6424TIP3    H240764   5.838   5.432   1.137  1.6949 -0.2326 -1.0676
 6425TIP3   OH240765   0.898   3.928   2.835 -0.0228 -0.0949 -0.5744
 6425TIP3    H140766   0.839   3.989   2.790  2.5462  2.1390 -1.2023
 6425TIP3    H240767   0.902   3.960   2.925  0.3520 -0.1147 -0.5821
 6426TIP3   OH240768   6.726   6.134   5.518 -0.1769  0.6019 -0.1857
 6426TIP3    H140769   6.733   6.164   5.428 -3.0457 -0.0515 -0.7266
 6426TIP3    H240770   6.751   6.210   5.571  1.8236  0.9070 -1.4674
 6427TIP3   OH240771   5.081   0.031   4.231 -0.0914  0.2731 -0.5113
 6427TIP3    H140772   5.069  -0.063   4.246  0.2827  0.2222 -0.5429
 6427TIP3    H240773   5.000   0.070   4.265  0.3510  0.0791  0.8569
 6428TIP3   OH240774   3.197   6.580  15.412 -0.1188  0.0659  0.0786
 6428TIP3    H140775   3.240   6.496  15.394 -0.3291  0.1869 -1.0833
 6428TIP3    H240776   3.260   6.646  15.381 -0.7460  0.2661 -0.8250
 6429TIP3   OH240777   4.364   3.283   4.009 -0.9870  0.2060 -0.1854
 6429TIP3    H140778   4.341   3.199   4.049 -0.4421  0.1493  0.0174
 6429TIP3    H240779   4.329   3.278   3.920  0.7804 -1.0609 -0.8688
 6430TIP3   OH240780   1.363   2.027  14.397  0.1089 -0.1451  0.0144
 6430TIP3    H140781   1.373   2.001  14.488  0.7443  0.0498  0.0090
 6430TIP3    H240782   1.438   1.988  14.352 -0.2533 -0.3281 -0.4491
 6431TIP3   OH240783   3.639   4.016   0.413 -0.1721 -0.2423 -0.0186
 6431TIP3    H140784   3.648   3.922   0.429  1.2781 -0.2686 -0.8091
 6431TIP3    H240785   3.551   4.037   0.443 -0.0055 -1.5675  1.5471
 6432TIP3   OH240786   6.029   5.802  12.492  0.4807  0.0385 -0.0194
 6432TIP3    H140787   6.026   5.708  12.504 -1.4472  0.0220 -0.2914
 6432TIP3    H240788   5.986   5.817  12.408  3.0016  1.0124 -1.2579
 6433TIP3   OH240789   1.086   3.679  14.862 -0.4265 -0.5249  0.5076
 6433TIP3    H140790   1.074   3.673  14.767  1.6767 -3.6379  0.3051
 6433TIP3    H240791   0.998   3.679  14.898 -1.2403 -0.5481 -1.4007
 6434TIP3   OH240792   0.954   3.109   4.375 -0.1639  0.0054 -0.4788
 6434TIP3    H140793   0.929   3.187   4.425  0.5132 -0.4930  0.6971
 6434TIP3    H240794   1.039   3.131   4.337  0.2093 -0.2872  0.1749
 6435TIP3   OH240795   2.654   5.579   1.210 -0.2362 -0.0314  0.1335
 6435TIP3    H140796   2.562   5.555   1.199  0.2703 -1.7640 -0.6701
 6435TIP3    H240797   2.694   5.555   1.127  1.8095 -3.6933  1.9661
 6436TIP3   OH240798   5.553   4.576  11.896 -0.5572  0.8218 -0.1698
 6436TIP3    H140799   5.570   4.665  11.926 -1.2217  1.3093 -1.1880
 6436TIP3    H240800   5.460   4.562  11.914 -0.4387  0.2938  0.0580
 6437TIP3   OH240801   5.433   5.944  16.789 -0.0078 -0.3056  0.7651
 6437TIP3    H140802   5.392   6.023  16.824  1.0666  0.4463  0.3927
 6437TIP3    H240803   5.369   5.908  16.728 -0.2882  0.5979  0.5220
 6438TIP3   OH240804   1.890   2.727  16.944 -0.5360 -0.4629 -0.5554
 6438TIP3    H140805   1.910   2.749  16.854 -1.2878  2.4393 -0.1216
 6438TIP3    H240806   1.797   2.745  16.953 -0.4127 -0.4124  0.8764
 6439TIP3   OH240807   1.605   4.331  14.622 -0.3786 -0.6291  1.2390
 6439TIP3    H140808   1.519   4.291  14.615  0.3971 -2.1185 -0.7588
 6439TIP3    H240809   1.595   4.418  14.585 -0.5116 -1.7874 -1.7010
 6440TIP3   OH240810   0.108   4.249  14.884 -0.2249 -0.1927  0.6595
 6440TIP3    H140811   0.020   4.217  14.902 -0.9654  1.1530 -0.4041
 6440TIP3    H240812   0.130   4.210  14.799  0.0355 -0.1665  0.7147
 6441TIP3   OH240813   3.224   2.964  15.779 -0.0197  0.0354  0.0421
 6441TIP3    H140814   3.303   2.966  15.725 -1.5147  0.8240 -2.2972
 6441TIP3    H240815   3.249   2.915  15.857  2.5229 -0.4354 -0.9687
 6442TIP3   OH240816   3.498   3.724   5.286 -0.3723 -0.3825 -0.7159
 6442TIP3    H140817   3.560   3.717   5.358 -1.2013 -0.8528 -0.0390
 6442TIP3    H240818   3.541   3.679   5.213  0.5090  0.1828 -0.5628
 6443TIP3   OH240819   2.444   4.669  12.248 -0.1346 -0.7102  0.3551
 6443TIP3    H140820   2.433   4.579  12.279  2.9611 -1.4884 -0.5471
 6443TIP3    H240821   2.466   4.719  12.327 -5.8137  0.4087  1.7441
 6444TIP3   OH240822   5.219   5.417   4.436 -0.0656 -0.0425 -0.3839
 6444TIP3    H140823   5.125   5.401   4.445 -0.3696  0.1786 -2.6492
 6444TIP3    H240824   5.239   5.484   4.502 -1.8664  1.1914 -1.0381
 6445TIP3   OH240825   6.596   5.973   4.699 -0.8197  0.3873  0.1830
 6445TIP3    H140826   6.545   5.988   4.619 -1.7621 -0.9737  0.4975
 6445TIP3    H240827   6.653   5.899   4.678  3.7280  3.8211 -1.3322
 6446TIP3   OH240828   2.821   1.983  12.960 -0.3985  0.0506  0.2565
 6446TIP3    H140829   2.847   1.985  12.868 -1.6667  1.0449 -0.1256
 6446TIP3    H240830   2.902   1.972  13.009  0.3510  0.0617 -0.9666
 6447TIP3   OH240831   5.651   6.677   5.451  0.3249  0.3176 -0.1654
 6447TIP3    H140832   5.721   6.742   5.451  0.8491 -0.2438 -0.3299
 6447TIP3    H240833   5.639   6.655   5.544  1.7462 -1.0462 -0.2779
 6448TIP3   OH240834   1.307   3.690  13.807 -0.5945  0.3919  0.7661
 6448TIP3    H140835   1.329   3.777  13.774  0.0235  0.4472  1.2886
 6448TIP3    H240836   1.341   3.689  13.897 -0.3778 -0.4646  0.6922
 6449TIP3   OH240837   4.667   5.982  13.192  0.1711  0.2847  0.1123
 6449TIP3    H140838   4.626   5.929  13.260 -2.0203 -0.7280 -1.8673
 6449TIP3    H240839   4.666   6.071  13.227 -0.7242 -0.2354  1.4759
 6450TIP3   OH240840   0.166   1.740   4.853 -0.4481 -0.5468 -0.5990
 6450TIP3    H140841   0.252   1.718   4.887  0.0844 -0.3302 -1.7741
 6450TIP3    H240842   0.168   1.714   4.761 -2.3114 -2.3972 -0.2049
 6451TIP3   OH240843   2.670   5.623  16.054  0.2207  0.4025  0.5729
 6451TIP3    H140844   2.598   5.685  16.064 -1.9293 -1.8228 -0.1807
 6451TIP3    H240845   2.641   5.563  15.986  2.7021 -0.7629  0.4344
 6452TIP3   OH240846   2.495   3.019   2.833  0.2502 -0.9005 -0.2332
 6452TIP3    H140847   2.503   2.937   2.784 -0.9856 -1.4698  0.4868
 6452TIP3    H240848   2.446   3.077   2.774 -1.3955 -1.6445  0.3473
 6453TIP3   OH240849   4.360   3.908   2.373  0.0026 -0.5656  0.5010
 6453TIP3    H140850   4.363   3.850   2.449  1.3166 -0.0865  0.8366
 6453TIP3    H240851   4.450   3.938   2.362 -0.5041  0.8083 -0.1340
 6454TIP3   OH240852   4.624   6.461  16.543  0.0252  0.5713 -0.0745
 6454TIP3    H140853   4.613   6.446  16.637  0.9743 -0.1833 -0.0724
 6454TIP3    H240854   4.628   6.373  16.505 -2.8471  0.8170 -1.1606
 6455TIP3   OH240855   5.826   0.050   3.826  0.7899 -0.4256  0.1476
 6455TIP3    H140856   5.834   0.058   3.921 -1.9216  1.9115  0.2968
 6455TIP3    H240857   5.839  -0.043   3.808  1.2342 -0.9386  2.8008
 6456TIP3   OH240858   1.296   5.944   5.451 -0.5324  0.3755 -0.5970
 6456TIP3    H140859   1.329   5.878   5.390 -1.3258 -0.0034 -0.6261
 6456TIP3    H240860   1.241   5.895   5.512 -0.7513  0.9412 -0.3374
 6457TIP3   OH240861   0.550   3.169  17.033  0.0922  0.5878  0.0834
 6457TIP3    H140862   0.610   3.127  17.094  1.1672  2.3982  0.3500
 6457TIP3    H240863   0.478   3.107  17.023  0.9149 -0.6618  1.5304
 6458TIP3   OH240864   0.671   4.119  11.465  0.5855  0.4438 -0.1995
 6458TIP3    H140865   0.622   4.181  11.411 -0.2740 -0.9610 -1.0936
 6458TIP3    H240866   0.721   4.068  11.402  1.3905  0.3090  0.5418
 6459TIP3   OH240867   2.552   6.750  11.597 -0.3677 -0.2836 -0.3577
 6459TIP3    H140868   2.610   6.760  11.673 -0.4308  0.4797 -0.4019
 6459TIP3    H240869   2.544   6.656  11.586  0.0504 -0.4042  0.2761
 6460TIP3   OH240870   6.718   6.260   5.297  0.8443 -0.2117  0.1419
 6460TIP3    H140871   6.797   6.294   5.255 -0.5826  2.2940 -0.7381
 6460TIP3    H240872   6.646   6.301   5.249 -0.9425  0.3083  3.0470
 6461TIP3   OH240873   5.080   5.314   5.835  0.3405  0.3300  0.3988
 6461TIP3    H140874   5.140   5.389   5.826 -1.1204  1.4525 -0.4055
 6461TIP3    H240875   5.005   5.350   5.883 -0.9775 -0.2258 -1.1542
 6462TIP3   OH240876   6.301   5.312  15.883  0.5259 -0.0163 -0.5923
 6462TIP3    H140877   6.245   5.254  15.935  0.2155  1.6368  1.0419
 6462TIP3    H240878   6.389   5.277  15.894 -0.0338 -2.5360 -3.0353
 6463TIP3   OH240879   3.969   2.035  15.197  0.0020  0.0944 -0.1007
 6463TIP3    H140880   3.886   2.020  15.150 -0.0812 -2.3120  0.6672
 6463TIP3    H240881   3.942   2.074  15.280 -0.2358  0.5475 -0.3867
 6464TIP3   OH240882   2.097   1.425   5.825 -0.3040 -0.0749  0.9083
 6464TIP3    H140883   2.030   1.393   5.886  1.0884 -1.4036  1.8221
 6464TIP3    H240884   2.120   1.512   5.858 -1.2618  0.2116  0.8396
 6465TIP3   OH240885   1.995   5.244   2.032 -0.1699  0.7458  0.2785
 6465TIP3    H140886   1.950   5.314   1.985  0.0599  1.7304  1.4637
 6465TIP3    H240887   1.929   5.175   2.041 -0.7158  1.2124 -0.0310
 6466TIP3   OH240888   5.280   4.799  11.640 -0.5740  0.3097  0.0689
 6466TIP3    H140889   5.372   4.772  11.638 -0.1546  1.6839 -0.9412
 6466TIP3    H240890   5.232   4.721  11.613  0.3959 -0.1232 -0.4859
 6467TIP3   OH240891   1.735   2.724   4.701  0.0626  0.0985  0.4903
 6467TIP3    H140892   1.727   2.628   4.702  0.7612  0.0290  0.1287
 6467TIP3    H240893   1.700   2.752   4.786 -0.0506 -0.4870  0.6417
 6468TIP3   OH240894   0.192   6.047   0.286  0.2292 -0.2304  0.5219
 6468TIP3    H140895   0.126   6.088   0.230 -0.0609  1.5617  2.0652
 6468TIP3    H240896   0.248   5.998   0.225 -0.7656  0.6244 -1.1684
 6469TIP3   OH240897   3.944   4.360   5.901 -0.5876 -0.3750  0.0271
 6469TIP3    H140898   3.999   4.324   5.971  1.1164  0.5552 -0.7760
 6469TIP3    H240899   3.868   4.397   5.947 -0.1571 -0.9680  1.2512
 6470TIP3   OH240900   0.211   1.919  14.673 -0.2326  0.3938  0.0352
 6470TIP3    H140901   0.297   1.957  14.654 -0.3147  0.3805 -0.3905
 6470TIP3    H240902   0.169   1.914  14.587 -1.0002  1.2254  0.3489
 6471TIP3   OH240903   1.401   5.574   0.231 -0.2268 -0.1805 -0.4390
 6471TIP3    H140904   1.365   5.642   0.174 -0.9435 -0.3208 -0.1658
 6471TIP3    H240905   1.329   5.553   0.291 -0.2295 -1.6540 -0.9397
 6472TIP3   OH240906   6.021   0.980  16.368 -0.1321  0.3807 -0.7018
 6472TIP3    H140907   6.099   0.950  16.416  0.7634 -0.3507 -2.5334
 6472TIP3    H240908   5.961   0.906  16.373  0.0828  0.1859 -0.9448
 6473TIP3   OH240909   5.493   2.666  12.013  0.4103 -0.2227 -0.1150
 6473TIP3    H140910   5.522   2.744  11.966 -2.8849 -0.3063 -2.6793
 6473TIP3    H240911   5.434   2.699  12.081  0.6762 -0.4176  0.2177
 6474TIP3   OH240912   6.647   4.613  16.465 -0.1961 -0.1094 -0.4353
 6474TIP3    H140913   6.564   4.604  16.511  1.3499  0.1488  2.6919
 6474TIP3    H240914   6.651   4.706  16.442 -0.1396  0.2156  0.8114
 6475TIP3   OH240915   5.689   1.770   0.875 -0.4203 -0.7674 -0.3108
 6475TIP3    H140916   5.691   1.758   0.780 -0.3698  1.0687 -0.5877
 6475TIP3    H240917   5.781   1.776   0.901 -0.3793 -2.6183  0.0921
 6476TIP3   OH240918   2.974   6.613  16.586 -0.2666  0.0020 -0.0997
 6476TIP3    H140919   3.018   6.610  16.501  0.0781  0.5361  0.0561
 6476TIP3    H240920   3.045   6.624  16.649 -0.6576  1.7440  0.0880
 6477TIP3   OH240921   5.297   1.571  15.986 -0.1497  0.2800  0.0385
 6477TIP3    H140922   5.345   1.543  16.064 -0.2621 -0.5855 -0.1926
 6477TIP3    H240923   5.359   1.624  15.937 -0.5197  2.0740  1.4063
 6478TIP3   OH240924   1.203   1.290  14.937 -0.0062 -0.5083  0.4191
 6478TIP3    H140925   1.128   1.242  14.901 -1.0233 -1.0163  2.9773
 6478TIP3    H240926   1.226   1.242  15.016  0.7506  1.6506  1.5834
 6479TIP3   OH240927   3.986   0.721  10.742  0.8674  0.0875  0.6977
 6479TIP3    H140928   3.973   0.626  10.740  1.7634 -0.0340 -0.6669
 6479TIP3    H240929   3.918   0.755  10.684 -0.0081  0.3834  1.8572
 6480TIP3   OH240930   4.914   3.798  13.659 -0.5206 -0.0066  0.5506
 6480TIP3    H140931   4.970   3.738  13.611 -0.0470 -0.7011  1.9058
 6480TIP3    H240932   4.850   3.742  13.703 -0.1249  0.4497  1.7696
 6481TIP3   OH240933   3.416   6.117  14.588 -0.0055 -0.1055  0.1504
 6481TIP3    H140934   3.334   6.157  14.558  0.6296  0.3278 -1.0733
 6481TIP3    H240935   3.416   6.129  14.683 -1.1984  0.1925  0.1236
 6482TIP3   OH240936   6.061   5.386   4.971 -0.2833 -0.2031 -0.0004
 6482TIP3    H140937   6.118   5.462   4.978  0.4747 -0.7516 -0.0793
 6482TIP3    H240938   6.120   5.311   4.974 -1.0048 -0.7906 -0.0420
 6483TIP3   OH240939   5.088   3.140  13.486  0.0076  0.9059 -0.0902
 6483TIP3    H140940   5.158   3.076  13.494  0.3459  1.3295  0.4048
 6483TIP3    H240941   5.034   3.108  13.413  0.9439  0.7922 -0.7484
 6484TIP3   OH240942   2.738   1.047  13.783  0.2157  0.1831  0.1910
 6484TIP3    H140943   2.760   1.124  13.836  0.0878  0.3668 -0.0214
 6484TIP3    H240944   2.676   1.080  13.718  0.1070 -0.1151  0.1429
 6485TIP3   OH240945   4.234   5.045   4.850  0.0012  0.2498 -0.2886
 6485TIP3    H140946   4.304   5.008   4.797 -0.7203 -0.2325 -0.9193
 6485TIP3    H240947   4.279   5.087   4.923  0.9553  0.1327 -0.7975
 6486TIP3   OH240948   4.609   6.484   5.660  0.5706 -0.4050  0.0693
 6486TIP3    H140949   4.581   6.570   5.692  0.3349  1.2867 -4.0153
 6486TIP3    H240950   4.702   6.497   5.638  0.1955 -0.6699 -1.8425
 6487TIP3   OH240951   4.262   2.882  14.919  0.3582  0.5100 -0.5192
 6487TIP3    H140952   4.306   2.956  14.878  1.6489 -0.7581 -1.5090
 6487TIP3    H240953   4.193   2.922  14.973  0.6173  2.3778 -1.4940
 6488TIP3   OH240954   1.931   3.840  13.022 -0.0539 -0.1283  0.0796
 6488TIP3    H140955   1.955   3.848  13.115 -0.2182  0.5705  0.0683
 6488TIP3    H240956   1.926   3.931  12.991 -0.7192 -0.3315 -0.4268
 6489TIP3   OH240957   0.095   2.244  15.180  0.3640 -0.0099  0.3343
 6489TIP3    H140958   0.106   2.158  15.138 -0.2622  0.6170 -1.1704
 6489TIP3    H240959   0.180   2.287  15.168  0.3287 -0.0054  0.0862
 6490TIP3   OH240960   4.119   2.696   0.328 -0.3085  0.4639 -0.0897
 6490TIP3    H140961   4.060   2.684   0.401 -2.9863  0.0289 -2.1661
 6490TIP3    H240962   4.109   2.788   0.304 -1.2167  0.1062 -1.2180
 6491TIP3   OH240963   4.234   5.535   1.269 -0.1803  0.3829 -0.2559
 6491TIP3    H140964   4.234   5.511   1.362 -1.8810  0.4182 -0.2094
 6491TIP3    H240965   4.156   5.589   1.259  0.3996  1.0101 -1.5693
 6492TIP3   OH240966   2.252   4.036  16.716 -0.3576 -0.3868  0.0762
 6492TIP3    H140967   2.165   4.035  16.756 -0.4617 -0.8793 -0.1405
 6492TIP3    H240968   2.308   3.992  16.779 -0.7649 -2.2773 -0.7890
 6493TIP3   OH240969   1.148   3.703   0.793  0.2453 -0.3326  0.3596
 6493TIP3    H140970   1.194   3.619   0.804  0.0002 -0.3375  1.4713
 6493TIP3    H240971   1.102   3.694   0.709 -0.2518 -1.5452  0.7389
 6494TIP3   OH240972   3.523   2.686  13.526  0.0150  0.0003 -0.1780
 6494TIP3    H140973   3.505   2.607  13.578 -1.2811 -0.8433 -1.8097
 6494TIP3    H240974   3.460   2.751  13.560 -2.2336 -1.1425 -1.8809
 6495TIP3   OH240975   1.746   5.962   1.555 -0.4718 -0.1521 -0.3176
 6495TIP3    H140976   1.718   5.971   1.647 -0.5794 -1.9078 -0.1542
 6495TIP3    H240977   1.830   6.008   1.552  0.0951 -1.0520  0.9543
 6496TIP3   OH240978   3.715   2.296  16.882 -0.2676 -0.5658 -0.7630
 6496TIP3    H140979   3.711   2.201  16.892  0.2392 -0.4299  1.2986
 6496TIP3    H240980   3.625   2.326  16.899 -0.3227 -0.6433 -0.9199
 6497TIP3   OH240981   5.285   0.098   5.320 -0.2998 -0.0535 -0.0296
 6497TIP3    H140982   5.248   0.105   5.232  0.8133  0.0832 -0.5044
 6497TIP3    H240983   5.221   0.141   5.376  0.6703  3.2933 -1.2747
 6498TIP3   OH240984   1.419   1.291   1.237 -0.1273  0.3338 -0.2332
 6498TIP3    H140985   1.365   1.343   1.297 -1.9294 -3.3884  1.7465
 6498TIP3    H240986   1.496   1.267   1.289 -0.1476 -0.3087 -0.4890
 6499TIP3   OH240987   0.198   5.140   2.701 -0.0096 -0.7098 -0.1220
 6499TIP3    H140988   0.244   5.059   2.677 -0.0841 -0.9228  0.4496
 6499TIP3    H240989   0.207   5.195   2.624  1.3629 -0.6856  0.0217
 6500TIP3   OH240990   3.867   0.703  11.499 -0.1403  0.0581  0.2025
 6500TIP3    H140991   3.843   0.615  11.469  0.9382 -0.2343  0.1664
 6500TIP3    H240992   3.798   0.727  11.560  0.2439 -1.3708  1.2409
 6501TIP3   OH240993   6.410   4.808   1.142  0.0626 -0.5581  0.5499
 6501TIP3    H140994   6.376   4.898   1.137  2.4255  0.3853 -0.3699
 6501TIP3    H240995   6.411   4.778   1.051  1.3915 -0.6243  0.5638
 6502TIP3   OH240996   4.446   1.458   3.735 -0.4980  0.0803 -0.1885
 6502TIP3    H140997   4.411   1.405   3.806  0.5620 -0.1467  0.1817
 6502TIP3    H240998   4.417   1.547   3.755 -0.2243  0.0167  0.5153
 6503TIP3   OH240999   5.822   1.825  14.663  0.1699 -0.2868 -0.5424
 6503TIP3    H141000   5.911   1.858  14.652  0.1322 -0.0142 -0.0637
 6503TIP3    H241001   5.833   1.732  14.681  0.4266 -0.0588  0.5418
 6504TIP3   OH241002   6.221   2.557   0.770  0.0846 -0.1697 -0.1907
 6504TIP3    H141003   6.248   2.626   0.832 -1.0821  0.4923 -0.4019
 6504TIP3    H241004   6.245   2.591   0.684  1.1521 -0.8311 -0.1772
 6505TIP3   OH241005   0.783   2.879   0.525 -0.5851 -0.1668 -0.6891
 6505TIP3    H141006   0.764   2.812   0.459 -1.2379 -0.3113 -0.3615
 6505TIP3    H241007   0.711   2.873   0.587  0.0333 -0.0395  0.0549
 6506TIP3   OH241008   5.878   4.075   4.778  0.3038 -0.2078  0.7132
 6506TIP3    H141009   5.911   4.156   4.738 -1.9528  1.0499  1.2343
 6506TIP3    H241010   5.897   4.085   4.872  1.1978 -0.9144  0.6209
 6507TIP3   OH241011   3.025   6.459   3.554 -0.3142 -0.4963  0.2577
 6507TIP3    H141012   3.041   6.531   3.494 -0.4697  0.4610  1.3351
 6507TIP3    H241013   3.113   6.432   3.583 -0.2963 -0.1747  0.5033
 6508TIP3   OH241014   6.737   3.228  13.532  0.2353  0.0622 -0.7820
 6508TIP3    H141015   6.818   3.264  13.568  0.8959 -0.7470 -1.4017
 6508TIP3    H241016   6.710   3.291  13.465 -0.1341  0.7705  0.0147
 6509TIP3   OH241017   3.133   5.473   1.130 -0.2509 -0.2736  0.1506
 6509TIP3    H141018   3.142   5.432   1.216  2.0806 -1.4253 -0.5594
 6509TIP3    H241019   3.182   5.555   1.138  0.5179 -0.6799 -0.2105
 6510TIP3   OH241020   5.179   0.145   2.505 -0.1459  0.0122 -0.6359
 6510TIP3    H141021   5.135   0.130   2.588 -0.0345  2.2914 -0.0994
 6510TIP3    H241022   5.211   0.236   2.510  0.1836  0.1055 -3.0061
 6511TIP3   OH241023   3.068   4.453  10.663  0.1851  0.3911  0.2629
 6511TIP3    H141024   3.051   4.547  10.671 -0.0411  0.3564  0.2014
 6511TIP3    H241025   3.006   4.412  10.724  0.2423  0.2786  0.2468
 6512TIP3   OH241026   6.338   1.924   2.086 -0.6011 -0.0544  0.1928
 6512TIP3    H141027   6.278   1.884   2.023 -0.3946 -0.9319  0.5517
 6512TIP3    H241028   6.314   1.887   2.170  1.3187 -1.5177  0.1686
 6513TIP3   OH241029   0.395   2.114   0.338  0.1995  0.6342  0.0779
 6513TIP3    H141030   0.398   2.191   0.282  0.3171 -0.4009 -1.4097
 6513TIP3    H241031   0.326   2.132   0.402 -0.6924  1.4219 -1.0863
 6514TIP3   OH241032   3.315   1.156  12.944  0.6494  0.0339  0.4629
 6514TIP3    H141033   3.231   1.144  12.988  0.4958  2.7611  1.0934
 6514TIP3    H241034   3.376   1.179  13.014  1.8094 -1.2685 -0.0674
 6515TIP3   OH241035   5.041   0.290  16.112  0.6024  0.0975  0.2219
 6515TIP3    H141036   5.098   0.339  16.053 -1.4912  1.3694 -0.8537
 6515TIP3    H241037   5.097   0.268  16.187  2.6221  0.7525 -1.0203
 6516TIP3   OH241038   3.157   6.647   3.054 -0.3740  0.1700  0.1300
 6516TIP3    H141039   3.088   6.589   3.024 -1.5987  1.1153  1.0072
 6516TIP3    H241040   3.127   6.735   3.029  0.3137  0.6282  0.8495
 6517TIP3   OH241041   1.888   0.716  10.511  0.0373  0.5630 -0.3761
 6517TIP3    H141042   1.833   0.785  10.474  0.3931  0.5595 -0.9178
 6517TIP3    H241043   1.970   0.722  10.463  0.2599  0.1052 -0.0612
 6518TIP3   OH241044   1.366   1.289  15.800  0.6228 -0.0949 -0.1051
 6518TIP3    H141045   1.359   1.312  15.893 -2.5245 -1.7573  0.2131
 6518TIP3    H241046   1.339   1.369  15.754 -0.1374  0.0373  0.5406
 6519TIP3   OH241047   6.322   0.344   2.741  0.1484 -0.1328 -0.6175
 6519TIP3    H141048   6.342   0.394   2.820  0.8768  1.1844 -1.6031
 6519TIP3    H241049   6.404   0.298   2.721 -0.5476 -1.8884  0.3478
 6520TIP3   OH241050   6.164   6.097  12.504  0.0175  0.1296  0.0553
 6520TIP3    H141051   6.257   6.108  12.521  0.5001 -0.4020 -1.9642
 6520TIP3    H241052   6.155   6.006  12.476 -1.0668  0.2601 -0.0698
 6521TIP3   OH241053   4.320   6.317   2.126 -0.0941 -0.0160  0.1526
 6521TIP3    H141054   4.244   6.323   2.183  0.8123  0.9063  1.3201
 6521TIP3    H241055   4.285   6.329   2.038 -1.1265  1.9411  0.7796
 6522TIP3   OH241056   3.916   3.165  11.996  0.2697  0.2092 -0.4657
 6522TIP3    H141057   3.989   3.192  12.051  0.9726  0.2682 -1.4130
 6522TIP3    H241058   3.932   3.072  11.977  0.3333  0.3289 -1.0232
 6523TIP3   OH241059   3.463   3.454   5.587 -0.1550  0.3825  0.9112
 6523TIP3    H141060   3.504   3.539   5.571 -1.7951  1.0308 -0.1359
 6523TIP3    H241061   3.468   3.409   5.503  0.1107 -0.2944  1.2826
 6524TIP3   OH241062   1.259   3.964   6.205  0.3949  0.0244 -0.0472
 6524TIP3    H141063   1.352   3.974   6.227  0.5691 -1.9097  0.2790
 6524TIP3    H241064   1.259   3.946   6.111  0.4833 -1.1691  0.1643
 6525TIP3   OH241065   0.580   3.726   4.261 -0.1294 -0.5522 -0.2580
 6525TIP3    H141066   0.492   3.702   4.288  0.2578  1.2322  3.1609
 6525TIP3    H241067   0.617   3.646   4.224 -2.2732 -2.1102  0.7632
 6526TIP3   OH241068   1.641   1.232  12.364  0.3664 -0.0288  0.0151
 6526TIP3    H141069   1.696   1.291  12.312  0.3668 -1.5400 -1.8011
 6526TIP3    H241070   1.617   1.284  12.442  2.5309  1.4228 -0.1908
 6527TIP3   OH241071   1.728   1.891  11.792  0.1335  0.4160 -0.2040
 6527TIP3    H141072   1.744   1.809  11.744 -1.2285 -0.0356  0.0785
 6527TIP3    H241073   1.770   1.958  11.739 -0.1352 -0.2578 -1.2972
 6528TIP3   OH241074   6.121   3.176  11.125  0.5129  0.1705 -0.1300
 6528TIP3    H141075   6.114   3.097  11.072  0.3305  1.0091 -1.4155
 6528TIP3    H241076   6.090   3.246  11.067  2.2573  1.4288  0.3631
 6529TIP3   OH241077   4.344   5.804   3.789  0.3539  0.0007 -0.3994
 6529TIP3    H141078   4.418   5.796   3.729 -0.7944 -0.0034 -1.8726
 6529TIP3    H241079   4.281   5.859   3.743 -1.3982 -1.6027 -0.0695
 6530TIP3   OH241080   5.692   4.868  12.140 -0.1933  0.3538 -0.0470
 6530TIP3    H141081   5.770   4.814  12.153  0.5591  1.6126  0.9707
 6530TIP3    H241082   5.626   4.829  12.196 -0.6687 -1.3330 -1.6751
 6531TIP3   OH241083   0.207   3.678   2.135 -0.9814 -0.1534  0.5121
 6531TIP3    H141084   0.214   3.707   2.226 -0.2572  2.3707 -0.2637
 6531TIP3    H241085   0.275   3.611   2.126 -0.4218  0.2410  1.6022
 6532TIP3   OH241086   4.993   4.666  16.672 -0.2845  0.4290  0.8419
 6532TIP3    H141087   5.002   4.571  16.679 -0.3893  0.2701 -0.7700
 6532TIP3    H241088   5.023   4.700  16.756  2.2022 -0.8704  0.5530
 6533TIP3   OH241089   5.545   5.249  15.705 -0.1298 -0.1088 -0.3237
 6533TIP3    H141090   5.501   5.192  15.769 -1.1075 -0.1162 -0.9832
 6533TIP3    H241091   5.497   5.236  15.624 -0.4108  1.6874 -0.4921
 6534TIP3   OH241092   0.017   0.342   6.236 -0.0814  0.0662 -0.2690
 6534TIP3    H141093  -0.009   0.427   6.201  1.0837  0.2204 -0.7856
 6534TIP3    H241094  -0.063   0.307   6.276 -0.8131  0.9618 -0.9278
 6535TIP3   OH241095   6.080   6.085   0.793 -0.2979 -0.1696  0.1046
 6535TIP3    H141096   6.050   6.060   0.706 -0.7607 -1.4108  0.6093
 6535TIP3    H241097   6.113   6.174   0.782  0.0941 -0.4839 -1.4359
 6536TIP3   OH241098   0.168   4.107  10.802 -0.1534 -0.2665 -0.1202
 6536TIP3    H141099   0.178   4.084  10.895  3.6925  0.6149 -0.1460
 6536TIP3    H241100   0.155   4.023  10.758 -0.8460 -0.8264  1.1029
 6537TIP3   OH241101   6.558   0.582  11.120  0.4874 -0.1293 -0.1399
 6537TIP3    H141102   6.536   0.669  11.153  0.2556 -0.0877 -0.4073
 6537TIP3    H241103   6.475   0.535  11.118  0.2333  0.3316 -2.0441
 6538TIP3   OH241104   0.342   5.304   0.803  0.4009  0.1400  0.0415
 6538TIP3    H141105   0.337   5.320   0.709 -1.0428 -0.4473 -0.0144
 6538TIP3    H241106   0.345   5.392   0.842  0.5839  0.3950 -0.5445
 6539TIP3   OH241107   5.762   5.404   0.589 -0.3049 -0.1975  0.4794
 6539TIP3    H141108   5.745   5.348   0.665 -0.1641 -0.1035  0.5811
 6539TIP3    H241109   5.797   5.345   0.523 -1.0779 -0.4045  0.2468
 6540TIP3   OH241110   4.526   4.857   1.138 -0.0893  0.0085  0.0325
 6540TIP3    H141111   4.554   4.920   1.071  0.0071 -0.0824 -0.0131
 6540TIP3    H241112   4.453   4.900   1.182  0.1764  0.2849  0.2065
 6541TIP3   OH241113   6.742   6.166  12.436 -0.5604 -0.3481 -0.5414
 6541TIP3    H141114   6.649   6.157  12.455  0.0703 -1.4682  2.6658
 6541TIP3    H241115   6.772   6.076  12.423  0.1775 -0.0438 -0.9940
 6542TIP3   OH241116   3.274   0.214   3.197  0.8910 -0.4960  0.4323
 6542TIP3    H141117   3.179   0.198   3.200  0.5567  1.1573 -0.1009
 6542TIP3    H241118   3.312   0.137   3.238 -0.6254 -1.7268 -0.3480
 6543TIP3   OH241119   4.739   2.726  17.130  0.1769 -0.1576 -0.1774
 6543TIP3    H141120   4.691   2.759  17.054 -1.2893  0.7087  1.0852
 6543TIP3    H241121   4.803   2.665  17.092  0.7667  1.6389 -2.2690
 6544TIP3   OH241122   3.791   1.662   0.845  0.4538 -0.0499  0.3927
 6544TIP3    H141123   3.716   1.602   0.842 -0.8121  1.4731 -0.3771
 6544TIP3    H241124   3.863   1.614   0.805 -0.6996 -0.8375 -0.8006
 6545TIP3   OH241125   0.178   6.324  16.094  0.9565 -0.1198 -0.7810
 6545TIP3    H141126   0.140   6.292  16.013 -0.1467  0.4827 -0.5108
 6545TIP3    H241127   0.163   6.253  16.157 -1.2384  0.7528 -0.2519
 6546TIP3   OH241128   2.337   6.613   4.902  0.3204 -0.9805  0.4481
 6546TIP3    H141129   2.269   6.662   4.949  1.4619  0.0217  1.1000
 6546TIP3    H241130   2.384   6.565   4.969  1.3622 -0.2782  0.2445
 6547TIP3   OH241131   1.594   6.801  10.459  0.1812  0.0418  0.2080
 6547TIP3    H141132   1.536   6.877  10.462 -0.0283  0.0122 -1.7239
 6547TIP3    H241133   1.642   6.803  10.542 -0.8144  1.4747  0.7748
 6548TIP3   OH241134   2.614   1.437   5.340 -0.1734  0.7004 -0.4811
 6548TIP3    H141135   2.694   1.432   5.287 -0.2492  0.7004 -0.5939
 6548TIP3    H241136   2.645   1.424   5.430  0.0884  1.7107 -0.4127
 6549TIP3   OH241137   4.239   4.257   4.928 -0.0347 -0.2688  0.5831
 6549TIP3    H141138   4.160   4.220   4.967  0.6223  1.0841  3.4621
 6549TIP3    H241139   4.215   4.346   4.904  0.0842 -0.5171 -0.5166
 6550TIP3   OH241140   5.453   6.665  12.438 -0.2477 -0.3778  0.7433
 6550TIP3    H141141   5.442   6.629  12.526 -0.5753 -1.5265  0.2516
 6550TIP3    H241142   5.536   6.629  12.408 -0.2593 -0.1924  0.4912
 6551TIP3   OH241143   6.342   2.254  12.751  0.3594 -0.3122  0.3270
 6551TIP3    H141144   6.323   2.315  12.680  0.3264  0.7310  1.2137
 6551TIP3    H241145   6.422   2.288  12.792 -0.9979  0.5902  2.3751
 6552TIP3   OH241146   3.755   3.371  12.970 -0.0959  0.9490 -0.5605
 6552TIP3    H141147   3.723   3.356  12.880  0.1846 -2.5109 -0.2307
 6552TIP3    H241148   3.679   3.404  13.017 -0.5809  1.6486 -1.7738
 6553TIP3   OH241149   4.126   5.886   5.194 -0.6895 -0.0275 -0.0312
 6553TIP3    H141150   4.086   5.964   5.155 -0.6270 -0.1431 -0.3311
 6553TIP3    H241151   4.173   5.845   5.121 -0.1776  0.0093  0.2814
 6554TIP3   OH241152   3.860   6.693   0.620 -0.1721 -0.2077 -0.1889
 6554TIP3    H141153   3.870   6.623   0.555  0.5251  0.1489 -0.4832
 6554TIP3    H241154   3.924   6.671   0.688 -0.6820 -0.4089  0.2381
 6555TIP3   OH241155   1.167   5.812  11.927  0.1921 -0.1899  0.3536
 6555TIP3    H141156   1.131   5.810  11.839 -3.6581 -0.2207  1.7516
 6555TIP3    H241157   1.171   5.905  11.949  0.8044 -0.1965  0.2799
 6556TIP3   OH241158   2.552   5.148  15.119  0.4514  0.1128  0.8720
 6556TIP3    H141159   2.498   5.196  15.057  1.4701  1.6468  1.1318
 6556TIP3    H241160   2.574   5.066  15.073  0.2305  0.7081 -0.3261
 6557TIP3   OH241161   4.766   6.520  14.023  0.4277 -0.7518  0.2922
 6557TIP3    H141162   4.680   6.478  14.011  0.1213 -0.0939  0.1461
 6557TIP3    H241163   4.802   6.526  13.935  0.5500 -0.8740  0.3338
 6558TIP3   OH241164   4.495   1.452  16.201  0.5251 -0.3686  0.0511
 6558TIP3    H141165   4.446   1.441  16.120 -0.8610 -0.1505  0.8078
 6558TIP3    H241166   4.571   1.505  16.177 -1.0532  1.6967 -0.7367
 6559TIP3   OH241167   4.216   4.492   4.771 -0.2765  0.0932  0.6218
 6559TIP3    H141168   4.125   4.504   4.745 -0.6748 -2.3022  0.7107
 6559TIP3    H241169   4.263   4.567   4.733 -1.9759  0.4302 -0.8929
 6560TIP3   OH241170   3.401   5.300   4.600  0.1374 -0.0041  0.6881
 6560TIP3    H141171   3.415   5.273   4.509  1.3268 -0.9190  1.1176
 6560TIP3    H241172   3.351   5.228   4.639 -0.3188  0.3573  0.7717
 6561TIP3   OH241173   1.041   0.013   1.511  0.5328 -0.1024  0.1768
 6561TIP3    H141174   1.037   0.109   1.508  0.8713 -0.0789 -2.8646
 6561TIP3    H241175   0.952  -0.015   1.532 -0.0520  0.8992 -0.8665
 6562TIP3   OH241176   0.248   5.092  15.570 -0.2342 -0.0710 -0.6042
 6562TIP3    H141177   0.169   5.043  15.550 -0.9428  1.4235 -1.6950
 6562TIP3    H241178   0.221   5.184  15.565  1.4101  0.4616 -0.3318
 6563TIP3   OH241179   5.762   3.348   5.471  0.2052  0.3908  0.1578
 6563TIP3    H141180   5.723   3.424   5.428  0.9984  0.5547 -0.2942
 6563TIP3    H241181   5.851   3.344   5.436  0.3708 -0.3802  0.6469
 6564TIP3   OH241182   2.452   1.245  15.209  1.0979  0.0134 -0.3391
 6564TIP3    H141183   2.485   1.316  15.154  0.0619  1.2121  0.5344
 6564TIP3    H241184   2.386   1.286  15.265  0.2711 -1.7009  0.0160
 6565TIP3   OH241185   6.034   2.003   1.920 -0.0644 -0.5340  0.2920
 6565TIP3    H141186   5.960   1.989   1.862 -2.2062  1.7191  2.2345
 6565TIP3    H241187   6.038   1.924   1.974 -0.5471 -1.0051 -0.3605
 6566TIP3   OH241188   2.549   5.690   4.561  0.3386  0.6192  0.2508
 6566TIP3    H141189   2.644   5.677   4.557  0.1440 -0.8237 -0.2684
 6566TIP3    H241190   2.513   5.601   4.562 -0.9662  1.1093  1.7949
 6567TIP3   OH241191   4.576   5.485  12.273  0.1654  0.0846  0.3969
 6567TIP3    H141192   4.554   5.553  12.337  0.4877  1.4456 -0.8904
 6567TIP3    H241193   4.667   5.504  12.248 -0.3451  0.3351 -1.3694
 6568TIP3   OH241194   3.234   3.388   2.029 -0.4552  0.6282  0.5819
 6568TIP3    H141195   3.301   3.394   2.097 -0.6335  2.2998  0.6557
 6568TIP3    H241196   3.271   3.437   1.955 -1.5920  1.5892  0.6308
 6569TIP3   OH241197   0.637   1.208  11.501  0.0545 -0.6480  0.0305
 6569TIP3    H141198   0.633   1.154  11.580  0.1571 -0.5700  0.0891
 6569TIP3    H241199   0.555   1.188  11.454  1.0650 -2.5274 -1.0640
 6570TIP3   OH241200   5.261   5.845   2.854  0.3003  0.1057 -0.2590
 6570TIP3    H141201   5.353   5.819   2.854  0.7501  1.6158 -0.3190
 6570TIP3    H241202   5.230   5.821   2.767  0.8306  0.2668 -0.4949
 6571TIP3   OH241203   1.562   3.978  10.560 -0.0795  0.0390 -0.1492
 6571TIP3    H141204   1.470   3.992  10.538 -0.0701 -0.6173 -0.6493
 6571TIP3    H241205   1.561   3.954  10.653 -0.5114 -0.8437 -0.3736
 6572TIP3   OH241206   0.116   0.111  14.016 -0.3740 -0.3634 -0.2362
 6572TIP3    H141207   0.121   0.104  13.921 -0.7558  0.0430 -0.2902
 6572TIP3    H241208   0.030   0.149  14.033  0.6670  1.9707  0.1305
 6573TIP3   OH241209   4.954   2.635  15.415 -0.2102 -0.0115 -0.0111
 6573TIP3    H141210   4.891   2.675  15.355 -1.2210 -1.5980 -0.0562
 6573TIP3    H241211   5.036   2.633  15.366 -0.3245  1.2589 -0.2897
 6574TIP3   OH241212   2.666   1.116  10.373  0.3083 -0.2282 -0.1120
 6574TIP3    H141213   2.699   1.030  10.346  0.7060  0.1531 -0.8799
 6574TIP3    H241214   2.598   1.136  10.308 -0.1118 -0.1583  0.3408
 6575TIP3   OH241215   1.218   0.427   6.137 -0.0431  0.2761  0.4335
 6575TIP3    H141216   1.153   0.498   6.134 -0.6569 -0.3057 -0.5044
 6575TIP3    H241217   1.293   0.466   6.182 -1.6461  0.4597  3.1821
 6576TIP3   OH241218   0.885   5.991  17.193 -0.2809  0.0590  0.1969
 6576TIP3    H141219   0.940   6.061  17.229 -0.8910  0.4952  0.3080
 6576TIP3    H241220   0.909   5.913  17.242  1.1494 -0.0468 -0.6321
 6577TIP3   OH241221   3.270   2.853  16.083 -0.2516  0.1926 -0.0232
 6577TIP3    H141222   3.216   2.857  16.161 -1.1675 -0.1428 -0.6236
 6577TIP3    H241223   3.353   2.892  16.109 -0.9452  1.1827  0.7838
 6578TIP3   OH241224   5.814   1.120  16.231  0.0477  0.0832  0.3036
 6578TIP3    H141225   5.904   1.087  16.238  0.7105  1.4792 -0.8888
 6578TIP3    H241226   5.769   1.084  16.307  1.5047 -1.0073  0.7001
 6579TIP3   OH241227   5.501   4.662   6.527 -0.2014 -0.5759 -0.5361
 6579TIP3    H141228   5.424   4.699   6.570  0.3575  0.9950 -0.8132
 6579TIP3    H241229   5.478   4.570   6.511 -2.0931 -0.1047 -0.8041
 6580TIP3   OH241230   3.132   5.716   1.477 -0.0268  0.4951 -0.6282
 6580TIP3    H141231   3.214   5.738   1.520 -1.4508  1.5951  1.7003
 6580TIP3    H241232   3.101   5.637   1.523 -0.4135  0.2467 -1.2953
 6581TIP3   OH241233   4.823   5.823   2.578  0.2065 -0.4181 -0.3283
 6581TIP3    H141234   4.859   5.892   2.522  1.3574 -0.8357 -0.1201
 6581TIP3    H241235   4.825   5.861   2.666 -0.6770 -0.1321 -0.4180
 6582TIP3   OH241236   2.044   5.975   0.438  0.5211 -0.0366  0.2530
 6582TIP3    H141237   2.054   5.902   0.376 -0.5246  0.6711 -0.7708
 6582TIP3    H241238   1.986   5.941   0.505  0.9213 -0.5046  0.3711
 6583TIP3   OH241239   0.499   2.921   3.526 -0.1944 -0.2292 -0.6859
 6583TIP3    H141240   0.545   2.860   3.584  1.0215  1.1851 -0.0850
 6583TIP3    H241241   0.558   2.933   3.452  0.3979  1.4912  0.0185
 6584TIP3   OH241242   1.553   2.619   5.229  0.2077  0.0319 -0.2724
 6584TIP3    H141243   1.483   2.561   5.258 -0.4138  1.9088  2.3676
 6584TIP3    H241244   1.609   2.631   5.306  1.8852  0.7623 -1.5261
 6585TIP3   OH241245   3.894   0.193   5.993 -0.2808  0.2852  0.2462
 6585TIP3    H141246   3.821   0.153   5.946  0.3760 -0.4346 -0.1954
 6585TIP3    H241247   3.940   0.244   5.926 -0.1050  0.3350  0.4049
 6586TIP3   OH241248   0.176   5.582   1.400 -0.0011  0.3485 -0.3500
 6586TIP3    H141249   0.134   5.662   1.369 -0.8809  0.7264  1.6458
 6586TIP3    H241250   0.228   5.552   1.326 -0.1351  2.4212 -1.3621
 6587TIP3   OH241251   2.698   6.081  11.854 -0.5001  0.1047  0.2040
 6587TIP3    H141252   2.614   6.098  11.811 -1.1866  1.0043  1.8264
 6587TIP3    H241253   2.763   6.117  11.794 -1.4513  1.5979  0.0132
 6588TIP3   OH241254   3.710   5.658  15.630 -0.1741 -0.0369 -0.0366
 6588TIP3    H141255   3.689   5.623  15.716 -0.5699 -0.6396 -0.3743
 6588TIP3    H241256   3.639   5.721  15.612  0.7702  1.3173  0.7583
 6589TIP3   OH241257   2.823   1.491   4.951  0.5358 -0.2372  0.1840
 6589TIP3    H141258   2.793   1.576   4.984 -2.5932 -0.6002 -1.2830
 6589TIP3    H241259   2.898   1.511   4.896  1.6285  1.1633  2.0948
 6590TIP3   OH241260   6.491   3.557  12.756  0.2945  0.4164  0.4984
 6590TIP3    H141261   6.464   3.472  12.722  1.4812  0.1451  0.2028
 6590TIP3    H241262   6.573   3.540  12.801  0.2581  1.3109  0.9193
 6591TIP3   OH241263   3.759   2.043  16.828  0.2781 -0.2273  0.2801
 6591TIP3    H141264   3.835   1.985  16.829  0.3417 -0.1838  2.2408
 6591TIP3    H241265   3.700   2.003  16.764  1.3649 -1.0456 -0.2428
 6592TIP3   OH241266   3.753   0.390   0.511 -0.4908  0.0232  0.0298
 6592TIP3    H141267   3.806   0.328   0.561  1.3751  1.9737  0.5891
 6592TIP3    H241268   3.674   0.340   0.487  0.1880 -2.0402  1.8037
 6593TIP3   OH241269   5.889   0.886  16.639  0.3617  0.4785  0.8188
 6593TIP3    H141270   5.930   0.969  16.614  0.4475  0.1894 -0.0266
 6593TIP3    H241271   5.919   0.872  16.729  2.7029 -0.0382  0.0383
 6594TIP3   OH241272   4.073   2.008  13.973  0.0872 -0.1740 -0.7007
 6594TIP3    H141273   4.123   2.082  13.938  2.1604 -1.4289 -0.5816
 6594TIP3    H241274   4.094   1.935  13.914  0.7419 -1.4345  0.9882
 6595TIP3   OH241275   3.572   2.360  10.787  0.3633  0.4813 -0.7048
 6595TIP3    H141276   3.505   2.385  10.851 -0.9443 -0.6086 -1.6104
 6595TIP3    H241277   3.592   2.269  10.807  0.8818  0.5099 -1.0657
 6596TIP3   OH241278   1.231   0.935  15.759 -0.2654  0.4431 -0.2011
 6596TIP3    H141279   1.244   0.963  15.669  0.9019 -0.2573 -0.2655
 6596TIP3    H241280   1.318   0.936  15.798 -0.7836  0.9580  0.9924
 6597TIP3   OH241281   5.561   2.917   4.147 -1.2078  0.0798  0.2250
 6597TIP3    H141282   5.497   2.969   4.098 -1.3122  0.6825  0.9927
 6597TIP3    H241283   5.646   2.954   4.122 -1.0442 -1.3171 -1.5175
 6598TIP3   OH241284   2.420   0.175  14.040  0.3969  0.0303  0.5193
 6598TIP3    H141285   2.333   0.137  14.052  1.1381 -2.6608 -1.6004
 6598TIP3    H241286   2.414   0.224  13.958  0.6822  0.6472  0.8515
 6599TIP3   OH241287   1.465   4.915   1.182  0.8324  0.0457 -0.6358
 6599TIP3    H141288   1.419   4.862   1.118 -0.7693 -1.1516  1.3888
 6599TIP3    H241289   1.431   4.887   1.267  2.8133  1.5641  0.7889
 6600TIP3   OH241290   1.748   2.600   4.093  0.2588 -0.1406  0.7192
 6600TIP3    H141291   1.671   2.586   4.037 -0.2021  0.7092  1.1096
 6600TIP3    H241292   1.813   2.538   4.062  0.0250  0.3432 -0.7986
 6601TIP3   OH241293   0.278   0.271   3.582 -0.4835 -0.2116  0.4958
 6601TIP3    H141294   0.349   0.292   3.522 -0.5002  0.8706  0.8454
 6601TIP3    H241295   0.284   0.336   3.652 -1.3616 -0.5527  0.9113
 6602TIP3   OH241296   0.677   6.781  12.252 -0.5031 -0.1734  0.0388
 6602TIP3    H141297   0.593   6.740  12.230  0.0986 -0.7332 -1.2997
 6602TIP3    H241298   0.720   6.717  12.309 -0.2291 -0.7254 -0.7701
 6603TIP3   OH241299   5.362   4.639  13.499  0.4407 -0.0854  0.1003
 6603TIP3    H141300   5.440   4.692  13.509  0.1596  0.2733  0.4285
 6603TIP3    H241301   5.335   4.653  13.408 -0.3056  1.2980  0.5051
 6604TIP3   OH241302   0.444   5.296   0.483  0.5252 -0.2549  0.2713
 6604TIP3    H141303   0.523   5.330   0.526 -0.2354  2.2464 -0.1800
 6604TIP3    H241304   0.397   5.374   0.454 -2.0167 -1.6843  0.2996
 6605TIP3   OH241305   1.691   1.236   1.936 -0.3796  0.0433  0.2961
 6605TIP3    H141306   1.641   1.181   1.996 -0.8348  0.4222  0.2734
 6605TIP3    H241307   1.783   1.213   1.953 -0.6075 -2.6550 -1.5995
 6606TIP3   OH241308   2.340   2.833   4.060 -0.0249  0.3374 -0.2809
 6606TIP3    H141309   2.373   2.786   3.983  0.0974  1.4872 -0.9479
 6606TIP3    H241310   2.335   2.924   4.033 -2.2651  0.4542  0.2926
 6607TIP3   OH241311   2.991   1.135  10.999  0.0155  0.2961  0.1639
 6607TIP3    H141312   3.055   1.198  10.964 -1.8403  1.8450 -0.6141
 6607TIP3    H241313   2.957   1.090  10.922 -0.7336  0.3840  0.4371
 6608TIP3   OH241314   4.297   0.769  14.080  0.1594 -0.0900 -0.3704
 6608TIP3    H141315   4.243   0.846  14.059  0.7131  0.9199  1.6571
 6608TIP3    H241316   4.380   0.785  14.035 -0.1715 -0.1442 -1.0084
 6609TIP3   OH241317   2.166   5.183  10.503  0.4393  0.0083  0.4079
 6609TIP3    H141318   2.225   5.117  10.539  1.8300  1.2634  0.5112
 6609TIP3    H241319   2.207   5.267  10.525 -1.2354  0.9174  0.2116
 6610TIP3   OH241320   1.260   4.041   1.095 -0.7020 -0.4427  0.3204
 6610TIP3    H141321   1.183   4.082   1.133 -0.7483  0.4673 -0.7102
 6610TIP3    H241322   1.225   3.987   1.024 -0.3547  0.5976 -0.6737
 6611TIP3   OH241323   6.762   4.144  13.006  0.0299 -0.5858 -0.5653
 6611TIP3    H141324   6.769   4.210  13.075 -0.6602 -0.3173 -0.7445
 6611TIP3    H241325   6.759   4.194  12.925 -2.3031 -0.6746 -0.6254
 6612TIP3   OH241326   0.225   5.633  15.360  0.4545 -0.2599 -0.1716
 6612TIP3    H141327   0.208   5.695  15.432 -0.1727 -0.6074 -0.0083
 6612TIP3    H241328   0.149   5.644  15.302  1.1824  0.3531 -1.0305
 6613TIP3   OH241329   1.235   4.186  15.551 -0.1229 -0.8779  0.0334
 6613TIP3    H141330   1.205   4.272  15.521 -1.5376 -1.4563 -0.3013
 6613TIP3    H241331   1.300   4.160  15.486 -0.4352 -0.4968 -0.4390
 6614TIP3   OH241332   0.358   0.593  15.802 -0.4509 -0.9790 -0.6779
 6614TIP3    H141333   0.397   0.561  15.721 -0.6932 -1.7631 -0.4953
 6614TIP3    H241334   0.306   0.668  15.775  0.0372 -0.8025 -1.1385
 6615TIP3   OH241335   4.437   4.530  16.381  0.3449 -0.1950  0.5803
 6615TIP3    H141336   4.342   4.542  16.388  0.3728  0.2255  0.2800
 6615TIP3    H241337   4.474   4.612  16.411  0.6037 -0.2316  0.3689
 6616TIP3   OH241338   0.133   4.141   0.786 -0.1255  0.0339 -0.8921
 6616TIP3    H141339   0.109   4.204   0.718  1.3171 -0.1539 -1.6226
 6616TIP3    H241340   0.203   4.089   0.747  1.6027  0.7035  1.1351
 6617TIP3   OH241341   1.697   2.540   0.789 -0.5797 -0.2333  0.2884
 6617TIP3    H141342   1.738   2.611   0.741  0.3823 -0.7859  0.2698
 6617TIP3    H241343   1.603   2.555   0.779 -0.4262  1.8258  1.4969
 6618TIP3   OH241344   3.336   0.430   2.829 -0.0876  0.0396  0.1459
 6618TIP3    H141345   3.296   0.346   2.807 -2.7124  0.9398  1.1443
 6618TIP3    H241346   3.292   0.458   2.909 -0.3740  3.0272 -0.9214
 6619TIP3   OH241347   2.693   4.749   4.264 -0.4462  0.3742  0.3602
 6619TIP3    H141348   2.615   4.728   4.213 -1.3923  1.4629  1.3123
 6619TIP3    H241349   2.756   4.780   4.198 -0.4704 -1.3064 -0.5194
 6620TIP3   OH241350   3.367   0.836  16.915  0.1849  0.0468  0.2906
 6620TIP3    H141351   3.301   0.901  16.940  0.6828  0.5137  0.4309
 6620TIP3    H241352   3.398   0.801  16.998 -1.3090 -1.6669  0.1851
 6621TIP3   OH241353   6.336   1.363   1.048 -0.1596 -0.2804 -0.4061
 6621TIP3    H141354   6.301   1.450   1.025  0.1261 -0.2344 -0.6872
 6621TIP3    H241355   6.288   1.303   0.992  0.5902 -0.1601 -1.2046
 6622TIP3   OH241356   1.733   6.698  14.006  0.3306  0.3420 -0.0588
 6622TIP3    H141357   1.676   6.766  14.040  1.9171  2.1248 -0.7952
 6622TIP3    H241358   1.758   6.647  14.084 -3.1151 -1.3401  0.1462
 6623TIP3   OH241359   0.749   5.921   3.010 -0.8263 -0.5753 -0.7922
 6623TIP3    H141360   0.712   5.834   3.024 -0.0313 -0.5556  2.1007
 6623TIP3    H241361   0.745   5.963   3.096  0.1502  1.7250 -1.7759
 6624TIP3   OH241362   5.545   4.914  16.005 -0.3011 -0.0311 -0.2194
 6624TIP3    H141363   5.530   4.847  16.071  0.5711 -1.6062 -1.5278
 6624TIP3    H241364   5.630   4.951  16.027 -0.7510  0.6098  0.4657
 6625TIP3   OH241365   2.217   1.604  15.017  0.1459 -0.1488  0.7028
 6625TIP3    H141366   2.272   1.600  14.939  2.1100  1.2853  1.9178
 6625TIP3    H241367   2.199   1.512  15.039 -0.8396 -0.5802 -1.6192
 6626TIP3   OH241368   5.625   2.432   5.689  0.4896  0.2133  0.1237
 6626TIP3    H141369   5.602   2.416   5.598  1.3993  2.4544 -0.5551
 6626TIP3    H241370   5.542   2.448   5.732  0.0476 -0.9058 -0.2758
 6627TIP3   OH241371   3.005   3.274  11.292 -0.4831  0.5462 -0.5436
 6627TIP3    H141372   3.090   3.229  11.294  0.6782  2.6019  1.4910
 6627TIP3    H241373   2.947   3.221  11.345 -0.3507 -0.6053 -1.5160
 6628TIP3   OH241374   2.210   2.567   1.269 -0.1397 -0.4279  0.3237
 6628TIP3    H141375   2.290   2.612   1.293 -0.4486 -1.3476  3.4453
 6628TIP3    H241376   2.235   2.475   1.259 -0.5283 -0.4700 -0.4333
 6629TIP3   OH241377   5.336   5.356  14.591  0.4887  0.9196  0.5913
 6629TIP3    H141378   5.350   5.445  14.623  2.0915  0.8130  0.2579
 6629TIP3    H241379   5.384   5.352  14.508 -2.8108  0.9040 -1.4832
 6630TIP3   OH241380   6.222   0.649  11.983  0.4251  0.1401 -0.2854
 6630TIP3    H141381   6.252   0.689  12.065 -0.3817  0.8701 -0.3281
 6630TIP3    H241382   6.294   0.665  11.922 -0.2838  2.5772 -0.6067
 6631TIP3   OH241383   5.852   2.505   4.412 -0.2029  0.2180  0.4162
 6631TIP3    H141384   5.920   2.530   4.349 -0.4903  0.2232  0.1020
 6631TIP3    H241385   5.860   2.570   4.482 -1.1285  1.4206 -0.5300
 6632TIP3   OH241386   4.724   5.055  14.933 -0.6595 -0.0621 -0.3279
 6632TIP3    H141387   4.802   5.011  14.900 -0.5661  1.4803 -2.4031
 6632TIP3    H241388   4.662   4.984  14.951  0.7758 -1.2355  0.2056
 6633TIP3   OH241389   2.289   5.606   3.704  0.0381  0.0455 -0.4123
 6633TIP3    H141390   2.283   5.676   3.769 -0.3723  1.1165 -1.5598
 6633TIP3    H241391   2.370   5.560   3.726  0.0423  0.5353  0.6902
 6634TIP3   OH241392   1.587   5.136   3.701  0.0043 -0.1719  0.6141
 6634TIP3    H141393   1.638   5.103   3.774 -0.3126  1.6784  1.7381
 6634TIP3    H241394   1.501   5.156   3.738 -0.3345  0.3228 -0.3749
 6635TIP3   OH241395   1.875   0.822  16.991  0.2556 -0.4663  0.1048
 6635TIP3    H141396   1.931   0.890  17.028 -1.7443  2.5144 -1.9266
 6635TIP3    H241397   1.803   0.813  17.054  1.4488 -2.2397  1.3141
 6636TIP3   OH241398   2.576   2.797   2.718 -0.1248 -0.7321 -0.5745
 6636TIP3    H141399   2.513   2.754   2.660  0.6798  0.1763 -2.2033
 6636TIP3    H241400   2.655   2.808   2.664  2.0742 -3.2132  1.8351
 6637TIP3   OH241401   6.503   0.946   5.532  0.3258  0.5683 -0.7561
 6637TIP3    H141402   6.472   0.941   5.623 -0.8871 -3.7888 -1.1392
 6637TIP3    H241403   6.598   0.950   5.540  0.2306  0.6780  0.7029
 6638TIP3   OH241404   1.881   1.618   5.270  0.4242 -0.6640 -0.1806
 6638TIP3    H141405   1.925   1.686   5.322 -0.6407  0.9726 -1.2986
 6638TIP3    H241406   1.945   1.595   5.203  0.2846  0.3607 -0.6919
 6639TIP3   OH241407   0.503   5.641  14.334  0.2181 -0.2661  0.1631
 6639TIP3    H141408   0.580   5.698  14.337 -0.8599  1.4192 -1.6114
 6639TIP3    H241409   0.537   5.556  14.303  1.1819  0.9378 -2.3419
 6640TIP3   OH241410   5.627   0.243  15.249  0.2278  0.6054  0.6779
 6640TIP3    H141411   5.600   0.168  15.195  0.4248 -0.5605  2.1419
 6640TIP3    H241412   5.548   0.297  15.254 -0.2752 -0.0862  0.5232
 6641TIP3   OH241413   1.314   4.667   4.663  0.0904  0.2358 -0.1210
 6641TIP3    H141414   1.293   4.744   4.716  0.8736 -0.2354  0.9209
 6641TIP3    H241415   1.376   4.618   4.717 -0.7335 -1.3456 -0.5711
 6642TIP3   OH241416   2.503   1.266  10.775 -0.2599  0.1150 -0.0694
 6642TIP3    H141417   2.524   1.317  10.853  1.1991 -1.5747  0.7307
 6642TIP3    H241418   2.529   1.322  10.702  2.2476  0.2095  0.7839
 6643TIP3   OH241419   2.206   2.122   1.028 -0.3114  0.1168  0.0064
 6643TIP3    H141420   2.179   2.036   1.061  0.9020  0.3197  1.6330
 6643TIP3    H241421   2.224   2.107   0.935  0.3421 -1.4986  0.3533
 6644TIP3   OH241422   4.352   1.612  14.655  0.2207  0.0348 -0.1897
 6644TIP3    H141423   4.260   1.608  14.629  0.4122  0.0970 -0.8951
 6644TIP3    H241424   4.376   1.704  14.647  0.4120 -0.0187 -0.2458
 6645TIP3   OH241425   4.892   5.970  13.854 -0.4761  0.0474 -0.5932
 6645TIP3    H141426   4.957   6.033  13.886 -1.2213  0.7956 -0.5247
 6645TIP3    H241427   4.872   5.915  13.930  0.5687 -0.6417 -0.7891
 6646TIP3   OH241428   6.511   5.754  11.740 -0.0595 -0.1907 -0.0945
 6646TIP3    H141429   6.512   5.721  11.650  2.0606 -0.0916 -0.1595
 6646TIP3    H241430   6.456   5.691  11.788 -1.9524  0.2398 -1.5717
 6647TIP3   OH241431   4.442   3.770   0.158  0.3200  0.0869 -0.3834
 6647TIP3    H141432   4.481   3.720   0.229  0.8211  0.1382 -0.6225
 6647TIP3    H241433   4.513   3.826   0.126 -0.3416  1.2919  0.1854
 6648TIP3   OH241434   5.018   4.220   6.832  0.0120 -0.4536 -0.2555
 6648TIP3    H141435   5.068   4.196   6.910 -0.3373  2.1411  0.8583
 6648TIP3    H241436   4.995   4.312   6.845  0.2170  0.1987 -3.5909
 6649TIP3   OH241437   4.974   2.554   0.004 -0.1262 -0.0024 -0.0957
 6649TIP3    H141438   4.949   2.465   0.031  0.3538 -0.3116 -0.6542
 6649TIP3    H241439   4.946   2.609   0.077  2.1046 -0.9137  1.5769
 6650TIP3   OH241440   4.581   2.313   1.669 -0.0638 -0.3894 -0.9382
 6650TIP3    H141441   4.556   2.405   1.666  0.5039 -0.2187 -0.5927
 6650TIP3    H241442   4.581   2.285   1.578 -0.3089 -0.0678 -1.0384
 6651TIP3   OH241443   6.509   6.679   1.218  0.2994  0.1242  0.0501
 6651TIP3    H141444   6.530   6.690   1.311 -2.5867  2.9721  0.5279
 6651TIP3    H241445   6.462   6.595   1.214  0.2362  0.0815  1.1915
 6652TIP3   OH241446   6.718   0.061   0.749  0.5661 -0.0319 -0.1501
 6652TIP3    H141447   6.803   0.041   0.787  1.5450  1.0378 -1.7117
 6652TIP3    H241448   6.708   0.156   0.759  1.0812  0.3833 -2.8909
 6653TIP3   OH241449   0.144   1.949   6.311 -0.1865 -0.1783 -0.0914
 6653TIP3    H141450   0.190   1.868   6.291 -1.2984 -1.5300  2.3357
 6653TIP3    H241451   0.213   2.011   6.333  0.6215 -1.1472  0.2021
 6654TIP3   OH241452   3.689   5.043  16.980  0.2697  0.0143  0.6348
 6654TIP3    H141453   3.778   5.079  16.983 -0.6396  2.4331  0.3436
 6654TIP3    H241454   3.637   5.101  17.035 -1.2948 -0.9318  0.2229
 6655TIP3   OH241455   1.216   3.557  14.552 -0.1122 -0.0677 -0.2034
 6655TIP3    H141456   1.146   3.609  14.590 -0.0261  0.4616 -0.7477
 6655TIP3    H241457   1.239   3.494  14.620 -0.2218  0.6033  0.4719
 6656TIP3   OH241458   1.788   1.856   2.835 -0.3260 -0.0691 -0.2643
 6656TIP3    H141459   1.873   1.842   2.793  0.1580 -1.3033  1.0398
 6656TIP3    H241460   1.809   1.895   2.920 -1.0746 -0.2011 -0.0083
 6657TIP3   OH241461   5.553   0.827   5.860  0.3850  0.4746 -0.0172
 6657TIP3    H141462   5.546   0.918   5.889  0.7642  0.7290 -0.7005
 6657TIP3    H241463   5.462   0.801   5.843  0.2321  0.5707  0.6291
 6658TIP3   OH241464   1.783   4.262  11.296 -0.5444 -0.2771 -0.4921
 6658TIP3    H141465   1.739   4.177  11.292  2.3834 -1.9146 -0.6637
 6658TIP3    H241466   1.743   4.313  11.226 -1.2403 -2.1284 -1.5220
 6659TIP3   OH241467   1.310   3.478  11.864  0.6084 -0.4511 -1.1226
 6659TIP3    H141468   1.380   3.543  11.873  0.5960 -0.5212 -0.4853
 6659TIP3    H241469   1.344   3.399  11.907 -0.2502 -0.1809  0.1025
 6660TIP3   OH241470   1.216   1.786   5.945 -0.2662 -0.3016  0.0045
 6660TIP3    H141471   1.245   1.876   5.933 -0.1410 -0.4872 -1.2623
 6660TIP3    H241472   1.217   1.772   6.039  0.5788  0.7402  0.1623
 6661TIP3   OH241473   0.911   0.077   2.211 -0.3539 -0.1146 -0.3026
 6661TIP3    H141474   0.873   0.085   2.299  0.9144 -0.3600  0.2849
 6661TIP3    H241475   0.908   0.166   2.176 -0.1253  0.1384  0.3096
 6662TIP3   OH241476   3.924   5.018   0.694  0.3150  0.1861  0.1764
 6662TIP3    H141477   3.921   4.923   0.711 -1.3355  0.1378 -0.2883
 6662TIP3    H241478   3.969   5.025   0.610 -0.5162 -0.2640 -0.3128
 6663TIP3   OH241479   6.713   3.101   5.233  0.0918  0.2758  0.4323
 6663TIP3    H141480   6.681   3.161   5.167 -0.1632  0.4012  0.6679
 6663TIP3    H241481   6.666   3.019   5.216  0.0260  0.3081  0.4590
 6664TIP3   OH241482   6.689   1.778  14.650  0.7816  0.1880 -0.1586
 6664TIP3    H141483   6.760   1.731  14.607  1.9334 -0.2368  2.0670
 6664TIP3    H241484   6.628   1.709  14.677  0.4102  0.3781 -0.5135
 6665TIP3   OH241485   4.522   1.398  14.216  0.5177 -0.1254  0.3279
 6665TIP3    H141486   4.473   1.371  14.293  1.6364 -2.3983  0.3395
 6665TIP3    H241487   4.540   1.491  14.230 -0.7261 -0.0862  1.9797
 6666TIP3   OH241488   6.479   1.942   5.534 -0.2505  0.9335  0.4525
 6666TIP3    H141489   6.540   1.960   5.462  2.3243  1.0111  2.5028
 6666TIP3    H241490   6.443   2.028   5.557 -1.6808  0.8164 -1.1271
 6667TIP3   OH241491   2.872   0.946  15.035  0.4279  0.6851  0.3216
 6667TIP3    H141492   2.797   0.974  15.088 -0.1666 -0.2564  0.0092
 6667TIP3    H241493   2.838   0.874  14.982  1.3072  0.8712 -0.5281
 6668TIP3   OH241494   2.526   3.746   5.010  0.2055 -0.1602 -0.7762
 6668TIP3    H141495   2.613   3.743   5.050  0.4434  0.0907 -1.2601
 6668TIP3    H241496   2.539   3.710   4.922 -0.1402  0.0740 -0.9254
 6669TIP3   OH241497   3.381   2.061  14.227 -0.5563 -0.0576 -0.4986
 6669TIP3    H141498   3.396   2.113  14.306 -2.2271 -1.8787  1.1439
 6669TIP3    H241499   3.458   2.004  14.221 -1.1112 -0.9999  0.7993
 6670TIP3   OH241500   0.485   1.989   2.358 -0.1587 -0.4517  0.1201
 6670TIP3    H141501   0.497   1.957   2.268  0.2809 -0.7416  0.2791
 6670TIP3    H241502   0.574   2.008   2.388 -0.4205  1.3674 -0.1280
 6671TIP3   OH241503   3.613   6.189   0.342  0.3175  0.8632 -0.0106
 6671TIP3    H141504   3.672   6.241   0.397  0.7700  1.3296 -0.9055
 6671TIP3    H241505   3.528   6.195   0.385  1.2453 -1.4800  2.4405
 6672TIP3   OH241506   0.450   5.010  15.946  0.2923  0.4135  0.1276
 6672TIP3    H141507   0.358   5.012  15.972  0.1586  1.3340 -0.3857
 6672TIP3    H241508   0.462   5.088  15.893  1.1019 -0.2920 -0.7625
 6673TIP3   OH241509   3.959   3.863  15.912  0.4670  0.3726  0.2414
 6673TIP3    H141510   3.910   3.867  15.830  1.5053 -0.7606 -0.4724
 6673TIP3    H241511   3.969   3.770  15.929  0.8285  0.6009  1.3231
 6674TIP3   OH241512   1.752   1.299   5.126  0.2278 -0.3414  0.1070
 6674TIP3    H141513   1.719   1.377   5.169 -1.7029 -1.0651  0.0260
 6674TIP3    H241514   1.843   1.293   5.155  0.4406  1.9095  0.1072
 6675TIP3   OH241515   2.339   3.556   5.126 -0.1782 -0.4561 -0.1006
 6675TIP3    H141516   2.264   3.496   5.128 -0.1760 -0.9313 -4.3757
 6675TIP3    H241517   2.410   3.505   5.088  1.0599  1.1679 -0.0867
 6676TIP3   OH241518   6.211   5.646  13.068  0.3213  0.3789  0.5000
 6676TIP3    H141519   6.160   5.639  12.987  0.5462  3.1662  0.0399
 6676TIP3    H241520   6.298   5.614  13.044  0.3462  1.0509 -0.3278
 6677TIP3   OH241521   2.249   0.970  11.565 -0.2167 -0.7417 -0.0261
 6677TIP3    H141522   2.235   1.042  11.504 -0.2883 -1.2879 -0.6748
 6677TIP3    H241523   2.208   0.998  11.646 -0.6691 -0.2551 -0.4176
 6678TIP3   OH241524   6.691   0.425   2.062  0.2380 -0.4592 -0.2368
 6678TIP3    H141525   6.668   0.408   2.153 -0.2504  1.0876 -0.0390
 6678TIP3    H241526   6.771   0.478   2.068  1.8023 -2.6542 -0.8129
 6679TIP3   OH241527   4.476   5.672   0.405  0.0402  0.3981 -1.4236
 6679TIP3    H141528   4.534   5.747   0.416  0.7825 -0.3593  0.0690
 6679TIP3    H241529   4.530   5.595   0.425 -1.3698 -0.3567 -0.3250
 6680TIP3   OH241530   5.701   2.506   6.546  0.0394  0.1664 -0.2268
 6680TIP3    H141531   5.784   2.538   6.580  0.2736 -0.4859 -0.1679
 6680TIP3    H241532   5.724   2.458   6.466 -0.1120 -1.1303  0.4833
 6681TIP3   OH241533   1.417   0.377  13.660 -0.1215 -0.4544  0.4643
 6681TIP3    H141534   1.390   0.408  13.573 -0.8071 -2.7980 -0.2219
 6681TIP3    H241535   1.502   0.336  13.645  1.0862  1.4857  1.4899
 6682TIP3   OH241536   5.853   5.023   5.340 -0.2817  0.3515  0.0501
 6682TIP3    H141537   5.943   5.052   5.322 -0.0602 -0.2328  0.2150
 6682TIP3    H241538   5.805   5.104   5.356  0.2687  0.6515  0.1971
 6683TIP3   OH241539   0.619   6.695   3.565 -0.3011  0.3412 -0.1969
 6683TIP3    H141540   0.572   6.616   3.590 -1.1245  0.9883  0.3525
 6683TIP3    H241541   0.555   6.765   3.573  0.1994  0.9786 -1.4019
 6684TIP3   OH241542   2.330   5.721   6.203  0.8127 -0.1730  0.5286
 6684TIP3    H141543   2.354   5.683   6.118  0.6148 -0.0425  0.4136
 6684TIP3    H241544   2.336   5.647   6.264 -0.0294 -0.5081  0.2272
 6685TIP3   OH241545   2.633   1.305  17.140 -0.0303  0.1807 -0.2559
 6685TIP3    H141546   2.712   1.269  17.098  0.9388  0.4606  1.2657
 6685TIP3    H241547   2.566   1.238  17.126  0.8764 -0.7462 -0.2948
 6686TIP3   OH241548   1.873   5.504   3.174  0.8182  0.1931  0.8217
 6686TIP3    H141549   1.927   5.583   3.170 -0.0633  0.8495  1.4544
 6686TIP3    H241550   1.867   5.475   3.083 -0.2382  1.8433  0.3168
 6687TIP3   OH241551   4.058   3.969   2.810  0.3343 -0.3098  0.0582
 6687TIP3    H141552   4.142   3.991   2.850 -0.1301  0.7911  0.4966
 6687TIP3    H241553   4.016   4.054   2.795 -1.8250 -0.8522  2.3262
 6688TIP3   OH241554   4.780   6.368   3.996 -0.5744  0.0311  0.2362
 6688TIP3    H141555   4.691   6.344   3.969 -1.0924  0.2779  1.6423
 6688TIP3    H241556   4.772   6.458   4.028 -0.0479 -0.3011  1.3512
 6689TIP3   OH241557   3.124   3.823  14.068 -0.6177  0.0695 -0.2713
 6689TIP3    H141558   3.186   3.865  14.127 -0.8264 -0.2449  0.1784
 6689TIP3    H241559   3.148   3.855  13.981  0.3389 -0.2489 -0.1329
 6690TIP3   OH241560   1.952   4.862   0.071 -0.0272 -0.7122 -0.1023
 6690TIP3    H141561   2.031   4.825   0.030  0.9592  1.1691 -0.0129
 6690TIP3    H241562   1.949   4.821   0.157 -0.6721 -2.7776 -1.0374
 6691TIP3   OH241563   1.108   1.856   5.098 -0.3008 -0.4011  0.0851
 6691TIP3    H141564   1.051   1.908   5.042 -0.4047  0.4669  0.9611
 6691TIP3    H241565   1.088   1.765   5.075  1.0380 -0.1096 -2.6392
 6692TIP3   OH241566   3.126   1.344  10.920 -0.0106 -0.4582 -0.3565
 6692TIP3    H141567   3.216   1.369  10.901  0.1377 -0.9110 -0.2781
 6692TIP3    H241568   3.074   1.385  10.851  0.3854 -1.0811 -1.0488
 6693TIP3   OH241569   0.106   1.178  14.725  0.1570 -0.0745  0.1027
 6693TIP3    H141570   0.147   1.120  14.789  0.1202 -0.1759  0.0343
 6693TIP3    H241571   0.123   1.136  14.641  1.5621  0.8438 -0.1106
 6694TIP3   OH241572   2.443   4.541   0.361  0.2671 -0.1098  0.0002
 6694TIP3    H141573   2.387   4.472   0.327  1.3079 -0.9077 -0.1557
 6694TIP3    H241574   2.448   4.525   0.455 -1.5575  1.3215  0.4040
 6695TIP3   OH241575   0.303   5.626  12.893 -0.8253  0.1729 -0.2062
 6695TIP3    H141576   0.230   5.634  12.955  0.3009  1.0038  1.0511
 6695TIP3    H241577   0.376   5.670  12.936  0.2001  0.1118 -1.8189
 6696TIP3   OH241578   5.713   1.019   4.124 -0.0932 -0.3203 -0.1401
 6696TIP3    H141579   5.726   1.112   4.139 -0.1151 -0.5498  1.4642
 6696TIP3    H241580   5.619   1.009   4.109 -0.7614 -0.4751  3.3718
 6697TIP3   OH241581   3.536   4.446  15.865  0.1035 -0.3564 -0.3478
 6697TIP3    H141582   3.597   4.396  15.919  0.9355  0.0526 -0.9060
 6697TIP3    H241583   3.570   4.439  15.776 -0.0194  0.8300 -0.5045
 6698TIP3   OH241584   2.828   6.355  13.584  0.3809 -0.3793  0.2875
 6698TIP3    H141585   2.796   6.398  13.663 -1.4062  0.0100 -0.6100
 6698TIP3    H241586   2.833   6.262  13.607  0.6677 -0.1707  1.0901
 6699TIP3   OH241587   1.502   5.315   5.411 -0.6662  0.4483  0.3361
 6699TIP3    H141588   1.454   5.387   5.370 -1.1499  0.0964  0.2748
 6699TIP3    H241589   1.569   5.292   5.346  1.0144  2.3506  1.3015
 6700TIP3   OH241590   5.008   0.379   5.794 -0.1603  0.1861  0.6117
 6700TIP3    H141591   5.047   0.406   5.710 -1.8680  0.3021 -0.1823
 6700TIP3    H241592   5.058   0.427   5.860  1.7810 -0.5642 -0.2545
 6701TIP3   OH241593   3.643   5.348  15.884 -0.1837  0.2976  0.0175
 6701TIP3    H141594   3.571   5.294  15.851 -1.2467  0.8844  1.2866
 6701TIP3    H241595   3.722   5.305  15.851 -1.1070  0.0489 -2.0319
 6702TIP3   OH241596   1.406   5.899  11.728 -0.8520  0.4094  0.0371
 6702TIP3    H141597   1.334   5.856  11.682 -0.9008  1.5148 -0.9609
 6702TIP3    H241598   1.396   5.992  11.708  0.0068  0.7573  1.0893
 6703TIP3   OH241599   5.479   4.305  15.925 -0.8013  0.2919  0.5285
 6703TIP3    H141600   5.483   4.400  15.936 -0.6524  0.2357  0.9620
 6703TIP3    H241601   5.506   4.291  15.834  1.3437  0.5007  1.0724
 6704TIP3   OH241602   4.822   4.631   6.068 -0.2004 -0.3914  0.5054
 6704TIP3    H141603   4.891   4.671   6.014 -1.9039  0.2248 -1.3546
 6704TIP3    H241604   4.867   4.602   6.147  2.1744 -0.0227 -0.6258
 6705TIP3   OH241605   4.733   2.425  11.033  0.0655  0.0646  0.7530
 6705TIP3    H141606   4.680   2.346  11.030 -0.7698  0.6298 -0.6160
 6705TIP3    H241607   4.766   2.435  10.944 -1.2826  2.1551  0.4130
 6706TIP3   OH241608   5.651   6.645   4.925  0.7607  0.2683  0.3089
 6706TIP3    H141609   5.725   6.588   4.948 -1.4585 -2.1918  1.8282
 6706TIP3    H241610   5.608   6.663   5.008 -0.7566  1.1012 -0.6212
 6707TIP3   OH241611   0.933   0.022  16.361  0.4686  0.5062  0.0396
 6707TIP3    H141612   0.958   0.026  16.453 -0.2612 -2.1626  0.4195
 6707TIP3    H241613   1.016   0.022  16.314  1.0243 -1.3922  0.9211
 6708TIP3   OH241614   4.646   2.523   5.036  0.8792 -0.0329 -0.2672
 6708TIP3    H141615   4.696   2.484   5.108 -0.9420 -1.6077  0.2270
 6708TIP3    H241616   4.591   2.588   5.078  0.7557 -0.0243 -0.4409
 6709TIP3   OH241617   4.562   4.827  14.972 -0.3125  0.1270  0.4116
 6709TIP3    H141618   4.594   4.738  14.952  0.8833  0.2484  1.5664
 6709TIP3    H241619   4.479   4.813  15.018 -1.0142 -0.2977 -0.9440
 6710TIP3   OH241620   4.125   4.238   3.081 -0.0407 -0.0206  0.3304
 6710TIP3    H141621   4.163   4.312   3.033 -0.8656 -0.4729 -1.0733
 6710TIP3    H241622   4.132   4.164   3.020 -1.2221 -0.5852  0.8479
 6711TIP3   OH241623   2.640   2.706   4.023  0.0363 -0.3142  0.0366
 6711TIP3    H141624   2.691   2.785   4.004  1.0516 -0.9637 -0.0529
 6711TIP3    H241625   2.574   2.734   4.087  1.7365  0.1854  1.6906
 6712TIP3   OH241626   1.059   2.142   0.915  0.0025  0.3827  0.0503
 6712TIP3    H141627   1.116   2.216   0.895 -0.2675  0.2408 -1.3397
 6712TIP3    H241628   0.982   2.155   0.859 -1.8827  1.1677  2.6498
 6713TIP3   OH241629   4.613   5.489   6.016  0.3211  0.2642 -0.1159
 6713TIP3    H141630   4.607   5.535   6.100 -0.8382 -1.2638  0.6902
 6713TIP3    H241631   4.560   5.542   5.956  2.0024  1.9475 -0.2329
 6714TIP3   OH241632   5.000   4.758  13.359  0.2393  0.1728  0.8812
 6714TIP3    H141633   5.046   4.728  13.438 -0.1994 -0.0904  1.0411
 6714TIP3    H241634   5.019   4.691  13.294  0.9363  0.5927  0.6296
 6715TIP3   OH241635   3.437   3.378  15.091  0.4405 -0.1301 -0.2301
 6715TIP3    H141636   3.480   3.357  15.174  0.3955  0.4516 -0.0576
 6715TIP3    H241637   3.380   3.303  15.074  0.7459 -0.4329  0.0623
 6716TIP3   OH241638   0.259   6.812  11.299  0.9517  0.0403  0.3439
 6716TIP3    H141639   0.306   6.893  11.316  0.4277  0.6254 -0.9219
 6716TIP3    H241640   0.171   6.828  11.332  0.3320  0.6750 -1.4863
 6717TIP3   OH241641   2.957   2.860  11.271  0.7047  0.9409 -0.5827
 6717TIP3    H141642   3.021   2.907  11.218  1.4146  0.4019 -0.2252
 6717TIP3    H241643   2.893   2.826  11.208  0.7681  1.4909 -0.9445
 6718TIP3   OH241644   4.696   5.310   5.511 -0.2135  0.4319 -0.1394
 6718TIP3    H141645   4.636   5.241   5.539  1.2773 -0.9585 -0.2087
 6718TIP3    H241646   4.639   5.382   5.483 -1.8029 -0.1845  1.3386
 6719TIP3   OH241647   3.683   0.075  15.381 -0.3216  0.0835  1.2373
 6719TIP3    H141648   3.694   0.085  15.476  0.8210 -1.4440  1.2889
 6719TIP3    H241649   3.683  -0.019  15.367 -4.2488  0.0682  0.1142
 6720TIP3   OH241650   2.489   0.289   0.064  0.3095  0.4691  0.1417
 6720TIP3    H141651   2.477   0.243   0.147 -1.8359 -0.0773 -0.4321
 6720TIP3    H241652   2.546   0.362   0.086  0.1878  0.0568  1.9938
 6721TIP3   OH241653   0.849   4.159   0.430  0.3423 -0.0839  0.0404
 6721TIP3    H141654   0.835   4.104   0.507  0.7889 -3.6111 -2.1973
 6721TIP3    H241655   0.778   4.224   0.434 -0.1246 -0.6456  2.9451
 6722TIP3   OH241656   3.331   0.822  11.697 -0.1330  0.6108  0.0557
 6722TIP3    H141657   3.339   0.854  11.607 -3.1343  1.9451  0.1362
 6722TIP3    H241658   3.375   0.888  11.750 -1.6009  1.8382 -0.2007
 6723TIP3   OH241659   4.748   3.056  17.169 -0.4608  0.3343 -0.5727
 6723TIP3    H141660   4.777   3.083  17.256 -1.3838  0.7839 -0.3810
 6723TIP3    H241661   4.827   3.029  17.123 -0.0260 -0.3779  0.5676
 6724TIP3   OH241662   5.273   2.400   0.463  0.4188  0.8051 -0.2491
 6724TIP3    H141663   5.363   2.392   0.496  0.6063  1.1773 -0.6553
 6724TIP3    H241664   5.279   2.371   0.372  0.1816  1.1030 -0.3589
 6725TIP3   OH241665   2.534   3.324  15.717 -0.1620  0.3461  0.2138
 6725TIP3    H141666   2.590   3.397  15.690 -0.0497 -0.3157 -1.4764
 6725TIP3    H241667   2.560   3.305  15.807  0.6444  1.6027  0.2652
 6726TIP3   OH241668   4.456   4.969   2.549  0.2795 -0.3537  0.2442
 6726TIP3    H141669   4.537   5.001   2.508 -0.5665  0.5602 -0.7698
 6726TIP3    H241670   4.471   4.875   2.561  0.4505 -0.7677 -2.5328
 6727TIP3   OH241671   3.310   4.203   5.090 -0.2327  0.1827 -0.7162
 6727TIP3    H141672   3.324   4.138   5.158  0.4171  1.5573  0.5172
 6727TIP3    H241673   3.218   4.227   5.099 -0.1183  0.4474 -0.2337
 6728TIP3   OH241674   2.669   2.776  14.958  0.4720 -0.1762  0.1270
 6728TIP3    H141675   2.656   2.775  14.863  0.5104 -1.7105  0.1069
 6728TIP3    H241676   2.673   2.683  14.982  1.6087  0.1892  1.4746
 6729TIP3   OH241677   6.720   0.883  16.134 -0.0860 -0.4288 -0.0376
 6729TIP3    H141678   6.657   0.835  16.080 -0.8869 -0.3449  0.8131
 6729TIP3    H241679   6.797   0.827  16.136  0.0266 -0.3681 -1.3898
 6730TIP3   OH241680   3.473   2.147  13.242  0.2410  0.5044 -0.4802
 6730TIP3    H141681   3.484   2.224  13.297 -0.9999  1.0762 -1.0028
 6730TIP3    H241682   3.555   2.141  13.192  0.9696  0.5563  0.6719
 6731TIP3   OH241683   5.656   1.283  11.401 -0.0003 -0.5288  0.1994
 6731TIP3    H141684   5.724   1.218  11.382 -0.4352 -0.6654 -0.9595
 6731TIP3    H241685   5.581   1.255  11.349 -0.8528 -0.1980  1.2105
 6732TIP3   OH241686   3.933   6.021  14.416 -0.0104 -0.5537 -0.0750
 6732TIP3    H141687   4.013   6.004  14.467 -1.4050  1.8372  3.2941
 6732TIP3    H241688   3.882   5.940  14.424  0.3719 -0.6914  1.3689
 6733TIP3   OH241689   5.664   5.023   2.951 -0.4428  0.2440  0.9352
 6733TIP3    H141690   5.651   5.025   3.046  0.6230 -0.6674  1.1172
 6733TIP3    H241691   5.593   4.967   2.919 -2.1654  2.2990  0.8981
 6734TIP3   OH241692   5.452   5.657  16.436 -0.5528  0.7554 -0.7811
 6734TIP3    H141693   5.418   5.732  16.486  0.1775  0.7684 -0.2837
 6734TIP3    H241694   5.529   5.690  16.391  0.6557 -0.0308  0.6125
 6735TIP3   OH241695   1.255   6.695   1.324 -0.1000 -0.1742  0.6564
 6735TIP3    H141696   1.267   6.606   1.291  0.3514  0.2697 -0.4042
 6735TIP3    H241697   1.215   6.683   1.411 -0.9894 -1.3648  0.1054
 6736TIP3   OH241698   2.236   0.025   4.154 -0.5190  0.4329 -0.8209
 6736TIP3    H141699   2.310  -0.009   4.103 -0.6592 -1.0082 -0.1300
 6736TIP3    H241700   2.180   0.069   4.089  0.1949  0.2207 -1.5981
 6737TIP3   OH241701   1.180   3.227  13.568 -0.1231 -0.1885 -0.3976
 6737TIP3    H141702   1.249   3.188  13.514 -0.2149  0.2244 -0.8271
 6737TIP3    H241703   1.120   3.266  13.504  0.8377  2.1313  0.0241
 6738TIP3   OH241704   2.117   1.120   3.047  0.7709 -0.4105  0.0151
 6738TIP3    H141705   2.033   1.111   3.002 -0.2521  0.3710  1.6686
 6738TIP3    H241706   2.122   1.213   3.070  1.1936 -0.7832  1.5750
 6739TIP3   OH241707   4.905   4.850  11.341 -0.1087  0.1635 -0.1471
 6739TIP3    H141708   4.917   4.898  11.422 -0.6106  0.3508 -0.1791
 6739TIP3    H241709   4.827   4.890  11.300 -2.4709 -2.5878  1.2624
 6740TIP3   OH241710   2.852   5.380  12.387  0.2791 -0.0166 -0.3686
 6740TIP3    H141711   2.847   5.306  12.326 -1.4062 -0.2757  0.0302
 6740TIP3    H241712   2.837   5.457  12.332 -1.1473 -0.2423 -0.3303
 6741TIP3   OH241713   0.026   1.134   1.734 -0.0052 -0.1904 -0.4910
 6741TIP3    H141714   0.096   1.145   1.669  0.5834 -1.1226 -0.0472
 6741TIP3    H241715   0.049   1.195   1.804  0.9307 -1.1815  0.0955
 6742TIP3   OH241716   4.488   3.502  14.991  0.0722  0.5634  0.0441
 6742TIP3    H141717   4.427   3.503  15.065  0.7147  0.7469  0.5770
 6742TIP3    H241718   4.444   3.555  14.924 -2.2037 -2.5455 -1.1460
 6743TIP3   OH241719   3.000   2.288  12.608  0.1207  0.2636 -0.3325
 6743TIP3    H141720   3.001   2.204  12.561  0.5070 -0.5766  1.0989
 6743TIP3    H241721   3.061   2.343  12.559 -0.5363 -0.0933 -1.6038
 6744TIP3   OH241722   2.793   1.022  15.424  0.4045  0.3844  0.8396
 6744TIP3    H141723   2.844   1.066  15.493 -0.9422  1.5938  1.0882
 6744TIP3    H241724   2.724   0.976  15.472  0.6689 -0.4646  0.4252
 6745TIP3   OH241725   3.822   5.406   2.109  0.0020 -0.0728  0.1422
 6745TIP3    H141726   3.845   5.485   2.158 -0.4260  0.9619 -1.2522
 6745TIP3    H241727   3.901   5.385   2.060  0.2671 -0.8022  0.8755
 6746TIP3   OH241728   2.009   4.332  12.188 -0.2631 -0.4974  0.7545
 6746TIP3    H141729   1.918   4.300  12.193  0.0424 -1.5096  0.1634
 6746TIP3    H241730   2.058   4.271  12.243  0.2558 -0.7527  0.0237
 6747TIP3   OH241731   2.606   1.112  16.783  0.0235 -0.9257  0.0674
 6747TIP3    H141732   2.676   1.160  16.738 -0.6826  0.6571  0.6176
 6747TIP3    H241733   2.525   1.151  16.751 -0.5270 -0.2039  2.1697
 6748TIP3   OH241734   5.636   1.657  13.357 -0.4584 -0.2458  0.7490
 6748TIP3    H141735   5.549   1.662  13.396 -1.2673 -1.2063 -0.8421
 6748TIP3    H241736   5.628   1.704  13.274  0.1478 -1.4759 -0.0367
 6749TIP3   OH241737   3.781   1.483   3.609 -0.3318 -0.2892 -0.1257
 6749TIP3    H141738   3.797   1.437   3.691  1.2295  0.0218 -0.2245
 6749TIP3    H241739   3.854   1.458   3.552  0.7491  2.4717 -0.0970
 6750TIP3   OH241740   0.677   2.981   1.340 -0.6100 -0.1858 -0.4531
 6750TIP3    H141741   0.637   3.067   1.329 -0.6716 -0.0637  0.6730
 6750TIP3    H241742   0.618   2.934   1.399 -1.0764 -1.3452 -1.7676
 6751TIP3   OH241743   4.641   0.136  12.938 -0.3470 -0.3716  0.1066
 6751TIP3    H141744   4.554   0.134  12.978 -0.5398  1.4530 -0.1270
 6751TIP3    H241745   4.642   0.060  12.880 -1.4738 -0.8877  0.7140
 6752TIP3   OH241746   4.486   2.133  12.604 -0.4789  0.4564  0.3314
 6752TIP3    H141747   4.482   2.053  12.552 -1.5475  1.1350 -0.7067
 6752TIP3    H241748   4.407   2.130  12.658  0.5997 -0.2191  1.9362
 6753TIP3   OH241749   5.541   5.368   2.120  0.1320  0.2234 -0.0455
 6753TIP3    H141750   5.468   5.311   2.144 -0.2265  1.1031  1.0851
 6753TIP3    H241751   5.555   5.422   2.198  0.3557  1.7634 -1.0945
 6754TIP3   OH241752   3.189   0.291  12.180 -0.0315 -0.0156 -0.3240
 6754TIP3    H141753   3.191   0.331  12.093  0.7400 -2.1564 -1.3761
 6754TIP3    H241754   3.172   0.198  12.162  0.9469 -0.6435  1.7533
 6755TIP3   OH241755   0.119   2.974  15.572 -0.0768  0.0593  0.3885
 6755TIP3    H141756   0.099   2.952  15.663 -1.8764  0.8856  0.2430
 6755TIP3    H241757   0.208   2.943  15.559 -0.3695 -1.5942  1.9296
 6756TIP3   OH241758   2.804   0.912   5.869 -0.2764  0.1676 -0.1578
 6756TIP3    H141759   2.793   1.003   5.898 -1.4286 -0.2761  0.9021
 6756TIP3    H241760   2.792   0.915   5.774  2.0639  1.4468 -0.4848
 6757TIP3   OH241761   5.921   0.069  16.539 -0.1684  0.3880 -0.6979
 6757TIP3    H141762   5.949   0.110  16.456  0.3572 -1.1579 -1.3247
 6757TIP3    H241763   6.002   0.036  16.577 -0.7946 -2.7311 -1.7364
 6758TIP3   OH241764   1.995   1.766   4.748 -0.9529 -0.3281 -0.1137
 6758TIP3    H141765   1.999   1.747   4.655 -0.7608 -0.5040 -0.0697
 6758TIP3    H241766   2.014   1.860   4.755 -3.2064  0.2146 -0.4539
 6759TIP3   OH241767   2.350   2.183   5.367  0.3619  0.1975 -0.4552
 6759TIP3    H141768   2.387   2.247   5.307  2.1548 -0.6349 -0.2969
 6759TIP3    H241769   2.313   2.115   5.310  0.1220  0.4615 -0.6150
 6760TIP3   OH241770   0.746   1.587  14.154  0.3103  0.5144  0.0956
 6760TIP3    H141771   0.840   1.572  14.161  0.2125  0.1633  0.7214
 6760TIP3    H241772   0.721   1.629  14.236 -0.0179  0.9736 -0.2302
 6761TIP3   OH241773   0.161   1.866   5.812  0.1761 -0.4000 -0.4743
 6761TIP3    H141774   0.176   1.812   5.889  0.6343 -0.1404 -0.3824
 6761TIP3    H241775   0.177   1.955   5.841  2.3164 -0.4379 -1.3356
 6762TIP3   OH241776   2.522   3.232  13.481 -0.0799  0.1387 -0.2835
 6762TIP3    H141777   2.504   3.313  13.528 -0.2130 -0.1569  0.1865
 6762TIP3    H241778   2.531   3.258  13.389  0.5030  0.7677 -0.0519
 6763TIP3   OH241779   3.112   6.601   5.339  0.4113 -0.0622 -0.1766
 6763TIP3    H141780   3.182   6.562   5.287  0.5472  2.4652 -2.0485
 6763TIP3    H241781   3.112   6.694   5.315 -2.6885  0.3075  0.7529
 6764TIP3   OH241782   0.793   1.040  14.995  0.1401 -0.2558 -0.1167
 6764TIP3    H141783   0.727   1.079  14.938 -0.1555 -0.1947  0.2567
 6764TIP3    H241784   0.761   1.058  15.084  0.4823 -0.5296  0.0657
 6765TIP3   OH241785   2.934   6.710   1.967 -0.1672  0.4182 -0.0159
 6765TIP3    H141786   2.900   6.739   1.882 -0.0029  0.5540 -0.0354
 6765TIP3    H241787   2.860   6.665   2.008  0.2984 -1.4578 -1.0824
 6766TIP3   OH241788   3.021   4.970  12.264  0.2611  0.3108 -0.0393
 6766TIP3    H141789   3.028   4.879  12.290  0.8800 -0.3831 -2.4077
 6766TIP3    H241790   3.099   4.986  12.211 -1.2962  1.3025 -2.1656
 6767TIP3   OH241791   5.475   1.805  14.470 -0.4026  0.5867  0.0091
 6767TIP3    H141792   5.390   1.839  14.497  0.2363  0.0861  2.9352
 6767TIP3    H241793   5.460   1.711  14.459 -0.1863  0.4454  0.8521
 6768TIP3   OH241794   3.058   1.242   4.774  0.7021 -0.2187 -0.2431
 6768TIP3    H141795   3.062   1.174   4.841  0.3006  0.6079  0.6489
 6768TIP3    H241796   3.075   1.323   4.821  1.9465  0.2443 -1.4162
 6769TIP3   OH241797   1.752   2.358  12.313  0.2349 -0.0397  0.0095
 6769TIP3    H141798   1.672   2.307  12.321 -1.2984  1.8676 -1.9203
 6769TIP3    H241799   1.795   2.324  12.235 -1.0365  1.7462 -1.5719
 6770TIP3   OH241800   5.649   4.447   6.239  0.5574 -0.6062  0.2445
 6770TIP3    H141801   5.581   4.443   6.172  0.8746 -1.3596 -0.0395
 6770TIP3    H241802   5.603   4.428   6.321  0.2925 -0.3686  0.1530
 6771TIP3   OH241803   4.940   6.778  12.028  0.3833 -0.1945 -0.4089
 6771TIP3    H141804   4.912   6.765  12.118  0.1946  1.3450 -0.2243
 6771TIP3    H241805   4.903   6.703  11.980 -0.5362 -0.3814  0.5661
 6772TIP3   OH241806   0.341   4.145  14.011  0.5772 -0.5038  0.8272
 6772TIP3    H141807   0.324   4.235  13.983 -0.4615 -1.3433 -1.4350
 6772TIP3    H241808   0.269   4.124  14.070  1.0951  0.2466  1.7836
 6773TIP3   OH241809   2.122   0.454   3.960  0.1792 -0.3367  0.0600
 6773TIP3    H141810   2.113   0.549   3.953  0.6753 -0.3546 -1.0398
 6773TIP3    H241811   2.034   0.423   3.983 -0.6480  0.1876 -2.1603
 6774TIP3   OH241812   2.738   5.434  15.567  0.1310  0.6790 -0.0500
 6774TIP3    H141813   2.708   5.345  15.547 -0.7524  0.6831  1.1672
 6774TIP3    H241814   2.664   5.491  15.544  0.8861  1.1757 -1.3360
 6775TIP3   OH241815   1.702   2.476   1.908  0.1529  0.9490 -0.3736
 6775TIP3    H141816   1.719   2.470   1.814 -0.7478  0.3557 -0.5091
 6775TIP3    H241817   1.712   2.569   1.929 -0.7988  1.2742 -1.2907
 6776TIP3   OH241818   6.638   1.466  16.642 -0.0405  0.3018  0.2988
 6776TIP3    H141819   6.560   1.459  16.697  0.2909  1.1674  0.8999
 6776TIP3    H241820   6.664   1.558  16.648  1.9715 -0.2713  1.4665
 6777TIP3   OH241821   0.832   1.273   1.143 -0.4000  0.0297  0.2275
 6777TIP3    H141822   0.791   1.275   1.057  1.1168  2.1249 -0.5547
 6777TIP3    H241823   0.783   1.337   1.194 -0.2018  0.0817  0.3527
 6778TIP3   OH241824   1.568   3.438   3.565  0.6190 -0.0468  0.1574
 6778TIP3    H141825   1.473   3.445   3.573  0.6440 -1.1727  1.9380
 6778TIP3    H241826   1.599   3.422   3.654  2.3123 -1.4333 -0.6191
 6779TIP3   OH241827   5.328   1.511   1.859  0.1639 -0.2179  0.0766
 6779TIP3    H141828   5.370   1.533   1.942  0.9907 -1.6839  0.0791
 6779TIP3    H241829   5.356   1.580   1.799  1.0892 -0.1507  0.5586
 6780TIP3   OH241830   0.508   4.809   2.439 -0.1913 -0.3084  0.0041
 6780TIP3    H141831   0.528   4.752   2.365 -1.9958 -2.7578  1.2879
 6780TIP3    H241832   0.542   4.763   2.516  0.7409  1.6955  0.8695
 6781TIP3   OH241833   3.018   6.595   4.932  0.0103 -0.6650  0.1324
 6781TIP3    H141834   3.108   6.625   4.917  0.0898 -1.0310 -0.1279
 6781TIP3    H241835   2.977   6.597   4.846 -0.5032  0.3525  0.3868
 6782TIP3   OH241836   4.088   1.965   3.441 -0.5086  0.1209 -0.4724
 6782TIP3    H141837   4.175   2.001   3.458 -0.2577 -0.2237 -1.0160
 6782TIP3    H241838   4.056   2.013   3.365 -0.2219 -0.7085 -1.1256
 6783TIP3   OH241839   3.644   6.399  14.690  0.0954 -0.1350 -0.0508
 6783TIP3    H141840   3.555   6.370  14.673 -0.4259  1.1407  0.3589
 6783TIP3    H241841   3.699   6.334  14.647 -1.0559  1.2529 -4.0521
 6784TIP3   OH241842   1.052   2.486  14.758  0.6126  0.5708  0.7400
 6784TIP3    H141843   1.095   2.527  14.833  0.3257  1.0377  0.6542
 6784TIP3    H241844   1.061   2.392  14.773  1.1644  0.6639  1.0081
 6785TIP3   OH241845   4.995   5.393  13.365  0.2964 -0.2913  0.3311
 6785TIP3    H141846   5.011   5.479  13.327 -0.9079 -0.1373  0.1267
 6785TIP3    H241847   4.965   5.411  13.455  0.1288 -0.4934  0.3180
 6786TIP3   OH241848   2.768   2.458   2.164 -0.1739  0.3309 -0.2178
 6786TIP3    H141849   2.718   2.507   2.229  1.6646  1.7382  0.2097
 6786TIP3    H241850   2.787   2.522   2.095 -0.0950 -0.5335 -1.0296
 6787TIP3   OH241851   5.764   5.613  16.541 -0.0236  0.6091 -0.4719
 6787TIP3    H141852   5.833   5.603  16.606 -0.2047  0.1199 -0.3512
 6787TIP3    H241853   5.716   5.692  16.567 -1.9001 -1.1090  1.6903
 6788TIP3   OH241854   6.461   4.628  11.343 -0.4360 -0.3381 -0.5560
 6788TIP3    H141855   6.388   4.687  11.363  0.4451  0.7695 -0.5338
 6788TIP3    H241856   6.515   4.629  11.422 -0.1068 -0.7181 -0.7728
 6789TIP3   OH241857   6.795   1.758  14.303  0.0676  0.4619  0.1813
 6789TIP3    H141858   6.830   1.672  14.279 -0.3930 -0.5533  2.7701
 6789TIP3    H241859   6.713   1.765  14.255 -0.2857 -0.9497  0.5203
 6790TIP3   OH241860   1.190   0.752   0.855  0.5724  0.2758  0.4908
 6790TIP3    H141861   1.217   0.664   0.827 -2.3090 -1.6203  2.9997
 6790TIP3    H241862   1.262   0.782   0.911  1.0713 -1.0181  0.5882
 6791TIP3   OH241863   2.779   0.050   4.607 -0.0921 -0.3215 -0.0915
 6791TIP3    H141864   2.835   0.053   4.529 -0.5513 -2.0566 -0.5459
 6791TIP3    H241865   2.708   0.111   4.588 -0.0759 -0.5503 -0.9621
 6792TIP3   OH241866   5.508   4.183  11.591  0.2010 -0.2088 -0.0711
 6792TIP3    H141867   5.524   4.120  11.521  3.1164 -0.6571  0.8712
 6792TIP3    H241868   5.541   4.266  11.556 -0.6243  0.1269 -0.0906
 6793TIP3   OH241869   1.559   6.040   6.450  0.4626  0.1905  0.3005
 6793TIP3    H141870   1.604   6.123   6.437  0.3019  0.3616  0.7957
 6793TIP3    H241871   1.622   5.984   6.496 -0.3213  0.9599  2.4440
 6794TIP3   OH241872   6.255   3.281  12.083 -0.8439 -0.1685 -0.1876
 6794TIP3    H141873   6.179   3.339  12.096 -0.5395  0.0242  0.8461
 6794TIP3    H241874   6.300   3.317  12.007 -0.1044  1.6173  1.0214
 6795TIP3   OH241875   0.678   4.405  15.159 -0.5870 -0.2274  0.5603
 6795TIP3    H141876   0.712   4.337  15.217 -3.3290 -1.3709  0.9888
 6795TIP3    H241877   0.605   4.443  15.207 -1.8742 -0.0309 -1.4063
 6796TIP3   OH241878   1.641   1.191   1.352  0.1310 -0.2313  0.5744
 6796TIP3    H141879   1.719   1.162   1.304 -1.1401 -2.5299 -0.2710
 6796TIP3    H241880   1.672   1.208   1.441  2.3079  2.8277 -0.6171
 6797TIP3   OH241881   1.099   1.701  17.006 -0.1241 -0.3284 -0.1695
 6797TIP3    H141882   1.135   1.776  17.052  0.5076 -1.2965  0.9764
 6797TIP3    H241883   1.051   1.652  17.073 -1.2772 -0.5122 -1.0803
 6798TIP3   OH241884   3.768   5.793  14.426  0.4375  0.3402 -0.1271
 6798TIP3    H141885   3.781   5.800  14.521 -1.4176  0.2849  0.1753
 6798TIP3    H241886   3.749   5.700  14.411 -0.9950  0.6237 -0.2606
 6799TIP3   OH241887   4.126   3.042   4.464  0.1202 -0.2089 -0.1194
 6799TIP3    H141888   4.091   3.061   4.551  0.7763 -1.8519  0.5313
 6799TIP3    H241889   4.113   2.948   4.452 -0.5222  0.0845 -2.0748
 6800TIP3   OH241890   4.674   4.952  12.367  0.0555 -0.3475 -0.3399
 6800TIP3    H141891   4.720   4.920  12.290  1.1099  1.4207 -0.4839
 6800TIP3    H241892   4.589   4.983  12.333  0.2064 -0.2866 -0.6647
 6801TIP3   OH241893   2.115   4.664   4.702  0.0537  0.3723  0.3030
 6801TIP3    H141894   2.056   4.637   4.773  0.2744 -0.6381  0.1113
 6801TIP3    H241895   2.083   4.617   4.625  0.4566  0.6568 -0.0410
 6802TIP3   OH241896   0.118   6.790   5.255 -0.2711 -0.5971 -0.0751
 6802TIP3    H141897   0.138   6.879   5.284 -0.1900 -0.6420  0.0067
 6802TIP3    H241898   0.200   6.742   5.264  0.3014 -0.1347 -2.3004
 6803TIP3   OH241899   0.062   2.194  16.301 -0.3146 -0.0515  0.0929
 6803TIP3    H141900   0.083   2.276  16.346  0.6480  0.1599 -0.6840
 6803TIP3    H241901   0.081   2.213  16.209  0.0341 -1.1835 -0.0784
 6804TIP3   OH241902   0.800   0.829  15.238 -1.0533 -0.3952  0.1345
 6804TIP3    H141903   0.731   0.894  15.225 -0.4809  0.3847  0.8917
 6804TIP3    H241904   0.797   0.810  15.331  0.0259 -0.0267  0.2613
 6805TIP3   OH241905   5.795   2.385  16.208 -0.0136 -0.2737 -0.2256
 6805TIP3    H141906   5.793   2.422  16.120 -2.2229 -1.2041 -0.6303
 6805TIP3    H241907   5.708   2.403  16.244 -0.0542 -2.1862  0.7629
 6806TIP3   OH241908   4.349   0.502   2.041 -0.3190 -0.1734 -0.2474
 6806TIP3    H141909   4.335   0.450   1.962  1.4345 -0.1971 -0.5871
 6806TIP3    H241910   4.368   0.437   2.109 -2.1847 -0.1772  0.3223
 6807TIP3   OH241911   0.020   0.474  10.993 -0.3347  0.6338 -0.2056
 6807TIP3    H141912  -0.003   0.425  10.914  1.0890 -0.3589 -0.0337
 6807TIP3    H241913   0.072   0.547  10.960  0.4706  0.0811 -0.1800
 6808TIP3   OH241914   4.594   3.139  12.508  0.5197 -0.1268  0.1580
 6808TIP3    H141915   4.614   3.051  12.476 -0.7918 -0.6786  0.7695
 6808TIP3    H241916   4.664   3.160  12.569  1.8700  0.0510 -1.3961
 6809TIP3   OH241917   3.650   5.890  16.528  0.4389  0.2782  0.1776
 6809TIP3    H141918   3.683   5.902  16.616 -0.5909  3.8403  0.2543
 6809TIP3    H241919   3.719   5.925  16.471  1.1285 -2.0526 -0.5031
 6810TIP3   OH241920   4.345   0.471  12.196 -0.0191  0.6780 -0.3927
 6810TIP3    H141921   4.346   0.490  12.290  4.2378  1.8349 -0.4857
 6810TIP3    H241922   4.397   0.391  12.187  1.1626  1.5841 -1.8816
 6811TIP3   OH241923   0.895   3.738  13.180  1.0753 -0.0877  0.2328
 6811TIP3    H141924   0.976   3.787  13.169  1.3449 -0.7691 -1.0944
 6811TIP3    H241925   0.922   3.653  13.213  0.6621  0.4292  1.9870
 6812TIP3   OH241926   2.578   4.985   5.264  0.7271 -0.0092 -0.5677
 6812TIP3    H141927   2.606   5.075   5.282 -3.8097  1.6563 -0.4797
 6812TIP3    H241928   2.607   4.968   5.175  0.2854  2.2819 -1.2314
 6813TIP3   OH241929   5.613   0.641   3.607 -0.4171  0.3023  0.2546
 6813TIP3    H141930   5.523   0.668   3.625 -0.2744  1.6335 -0.8008
 6813TIP3    H241931   5.666   0.695   3.666 -0.2350  0.9523 -0.4781
 6814TIP3   OH241932   6.104   2.110   2.633 -0.0933 -0.6414  0.6657
 6814TIP3    H141933   6.026   2.150   2.671 -0.1008 -0.3575  0.3636
 6814TIP3    H241934   6.170   2.117   2.701 -0.5972 -1.7731  1.2857
 6815TIP3   OH241935   2.061   2.777   2.008  0.0675 -0.1529 -0.3469
 6815TIP3    H141936   2.010   2.770   1.928 -2.0608 -1.8088  1.0441
 6815TIP3    H241937   1.996   2.775   2.078  1.9236 -0.1363  1.4765
 6816TIP3   OH241938   5.879   6.082  15.866 -0.2454 -0.0313 -0.4890
 6816TIP3    H141939   5.914   6.115  15.949 -1.2466 -0.6965  0.2155
 6816TIP3    H241940   5.955   6.043  15.822  0.1434 -0.3663  0.4557
 6817TIP3   OH241941   0.249   5.859  13.769 -0.8695 -0.8079  0.0511
 6817TIP3    H141942   0.225   5.858  13.676  0.7735  0.5542 -0.4532
 6817TIP3    H241943   0.204   5.783  13.806 -1.2535 -1.6325 -1.9400
 6818TIP3   OH241944   3.971   1.529   3.145  0.1586  0.0933 -0.6479
 6818TIP3    H141945   4.023   1.540   3.224  1.3920  1.1172 -1.5664
 6818TIP3    H241946   3.981   1.437   3.122  0.2824 -0.0704  0.0387
 6819TIP3   OH241947   0.137   4.592  16.031  0.3813 -0.4232  0.5509
 6819TIP3    H141948   0.106   4.550  16.112 -0.3798 -0.6176  0.1656
 6819TIP3    H241949   0.154   4.683  16.057 -0.0536 -0.4308  0.8912
 6820TIP3   OH241950   6.509   3.008   1.917  0.0774 -0.3911 -0.9008
 6820TIP3    H141951   6.414   3.008   1.909  0.0738 -2.9267 -1.6556
 6820TIP3    H241952   6.530   2.922   1.955  2.0000  0.6916  0.7190
 6821TIP3   OH241953   4.077   2.775   4.525  0.3637 -0.3298  0.5097
 6821TIP3    H141954   4.014   2.705   4.511 -1.7335  1.3943  0.8760
 6821TIP3    H241955   4.078   2.787   4.620  1.2547 -0.3276  0.5074
 6822TIP3   OH241956   5.120   4.494   0.989 -0.2671  0.3540  0.3282
 6822TIP3    H141957   5.054   4.424   0.984  0.0656 -0.1018  1.7229
 6822TIP3    H241958   5.076   4.571   0.953 -0.4884 -0.6477 -1.7256
 6823TIP3   OH241959   1.748   0.573   0.267 -0.0381 -0.3195  0.2068
 6823TIP3    H141960   1.824   0.627   0.289  0.5318 -0.5285 -1.1785
 6823TIP3    H241961   1.762   0.491   0.314 -0.3624  0.2954  1.4422
 6824TIP3   OH241962   6.210   5.669  15.414  0.4008 -0.3166 -0.1470
 6824TIP3    H141963   6.192   5.741  15.475  0.1446 -0.8490  0.4198
 6824TIP3    H241964   6.125   5.646  15.377  0.5606  0.0232 -0.7389
 6825TIP3   OH241965   1.916   1.168  11.544 -0.0988  0.4951 -0.0189
 6825TIP3    H141966   1.904   1.222  11.466 -1.1448  4.4309  2.5823
 6825TIP3    H241967   2.001   1.193  11.578 -0.7500  0.8141  1.4465
 6826TIP3   OH241968   6.652   1.308   3.255  0.2969 -0.0285 -0.7328
 6826TIP3    H141969   6.617   1.397   3.252  0.9006  0.2675  0.4665
 6826TIP3    H241970   6.741   1.317   3.221  0.7765  0.0524  0.5182
 6827TIP3   OH241971   4.051   2.680   3.563  0.0685 -0.4299 -0.2188
 6827TIP3    H141972   4.002   2.692   3.482  0.6873  1.1662 -0.3922
 6827TIP3    H241973   4.142   2.669   3.535  0.1811 -0.6855  0.2309
 6828TIP3   OH241974   3.007   1.060  12.342 -0.9447 -0.0704  0.6499
 6828TIP3    H141975   2.973   1.086  12.257  2.5152  1.4933 -0.4594
 6828TIP3    H241976   3.011   0.964  12.339  0.3939  0.0043 -1.5781
 6829TIP3   OH241977   2.762   3.788  15.503 -0.1680  0.3020  0.0997
 6829TIP3    H141978   2.739   3.821  15.589  0.6647 -0.8058  0.7832
 6829TIP3    H241979   2.709   3.839  15.442  0.1176  1.9530  1.1728
 6830TIP3   OH241980   0.268   4.730  15.100 -0.0913 -0.1048 -0.0495
 6830TIP3    H141981   0.285   4.653  15.045 -0.5690 -0.9013  0.8985
 6830TIP3    H241982   0.173   4.738  15.102 -0.0540  0.4004  0.0275
 6831TIP3   OH241983   2.887   1.376  11.467 -0.5237  0.4992 -0.3011
 6831TIP3    H141984   2.810   1.362  11.522 -0.9014  1.7302 -0.4706
 6831TIP3    H241985   2.861   1.446  11.407 -0.3456 -1.2135 -2.5054
 6832TIP3   OH241986   1.946   3.967   0.479  0.2764 -0.3550 -0.2930
 6832TIP3    H141987   1.964   3.883   0.438 -0.2287 -0.3507 -0.5251
 6832TIP3    H241988   1.918   3.945   0.568 -0.9364 -0.5076 -0.6956
 6833TIP3   OH241989   0.076   6.102   0.552 -0.0659 -0.1401 -0.0489
 6833TIP3    H141990   0.115   6.067   0.472  0.4521 -1.1743  0.6324
 6833TIP3    H241991   0.019   6.032   0.583  0.6908 -0.2497  1.1379
 6834TIP3   OH241992   5.260   0.687  17.048 -0.1105  0.3491 -0.1602
 6834TIP3    H141993   5.232   0.778  17.038  3.9692  1.6995 -1.1981
 6834TIP3    H241994   5.306   0.668  16.966  1.7433 -1.5948  1.2527
 6835TIP3   OH241995   6.801   2.572  14.170  0.2008 -0.0320 -0.2512
 6835TIP3    H141996   6.782   2.479  14.170 -1.4175  0.2639 -1.0734
 6835TIP3    H241997   6.862   2.584  14.244 -0.2128 -1.5895  0.3858
 6836TIP3   OH241998   6.589   3.337   3.633  0.5623 -0.2157  0.1857
 6836TIP3    H141999   6.660   3.357   3.573  1.0589 -0.4173  0.6910
 6836TIP3    H242000   6.541   3.419   3.642  1.3320  0.2020  0.6218
 6837TIP3   OH242001   3.141   0.095  14.183 -0.4170  0.2916 -0.0355
 6837TIP3    H142002   3.146   0.018  14.240  1.0061 -0.8878 -1.6375
 6837TIP3    H242003   3.222   0.091  14.132 -1.1053  1.9366 -1.3281
 6838TIP3   OH242004   1.461   0.006  15.380 -0.1318 -0.1128  0.3363
 6838TIP3    H142005   1.473   0.023  15.474 -0.2745 -0.2068  0.3718
 6838TIP3    H242006   1.366  -0.002  15.369 -0.1839  0.8050  0.0271
 6839TIP3   OH242007   6.495   5.046   2.105 -0.2367 -0.6584  0.7847
 6839TIP3    H142008   6.489   4.958   2.069  2.1222 -1.2758  1.7030
 6839TIP3    H242009   6.521   5.033   2.196 -0.8916  0.9689  1.2316
 6840TIP3   OH242010   0.205   6.088   5.573  0.7036  0.6306 -0.1748
 6840TIP3    H142011   0.177   6.056   5.659  1.7292  0.6574  0.1794
 6840TIP3    H242012   0.125   6.088   5.520  0.0751  0.5578  0.7597
 6841TIP3   OH242013   5.247   1.461   3.533  0.3436  0.1404 -0.3791
 6841TIP3    H142014   5.209   1.377   3.560 -1.8699  0.2328 -2.7924
 6841TIP3    H242015   5.185   1.527   3.566  0.3866  0.5941 -1.1935
 6842TIP3   OH242016   5.714   3.886  16.705  0.5744 -0.3725 -0.0283
 6842TIP3    H142017   5.667   3.802  16.712  1.4664 -0.8574  0.2813
 6842TIP3    H242018   5.668   3.932  16.634 -0.2747 -0.8881  0.1631
 6843TIP3   OH242019   0.132   2.311   0.165  0.0786  0.4816  0.5119
 6843TIP3    H142020   0.089   2.368   0.101  0.1791  0.8524  0.7717
 6843TIP3    H242021   0.068   2.241   0.182 -0.6607  1.3232  1.3148
 6844TIP3   OH242022   3.449   4.495   4.414 -0.1056  0.3831 -0.1229
 6844TIP3    H142023   3.418   4.434   4.481  1.1958 -1.2281 -0.9056
 6844TIP3    H242024   3.376   4.500   4.351 -1.7690  2.7454  1.8392
 6845TIP3   OH242025   4.912   1.082  14.906  0.1610  0.2328 -0.4107
 6845TIP3    H142026   4.998   1.054  14.938  0.3723 -0.0906 -1.2359
 6845TIP3    H242027   4.922   1.088  14.811 -0.1908  2.0611 -0.3727
 6846TIP3   OH242028   2.800   5.071   1.957 -0.4725  0.6194  0.0620
 6846TIP3    H142029   2.788   5.052   1.864 -0.8344  0.1731  0.1939
 6846TIP3    H242030   2.789   4.986   2.000  0.3692  0.6960  0.4510
 6847TIP3   OH242031   4.343   4.483  13.345 -0.1506 -0.1136 -0.3659
 6847TIP3    H142032   4.328   4.390  13.366  0.4354 -0.2373 -0.4873
 6847TIP3    H242033   4.278   4.503  13.278 -0.2633 -0.4437 -0.3573
 6848TIP3   OH242034   5.304   1.604   0.302  0.1822  0.0680 -0.9242
 6848TIP3    H142035   5.341   1.530   0.349  0.9635 -0.1075 -1.7957
 6848TIP3    H242036   5.286   1.571   0.214  0.3938  0.8556 -1.2769
 6849TIP3   OH242037   1.156   5.884  14.150 -0.3027 -0.2241  0.4018
 6849TIP3    H142038   1.120   5.795  14.159 -1.3342  0.2404  0.9880
 6849TIP3    H242039   1.204   5.882  14.067 -1.5764 -0.9129 -0.3496
 6850TIP3   OH242040   1.088   0.460   1.891 -0.0878  0.5260 -0.3248
 6850TIP3    H142041   1.003   0.504   1.899  0.4041  1.4230  0.0633
 6850TIP3    H242042   1.146   0.527   1.855  0.9433  0.5469  1.2929
 6851TIP3   OH242043   1.455   1.589  13.203 -0.2491  0.4510  0.5360
 6851TIP3    H142044   1.467   1.533  13.280  1.0690 -0.5278 -0.3351
 6851TIP3    H242045   1.544   1.610  13.175 -0.6824  0.2144 -1.1123
 6852TIP3   OH242046   0.518   0.613   2.638 -0.6316  0.0274 -0.1753
 6852TIP3    H142047   0.532   0.693   2.688  2.2052 -0.6942  0.3631
 6852TIP3    H242048   0.551   0.631   2.551 -2.2300  0.1365 -0.8022
 6853TIP3   OH242049   4.576   3.813  14.239 -0.0265 -0.3342  0.2008
 6853TIP3    H142050   4.510   3.859  14.187  1.0664  0.1366 -0.8166
 6853TIP3    H242051   4.604   3.740  14.184  0.9136 -0.0282  0.2499
 6854TIP3   OH242052   6.435   0.570  12.523  0.4070  0.5515 -0.7623
 6854TIP3    H142053   6.487   0.523  12.456  0.9480  0.4630 -0.2874
 6854TIP3    H242054   6.380   0.502  12.561  1.4521  0.1960  0.1786
 6855TIP3   OH242055   0.248   1.150   1.576 -0.6409  0.4605 -0.2011
 6855TIP3    H142056   0.225   1.070   1.529 -0.9512  0.3338  0.1541
 6855TIP3    H242057   0.340   1.138   1.600 -0.7375  0.1258  0.0120
 6856TIP3   OH242058   4.837   4.352   4.391  0.0891  0.0360  0.2226
 6856TIP3    H142059   4.912   4.389   4.438  1.7675 -0.7264 -1.7016
 6856TIP3    H242060   4.793   4.428   4.353  1.4286  0.3590 -0.7580
 6857TIP3   OH242061   6.585   4.124   1.347 -0.2806  0.7331  0.5731
 6857TIP3    H142062   6.536   4.045   1.369 -0.2262  0.6459  0.3847
 6857TIP3    H242063   6.528   4.196   1.374 -0.2590  0.6278  0.8991
 6858TIP3   OH242064   1.843   3.399  16.258 -0.0462 -0.3522 -0.1548
 6858TIP3    H142065   1.877   3.316  16.224 -0.1322 -0.8724  0.9716
 6858TIP3    H242066   1.881   3.406  16.345 -1.0043  0.1935  0.2378
 6859TIP3   OH242067   5.433   1.556  16.708  0.0999 -0.3466 -0.0983
 6859TIP3    H142068   5.487   1.533  16.632  2.4179  1.8976  0.7122
 6859TIP3    H242069   5.345   1.567  16.672  1.1647  0.9714 -2.5699
 6860TIP3   OH242070   3.537   0.717  13.738  0.6470 -0.2253  0.0530
 6860TIP3    H142071   3.587   0.772  13.798  2.0912 -1.9191  0.4911
 6860TIP3    H242072   3.450   0.711  13.776  0.8289  0.7324  0.6351
 6861TIP3   OH242073   3.220   3.148   5.520 -0.4153 -0.3588 -0.0005
 6861TIP3    H142074   3.239   3.063   5.560 -1.7230 -1.9373 -2.4948
 6861TIP3    H242075   3.246   3.138   5.428 -2.4473  1.2538 -0.8320
 6862TIP3   OH242076   3.424   4.108   4.845  0.5901 -0.3333  0.2805
 6862TIP3    H142077   3.352   4.051   4.817 -0.5599  1.9342 -1.7987
 6862TIP3    H242078   3.405   4.129   4.936  0.2589 -2.0371  0.6367
 6863TIP3   OH242079   2.996   2.561   6.484 -0.3582 -0.1499  0.4994
 6863TIP3    H142080   3.003   2.626   6.553  0.9353  0.1160  0.1557
 6863TIP3    H242081   3.043   2.484   6.517 -0.6252 -0.3905  0.3302
 6864TIP3   OH242082   6.362   5.193  15.624 -0.4207  0.3661 -0.0019
 6864TIP3    H142083   6.305   5.234  15.689 -0.5242 -1.7591  1.3656
 6864TIP3    H242084   6.324   5.217  15.540 -1.9301  0.9803  0.8165
 6865TIP3   OH242085   2.299   3.861  16.345  0.1720 -0.3077  0.2357
 6865TIP3    H142086   2.281   3.948  16.379 -0.9552 -0.6584  0.5662
 6865TIP3    H242087   2.332   3.811  16.420  0.5608 -0.2548  0.1069
 6866TIP3   OH242088   0.659   4.899   3.664  0.8116  0.3081  0.2573
 6866TIP3    H142089   0.609   4.830   3.707  1.3021  0.5589  1.2437
 6866TIP3    H242090   0.617   4.908   3.578  0.0805 -0.4802  0.5137
 6867TIP3   OH242091   3.657   0.429  13.082  0.0761  0.5213 -0.0850
 6867TIP3    H142092   3.639   0.410  12.990 -0.8469 -0.8363  0.3444
 6867TIP3    H242093   3.752   0.438  13.087  0.1311  0.7029 -1.1812
 6868TIP3   OH242094   4.416   1.717   0.677  0.0365 -0.6424 -0.4484
 6868TIP3    H142095   4.455   1.745   0.759  1.2211 -1.3433 -0.7462
 6868TIP3    H242096   4.338   1.667   0.702  0.9739 -1.7732  0.3211
 6869TIP3   OH242097   2.321   6.554   3.037 -0.3955  0.3793  0.1966
 6869TIP3    H142098   2.237   6.600   3.041 -0.5191  0.1450  0.3150
 6869TIP3    H242099   2.333   6.519   3.125  0.3495  1.3263  0.4957
 6870TIP3   OH242100   4.820   2.266   2.808  0.4520 -0.4356 -0.3081
 6870TIP3    H142101   4.845   2.301   2.723 -0.6064  1.0368 -0.0550
 6870TIP3    H242102   4.904   2.251   2.853  1.0519 -1.8979 -1.8161
 6871TIP3   OH242103   6.396   1.878  14.527 -0.5069 -0.1541 -0.0370
 6871TIP3    H142104   6.444   1.856  14.607 -0.1653  1.5043  0.2474
 6871TIP3    H242105   6.442   1.831  14.457 -1.5067 -2.5731  0.8248
 6872TIP3   OH242106   3.374   3.501  14.665 -0.2506  0.6465 -0.2985
 6872TIP3    H142107   3.313   3.506  14.592 -0.5994  0.6949 -0.0031
 6872TIP3    H242108   3.380   3.591  14.698 -1.3249  0.3580  0.7395
 6873TIP3   OH242109   6.512   1.624  11.976  0.7198 -0.0915 -0.0581
 6873TIP3    H142110   6.518   1.645  12.069  2.2834  0.9828 -0.3605
 6873TIP3    H242111   6.544   1.534  11.969  0.2418 -0.3079  0.4698
 6874TIP3   OH242112   4.220   5.886   2.948 -0.2896 -0.0637 -0.4459
 6874TIP3    H142113   4.250   5.919   3.033 -1.3672 -1.0743  0.3496
 6874TIP3    H242114   4.297   5.896   2.891  0.0440  1.8940  0.2595
 6875TIP3   OH242115   0.411   2.904   4.776  0.4085  0.5103  0.1357
 6875TIP3    H142116   0.412   2.842   4.704 -1.1834  1.0969 -0.4280
 6875TIP3    H242117   0.486   2.879   4.830  2.7655  1.1538 -2.6189
 6876TIP3   OH242118   0.307   6.668   4.311  0.4087 -0.2309 -0.4666
 6876TIP3    H142119   0.223   6.647   4.351 -0.8030 -0.9813 -3.2018
 6876TIP3    H242120   0.340   6.585   4.277  2.3604  0.0305  0.6310
 6877TIP3   OH242121   2.230   5.246   2.239  0.2991 -0.5737 -0.2221
 6877TIP3    H142122   2.191   5.177   2.292  0.9133 -0.6259  0.1673
 6877TIP3    H242123   2.187   5.237   2.154 -0.4620 -0.6896  0.1631
 6878TIP3   OH242124   3.193   0.030   3.605  0.0828  0.9729  0.7047
 6878TIP3    H142125   3.108  -0.013   3.616  0.8788 -1.1325 -0.7355
 6878TIP3    H242126   3.172   0.124   3.603 -1.9333  0.6404  2.3696
 6879TIP3   OH242127   5.800   2.961  13.806 -0.3833 -0.0499 -0.4189
 6879TIP3    H142128   5.830   3.037  13.856 -1.1980  0.3990 -0.5874
 6879TIP3    H242129   5.761   2.904  13.872 -0.8502  0.2336 -0.4446
 6880TIP3   OH242130   4.691   4.757  16.265  0.2100  0.1271 -0.3136
 6880TIP3    H142131   4.610   4.745  16.315 -0.7740  3.1255 -0.9815
 6880TIP3    H242132   4.756   4.783  16.330  0.7385 -2.2405  0.2183
 6881TIP3   OH242133   3.792   6.090   3.344  0.3341 -0.1943 -0.4861
 6881TIP3    H142134   3.716   6.032   3.344  0.6639 -0.6328 -0.1568
 6881TIP3    H242135   3.755   6.177   3.330 -0.2222 -0.4102 -0.4087
 6882TIP3   OH242136   5.898   4.493   1.455 -0.2507  0.0102  0.7596
 6882TIP3    H142137   5.839   4.534   1.393 -0.2671  1.0955  1.4684
 6882TIP3    H242138   5.842   4.462   1.525 -0.0701  0.3042  1.0374
 6883TIP3   OH242139   5.878   4.698  12.184  0.2962  0.0972 -0.1986
 6883TIP3    H142140   5.872   4.611  12.144 -0.9687 -0.1840  0.5529
 6883TIP3    H242141   5.915   4.683  12.271 -0.8289  0.1690  0.3085
 6884TIP3   OH242142   2.133   2.003  14.922 -0.1418 -0.0848  0.7364
 6884TIP3    H142143   2.168   1.935  14.980 -1.2407 -0.2927  1.1618
 6884TIP3    H242144   2.041   2.012  14.947 -0.3271  0.6714 -0.1669
 6885TIP3   OH242145   2.615   4.833  15.742  0.5646  0.3009  0.4685
 6885TIP3    H142146   2.540   4.806  15.689  0.0251  0.7603  0.9800
 6885TIP3    H242147   2.675   4.875  15.679  0.5406 -0.3401  0.0097
 6886TIP3   OH242148   5.764   4.794  14.546  0.1680  0.3908  0.5096
 6886TIP3    H142149   5.852   4.757  14.537 -0.4217 -0.4875 -3.3564
 6886TIP3    H242150   5.738   4.817  14.457 -3.3861  1.0016  1.5435
 6887TIP3   OH242151   5.501   5.035  14.890 -0.3578  0.6006  0.1308
 6887TIP3    H142152   5.494   5.127  14.865  2.1622  0.9117  0.2768
 6887TIP3    H242153   5.588   5.008  14.859 -1.6151 -2.2278 -1.3120
 6888TIP3   OH242154   5.509   6.065  13.846 -0.0831  0.3814 -0.1230
 6888TIP3    H142155   5.501   5.980  13.890 -1.4641  1.4572  1.8552
 6888TIP3    H242156   5.531   6.043  13.756 -1.0377 -2.1245  0.1691
 6889TIP3   OH242157   5.356   1.749  16.359  0.6916 -0.0730 -0.5139
 6889TIP3    H142158   5.374   1.783  16.271 -0.9389 -0.5048 -1.0446
 6889TIP3    H242159   5.420   1.679  16.371  0.3273 -0.6582 -1.7749
 6890TIP3   OH242160   5.941   6.164  14.682 -0.0807 -0.4041 -0.5066
 6890TIP3    H142161   5.954   6.153  14.777  1.6061 -0.7078 -0.7345
 6890TIP3    H242162   5.904   6.080  14.653  0.3616 -0.6865 -0.2657
 6891TIP3   OH242163   0.180   5.540   4.422 -0.1567  0.1862 -0.6469
 6891TIP3    H142164   0.165   5.505   4.509  1.7442 -0.9937 -0.7192
 6891TIP3    H242165   0.157   5.468   4.363 -0.7349  0.7228 -1.0890
 6892TIP3   OH242166   0.270   3.908  12.182 -0.6359  0.0659  0.3445
 6892TIP3    H142167   0.262   3.994  12.222 -0.0197  0.7900 -1.0069
 6892TIP3    H242168   0.207   3.908  12.110  0.5242  0.0655 -0.7297
 6893TIP3   OH242169   0.155   1.513  13.065  0.2856  0.6610  0.3906
 6893TIP3    H142170   0.175   1.492  12.974  1.9304 -1.7969  1.2320
 6893TIP3    H242171   0.075   1.464  13.084  0.0029  1.0883  0.3165
 6894TIP3   OH242172   6.098   3.592   5.528  0.1740  0.3572  0.0965
 6894TIP3    H142173   6.176   3.567   5.478  0.3964  0.7632  0.2422
 6894TIP3    H242174   6.120   3.574   5.619  0.1620  0.6416  0.1554
 6895TIP3   OH242175   2.580   4.370  14.360  0.2431  0.0934 -0.3949
 6895TIP3    H142176   2.659   4.400  14.313 -0.1158  1.3288 -0.2605
 6895TIP3    H242177   2.609   4.360  14.451  0.2178  0.7428 -0.3068
 6896TIP3   OH242178   5.580   5.429  15.913  0.3724  0.8087 -0.1392
 6896TIP3    H142179   5.584   5.371  15.838  1.0515  1.3167 -0.5088
 6896TIP3    H242180   5.671   5.438  15.941 -0.0147 -1.0006  2.0367
 6897TIP3   OH242181   4.653   1.815  16.307  0.0736 -0.2478  0.0843
 6897TIP3    H142182   4.665   1.901  16.348 -0.2654 -1.0313  1.9257
 6897TIP3    H242183   4.567   1.785  16.339 -1.5069  0.1920 -3.3568
 6898TIP3   OH242184   0.483   3.894   0.493 -0.1490 -0.0375 -0.1905
 6898TIP3    H142185   0.447   3.808   0.513  0.2329 -1.0657 -3.3594
 6898TIP3    H242186   0.537   3.916   0.569 -0.5027 -2.4300  0.8463
 6899TIP3   OH242187   2.521   3.027   1.425  0.0386 -0.7325 -0.4909
 6899TIP3    H142188   2.596   3.023   1.366 -0.8452 -1.0843 -1.6028
 6899TIP3    H242189   2.452   3.069   1.374  0.1671  1.9408  1.3170
 6900TIP3   OH242190   2.368   1.722   1.654  0.2581 -0.0894 -0.6491
 6900TIP3    H142191   2.426   1.756   1.585  0.2821  1.3885  0.0521
 6900TIP3    H242192   2.287   1.773   1.643 -0.9443 -2.1094 -1.6074
 6901TIP3   OH242193   5.124   5.973  15.601  0.4030  0.2704 -0.1709
 6901TIP3    H142194   5.208   5.955  15.643  0.7986  0.9954 -0.6450
 6901TIP3    H242195   5.146   5.998  15.512 -0.1807  2.0755  0.1422
 6902TIP3   OH242196   0.017   1.735  11.114 -0.1447 -0.1116  0.0507
 6902TIP3    H142197   0.032   1.675  11.041 -3.2400 -1.0040  0.0010
 6902TIP3    H242198  -0.006   1.818  11.072 -0.4998 -0.2251  0.0150
 6903TIP3   OH242199   4.874   5.561   4.763 -0.1475  0.1083  0.1407
 6903TIP3    H142200   4.839   5.495   4.823  2.8555 -0.4511  1.4712
 6903TIP3    H242201   4.928   5.511   4.701  1.2670  1.1488  0.4718
 6904TIP3   OH242202   3.696   5.466   5.833  0.1871  0.1105  0.5319
 6904TIP3    H142203   3.778   5.514   5.822  0.1664  0.1839  0.6980
 6904TIP3    H242204   3.719   5.392   5.889  0.2610 -0.1833  0.1169
 6905TIP3   OH242205   3.065   4.339   2.381 -0.2081 -0.0375 -0.6058
 6905TIP3    H142206   3.058   4.277   2.454  0.0264  1.0539  0.3662
 6905TIP3    H242207   3.062   4.284   2.303  1.5232 -1.4164  0.2457
 6906TIP3   OH242208   5.061   0.491   1.597 -0.0252 -0.4251 -0.0756
 6906TIP3    H142209   5.135   0.548   1.618 -0.5716 -0.4478  2.0782
 6906TIP3    H242210   5.018   0.535   1.523 -0.5281  2.0999  1.6003
 6907TIP3   OH242211   0.609   3.302   5.229 -0.5430  0.4891  0.1054
 6907TIP3    H142212   0.542   3.324   5.164  1.6330  0.9526 -2.1200
 6907TIP3    H242213   0.598   3.367   5.298 -2.3234  0.5776 -0.2209
 6908TIP3   OH242214   5.056   6.547  11.007 -0.2873  0.1511  0.1946
 6908TIP3    H142215   5.140   6.559  10.962 -1.2390  0.5730 -1.5380
 6908TIP3    H242216   4.990   6.566  10.940 -1.7829 -1.2256  1.2130
 6909TIP3   OH242217   2.489   3.877  16.149  0.5239 -0.4619  0.7248
 6909TIP3    H142218   2.409   3.862  16.199 -0.3108  0.6314 -0.2261
 6909TIP3    H242219   2.479   3.822  16.072 -1.5713  2.9346 -1.7203
 6910TIP3   OH242220   4.448   6.152  12.906  0.4382  0.3173  0.2862
 6910TIP3    H142221   4.408   6.080  12.956 -1.8689  1.6261  0.4711
 6910TIP3    H242222   4.383   6.172  12.838  1.3200  1.8137 -0.1481
 6911TIP3   OH242223   1.216   0.837   5.117  0.1187  0.7375  0.3071
 6911TIP3    H142224   1.229   0.749   5.154 -0.5158  0.5846  0.1805
 6911TIP3    H242225   1.122   0.842   5.101  0.3392  0.9025 -1.0378
 6912TIP3   OH242226   6.695   0.758   6.035 -0.2378  0.3448  0.4417
 6912TIP3    H142227   6.601   0.743   6.022 -0.2034  0.6048 -0.1790
 6912TIP3    H242228   6.713   0.728   6.124 -0.7667 -0.3853  0.3098
 6913TIP3   OH242229   1.235   5.608   3.610  0.5763  0.1244  0.4830
 6913TIP3    H142230   1.271   5.697   3.617  1.9680 -0.2529 -1.1551
 6913TIP3    H242231   1.259   5.580   3.522 -3.7295 -0.2802 -0.7714
 6914TIP3   OH242232   2.627   5.974   0.296 -0.5016  0.5479  0.0231
 6914TIP3    H142233   2.568   5.971   0.371  0.6794  0.1772  0.9617
 6914TIP3    H242234   2.599   6.052   0.247 -0.3237  1.7030  1.6740
 6915TIP3   OH242235   5.197   2.234  15.104 -1.3639 -0.6512 -0.0250
 6915TIP3    H142236   5.113   2.269  15.133 -0.1660  1.3063  1.3101
 6915TIP3    H242237   5.233   2.193  15.183 -0.0765  0.6267  0.0823
 6916TIP3   OH242238   5.903   3.909  13.574 -0.2553  0.4331 -0.2717
 6916TIP3    H142239   5.866   3.823  13.554 -0.6534 -0.1249  2.4010
 6916TIP3    H242240   5.827   3.963  13.595  0.0787  1.0738 -0.6933
 6917TIP3   OH242241   0.078   5.397   2.059  0.3672  0.0629 -0.2531
 6917TIP3    H142242  -0.017   5.390   2.059  0.3613 -0.0895  0.9153
 6917TIP3    H242243   0.106   5.344   1.984 -0.4321 -0.5667 -0.1251
 6918TIP3   OH242244   2.421   1.047  11.062  0.1585  0.1375  0.6019
 6918TIP3    H142245   2.384   1.133  11.041  0.0201 -0.2372 -0.7824
 6918TIP3    H242246   2.498   1.040  11.006 -1.2799 -1.6761 -1.3083
 6919TIP3   OH242247   4.323   2.903   2.718 -0.3596  0.2976  0.2711
 6919TIP3    H142248   4.329   2.943   2.631  0.1018 -1.0764 -0.3580
 6919TIP3    H242249   4.235   2.926   2.749 -0.1729  1.6113 -0.1331
 6920TIP3   OH242250   3.927   2.503  15.634  1.0255  0.1377 -0.4937
 6920TIP3    H142251   4.020   2.479  15.634  1.9231  3.0788  0.4597
 6920TIP3    H242252   3.892   2.467  15.715  1.0453 -1.7326 -1.2649
 6921TIP3   OH242253   2.408   0.691  14.540  0.1148 -0.0918  0.4229
 6921TIP3    H142254   2.462   0.663  14.614  0.4818  0.3653  0.3297
 6921TIP3    H242255   2.453   0.768  14.506 -1.2862  1.0750  1.1331
 6922TIP3   OH242256   6.004   0.580  12.623 -0.1083  0.1585  0.3314
 6922TIP3    H142257   6.059   0.657  12.610 -0.8613  1.1159  2.3976
 6922TIP3    H242258   6.060   0.506  12.602  0.8151  1.2394 -1.1174
 6923TIP3   OH242259   0.586   4.099  16.714  0.2463  0.1251 -0.5448
 6923TIP3    H142260   0.556   4.171  16.657 -1.3358 -2.7351 -3.6677
 6923TIP3    H242261   0.677   4.085  16.688 -0.3313 -0.8581 -2.1629
 6924TIP3   OH242262   5.008   3.261  14.594 -0.4128 -0.1113 -0.2456
 6924TIP3    H142263   5.029   3.354  14.600  0.9516 -0.3873 -0.3711
 6924TIP3    H242264   5.039   3.235  14.507  0.7982 -1.0263  0.4230
 6925TIP3   OH242265   0.832   1.285  16.053 -0.1983 -0.1113  0.8090
 6925TIP3    H142266   0.829   1.234  16.134 -1.5670 -0.7102  0.4169
 6925TIP3    H242267   0.892   1.358  16.072  0.4518 -0.9131  1.9416
 6926TIP3   OH242268   5.541   4.557  16.816 -0.8229 -0.3913 -0.5270
 6926TIP3    H142269   5.617   4.531  16.868  0.3906  3.1983 -0.2156
 6926TIP3    H242270   5.551   4.510  16.733  2.4395  0.7748 -0.9398
 6927TIP3   OH242271   3.584   1.392  14.719  0.0280  0.2199  0.2506
 6927TIP3    H142272   3.565   1.329  14.788 -1.1802  0.6955  0.3792
 6927TIP3    H242273   3.509   1.452  14.719  0.1122  0.3851 -1.2863
 6928TIP3   OH242274   1.050   4.136   4.705 -0.3672  0.0930 -0.2664
 6928TIP3    H142275   1.027   4.099   4.619 -0.1844 -0.0235 -0.2670
 6928TIP3    H242276   1.145   4.152   4.699 -0.4641  0.6962 -0.3176
 6929TIP3   OH242277   2.552   5.684  14.597 -0.1508  0.6559 -0.0868
 6929TIP3    H142278   2.461   5.679  14.624  0.1376 -0.7569  0.7478
 6929TIP3    H242279   2.587   5.597  14.616  1.1872  0.9439 -1.0743
 6930TIP3   OH242280   3.129   2.572  13.037 -0.6141 -0.1152  0.5929
 6930TIP3    H142281   3.038   2.583  13.063 -0.1996  2.1809  1.3227
 6930TIP3    H242282   3.131   2.600  12.945 -0.7190 -0.6478  0.4257
 6931TIP3   OH242283   4.383   2.361  10.518 -0.3528  0.6187 -0.0290
 6931TIP3    H142284   4.425   2.391  10.599 -0.7356  0.7154  0.1335
 6931TIP3    H242285   4.454   2.361  10.454  0.8771 -2.8256  1.0823
 6932TIP3   OH242286   1.939   4.203  11.523 -0.5114 -0.2795  0.4935
 6932TIP3    H142287   1.928   4.192  11.429  0.2278 -2.6994  0.6408
 6932TIP3    H242288   1.852   4.188  11.560 -0.7823  0.5830  0.2538
 6933TIP3   OH242289   2.218   5.912  11.014  0.2756 -0.1749 -0.1876
 6933TIP3    H142290   2.244   5.843  11.074 -0.3962 -0.0166  0.3049
 6933TIP3    H242291   2.123   5.921  11.028  0.5622  1.8053  0.8138
 6934TIP3   OH242292   4.179   2.577  15.196  0.3525  0.4018  0.0572
 6934TIP3    H142293   4.239   2.651  15.190  0.1610  0.7007  1.3833
 6934TIP3    H242294   4.093   2.617  15.212  0.2885 -0.1049  1.0347
 6935TIP3   OH242295   4.484   2.098   0.726 -0.4108  0.0388  0.2043
 6935TIP3    H142296   4.492   2.093   0.630  0.5783  2.3040  0.1067
 6935TIP3    H242297   4.394   2.072   0.744 -0.6630 -0.2575 -1.3547
 6936TIP3   OH242298   1.477   4.033   1.545  0.1877  0.5584  0.2581
 6936TIP3    H142299   1.561   4.078   1.560  0.6245 -0.3900  0.7254
 6936TIP3    H242300   1.460   4.045   1.452  0.1762  1.8767  0.4005
 6937TIP3   OH242301   2.133   3.620  16.725 -0.2629 -0.1111 -0.1072
 6937TIP3    H142302   2.137   3.581  16.638  1.0874 -1.2584  0.4373
 6937TIP3    H242303   2.099   3.551  16.781  2.4428 -0.7318  0.9208
 6938TIP3   OH242304   2.772   5.389   3.935 -0.1074  0.2378  0.1512
 6938TIP3    H142305   2.731   5.366   4.019 -0.2799  0.2498  0.0718
 6938TIP3    H242306   2.778   5.485   3.938 -2.6060  0.5068 -0.9655
 6939TIP3   OH242307   5.096   6.580   4.189  0.6461 -0.1954  0.7525
 6939TIP3    H142308   5.135   6.573   4.102 -1.0466 -0.1121 -0.0465
 6939TIP3    H242309   5.054   6.495   4.203 -0.6643  0.4213  0.6858
 6940TIP3   OH242310   1.919   3.959  11.868 -0.4247  0.2544 -0.0744
 6940TIP3    H142311   1.839   3.995  11.829 -1.2245  0.8723  2.0034
 6940TIP3    H242312   1.905   3.967  11.962  2.8097  1.9486  0.3873
 6941TIP3   OH242313   5.339   5.016  12.794  0.2539  0.1604 -0.7991
 6941TIP3    H142314   5.262   5.026  12.738 -0.3876 -3.1045 -0.6589
 6941TIP3    H242315   5.403   4.971  12.739  1.4040  1.1258 -0.2999
 6942TIP3   OH242316   0.979   0.874  12.907 -0.2486 -0.3321  0.2463
 6942TIP3    H142317   1.020   0.932  12.843 -2.5389 -0.7705 -1.7707
 6942TIP3    H242318   0.890   0.859  12.873 -1.1241 -1.7034  2.8492
 6943TIP3   OH242319   0.185   3.350  11.849 -0.0001 -0.5491  0.5282
 6943TIP3    H142320   0.279   3.331  11.838  0.0291 -0.3586  0.4420
 6943TIP3    H242321   0.163   3.311  11.934 -0.2372 -2.0786 -0.1921
 6944TIP3   OH242322   1.225   1.570   4.079  0.4831  0.2083 -0.6269
 6944TIP3    H142323   1.153   1.602   4.132  0.2675 -0.3850 -0.5596
 6944TIP3    H242324   1.279   1.519   4.139  0.8250  0.4335 -0.7352
 6945TIP3   OH242325   4.866   0.425   4.497 -0.0554  0.2313  0.0776
 6945TIP3    H142326   4.785   0.447   4.451 -0.1307  0.0479  0.1206
 6945TIP3    H242327   4.882   0.500   4.554  1.4375  1.6714 -2.0806
 6946TIP3   OH242328   6.402   6.197   4.205  0.5611  0.2760  0.4496
 6946TIP3    H142329   6.322   6.246   4.187  0.2706  0.1133  1.2595
 6946TIP3    H242330   6.409   6.134   4.134  0.5698  1.0315 -0.2276
 6947TIP3   OH242331   6.132   3.262   5.051  0.1680  0.2971 -0.2924
 6947TIP3    H142332   6.065   3.206   5.012  0.3771  0.9689 -1.7006
 6947TIP3    H242333   6.092   3.295   5.131 -1.0253  0.3217 -0.8721
 6948TIP3   OH242334   1.464   5.224  11.798 -0.1780  0.5586  0.4901
 6948TIP3    H142335   1.533   5.162  11.819 -0.7082  0.2387  1.3460
 6948TIP3    H242336   1.395   5.206  11.862 -1.2493  0.5708 -0.6224
 6949TIP3   OH242337   6.046   5.183  12.428 -0.0752  0.3050  0.4092
 6949TIP3    H142338   6.065   5.181  12.334  1.4850  1.8460  0.6483
 6949TIP3    H242339   5.963   5.136  12.436 -0.7068  0.8978 -1.8623
 6950TIP3   OH242340   5.432   6.762  13.379  0.1794 -0.2981  0.3119
 6950TIP3    H142341   5.349   6.715  13.380 -0.9099  1.5564  0.8450
 6950TIP3    H242342   5.470   6.746  13.465 -0.9488  1.0304  1.0936
 6951TIP3   OH242343   2.002   3.228   1.329  0.7869  0.2633  0.7899
 6951TIP3    H142344   1.941   3.297   1.355 -1.0128 -0.9107 -0.1416
 6951TIP3    H242345   2.049   3.264   1.254  2.7610  1.9167  2.6558
 6952TIP3   OH242346   2.947   1.085   0.782 -0.5249 -0.3230 -0.5610
 6952TIP3    H142347   2.980   1.149   0.719  1.1837 -1.4618 -0.9305
 6952TIP3    H242348   3.015   1.017   0.783 -1.5174 -1.3469  0.9719
 6953TIP3   OH242349   6.179   0.540   1.678 -0.1286 -0.3014 -0.2716
 6953TIP3    H142350   6.157   0.450   1.655 -1.5844 -0.1239  0.2874
 6953TIP3    H242351   6.222   0.575   1.600 -1.0261 -0.9960 -1.1055
 6954TIP3   OH242352   3.858   3.956  15.305 -0.8909  0.0997 -0.2017
 6954TIP3    H142353   3.893   3.868  15.313  0.0301  0.5391  1.0210
 6954TIP3    H242354   3.769   3.950  15.338 -0.7561 -0.3253  0.0869
 6955TIP3   OH242355   6.633   3.686  16.535  0.0061 -0.0478  0.0048
 6955TIP3    H142356   6.546   3.707  16.503 -0.2257 -0.4771  0.3437
 6955TIP3    H242357   6.670   3.626  16.469 -0.1106 -0.1862  0.0663
 6956TIP3   OH242358   4.526   1.204  11.903 -0.0901  0.6875  0.0481
 6956TIP3    H142359   4.461   1.147  11.862 -0.0671  1.8292 -1.6701
 6956TIP3    H242360   4.475   1.274  11.943  0.0161  0.8927 -0.1758
 6957TIP3   OH242361   5.931   5.680  15.353  0.5592  0.9516  0.4243
 6957TIP3    H142362   5.868   5.752  15.365  1.9230  2.0443  1.4413
 6957TIP3    H242363   5.881   5.601  15.368 -0.8274  1.7341  0.0650
 6958TIP3   OH242364   3.531   5.210   5.341 -1.1172 -0.0573  0.2730
 6958TIP3    H142365   3.509   5.127   5.383 -1.9868 -1.1613 -2.1382
 6958TIP3    H242366   3.619   5.196   5.306 -1.1301  0.1467  0.1594
 6959TIP3   OH242367   0.709   2.402   4.113  0.3025  0.4295  0.5425
 6959TIP3    H142368   0.615   2.394   4.129  0.5074 -1.6816  1.0438
 6959TIP3    H242369   0.745   2.435   4.195  0.1140  0.0059  0.8016
 6960TIP3   OH242370   0.970   5.790  14.651 -0.1111 -0.2641 -0.7671
 6960TIP3    H142371   0.978   5.696  14.635  0.1270 -0.5873  0.9905
 6960TIP3    H242372   0.876   5.804  14.666 -0.1773 -0.1798 -1.2627
 6961TIP3   OH242373   5.185   6.716  12.386 -0.2426  0.2222  0.0615
 6961TIP3    H142374   5.178   6.794  12.331 -0.2811 -0.0694 -0.3584
 6961TIP3    H242375   5.279   6.697  12.387 -0.2363  0.2563  0.1411
 6962TIP3   OH242376   5.125   1.477  14.438 -0.5230  0.7127 -0.1713
 6962TIP3    H142377   5.036   1.457  14.408 -0.3980  1.5934 -1.2031
 6962TIP3    H242378   5.182   1.435  14.374 -0.1457 -0.5329  0.9317
 6963TIP3   OH242379   5.909   5.248   0.410 -0.4977  0.1096 -0.1523
 6963TIP3    H142380   5.950   5.331   0.385  0.3639 -0.5863 -1.1399
 6963TIP3    H242381   5.853   5.226   0.335 -1.5252  0.2986  0.5458
 6964TIP3   OH242382   5.437   1.372  10.767  0.1064  0.2032 -0.1155
 6964TIP3    H142383   5.495   1.387  10.842 -0.7422 -0.0675  0.6216
 6964TIP3    H242384   5.407   1.459  10.742  0.5724  0.3150 -0.2906
 6965TIP3   OH242385   3.068   4.004  10.459 -0.1944 -0.3650  0.8295
 6965TIP3    H142386   3.018   3.970  10.533  0.2584 -0.8008  0.9398
 6965TIP3    H242387   3.159   3.982  10.479  0.1156  0.8881  0.8863
 6966TIP3   OH242388   1.917   6.498   1.209 -0.3582  0.6976  0.0911
 6966TIP3    H142389   1.898   6.561   1.140 -2.0898 -1.2740 -1.3377
 6966TIP3    H242390   1.948   6.420   1.163 -1.4290 -0.6315  1.5221
 6967TIP3   OH242391   4.131   2.471   5.373  0.2683  0.4320 -0.2554
 6967TIP3    H142392   4.067   2.498   5.308 -0.7317  1.2483  1.0253
 6967TIP3    H242393   4.147   2.549   5.426  0.4652 -0.3943  0.9518
 6968TIP3   OH242394   4.121   1.267   3.210  0.0521 -0.8098 -0.0340
 6968TIP3    H142395   4.216   1.271   3.205 -0.0864  1.9065 -1.9150
 6968TIP3    H242396   4.094   1.224   3.129 -0.3940  0.0625 -0.3517
 6969TIP3   OH242397   6.788   5.373  11.448  0.2779  0.1500  0.0370
 6969TIP3    H142398   6.800   5.333  11.362 -0.2710  0.8273 -0.3594
 6969TIP3    H242399   6.746   5.304  11.500 -2.2233  0.6869 -1.1132
 6970TIP3   OH242400   0.735   0.786  12.831 -0.3829  0.1983 -0.9807
 6970TIP3    H142401   0.655   0.811  12.784 -0.9311 -2.8809 -1.9490
 6970TIP3    H242402   0.787   0.739  12.766  1.6648  1.0298 -0.0150
 6971TIP3   OH242403   4.778   3.468  13.687 -0.4441 -0.3971  0.1198
 6971TIP3    H142404   4.715   3.472  13.614  0.1839 -1.1483 -0.4857
 6971TIP3    H242405   4.817   3.381  13.679  2.3373  0.8246 -0.9613
 6972TIP3   OH242406   1.508   3.129   3.565  0.2208 -0.2235 -0.7321
 6972TIP3    H142407   1.556   3.142   3.483 -1.0376 -1.1495 -1.6377
 6972TIP3    H242408   1.429   3.182   3.556  1.2817  1.7978  1.0143
 6973TIP3   OH242409   2.474   1.076  11.745  0.2674  0.2711 -0.1673
 6973TIP3    H142410   2.486   1.058  11.651  0.8126 -1.0854  0.1501
 6973TIP3    H242411   2.418   1.005  11.776  1.4002 -0.1953  0.8569
 6974TIP3   OH242412   3.920   2.254  12.762  0.1688 -0.1097 -0.9120
 6974TIP3    H142413   3.874   2.317  12.817 -0.0093 -0.7458 -0.3133
 6974TIP3    H242414   3.989   2.304  12.719  0.0227  0.4838 -0.4522
 6975TIP3   OH242415   6.175   6.742   5.524  0.5436  0.1103 -0.1703
 6975TIP3    H142416   6.104   6.738   5.588 -0.5504 -1.6902 -1.3642
 6975TIP3    H242417   6.254   6.723   5.574 -0.1452 -0.2199  0.8290
 6976TIP3   OH242418   5.203   4.852   4.514 -0.1708  0.0962  0.2843
 6976TIP3    H142419   5.263   4.879   4.583  0.7746 -0.2623 -0.3709
 6976TIP3    H242420   5.243   4.773   4.477 -0.3768  0.5790 -1.0230
 6977TIP3   OH242421   4.910   4.391  13.207  0.0569 -0.5457 -0.5883
 6977TIP3    H142422   4.954   4.330  13.267  0.2971 -1.1017 -1.3098
 6977TIP3    H242423   4.876   4.335  13.138 -2.7185 -0.2768  0.4466
 6978TIP3   OH242424   0.265   4.355  16.943 -0.3512 -0.6660  0.2114
 6978TIP3    H142425   0.276   4.400  16.859 -1.3287 -1.9583 -0.6418
 6978TIP3    H242426   0.292   4.265  16.926  0.9646 -0.6095  1.7264
 6979TIP3   OH242427   0.533   6.071  10.716 -0.4159  0.0510  0.4376
 6979TIP3    H142428   0.620   6.110  10.726 -0.7251  0.9405 -0.1693
 6979TIP3    H242429   0.543   6.012  10.640 -0.1911 -0.3313  0.7583
 6980TIP3   OH242430   0.731   1.854   0.041  0.4793  1.0599 -0.2406
 6980TIP3    H142431   0.668   1.920   0.011 -1.2754  0.9148  2.7255
 6980TIP3    H242432   0.716   1.779  -0.017 -1.3911  1.4026 -0.2839
 6981TIP3   OH242433   2.695   4.923   5.667  0.0572 -0.0278  0.0857
 6981TIP3    H142434   2.717   5.016   5.680 -0.5100  0.0940  0.2056
 6981TIP3    H242435   2.606   4.915   5.702 -0.1212 -0.4884 -0.4739
 6982TIP3   OH242436   1.821   1.149   9.987 -0.0229 -0.2212 -0.0799
 6982TIP3    H142437   1.787   1.097  10.060 -0.5666 -1.1259 -0.9394
 6982TIP3    H242438   1.913   1.125   9.982 -0.1335 -0.6675 -0.0898
 6983TIP3   OH242439   2.850   2.261   3.813 -0.2196 -0.1999 -0.1628
 6983TIP3    H142440   2.810   2.182   3.850 -2.5275  1.3163  0.8470
 6983TIP3    H242441   2.840   2.326   3.882  2.4467  0.8078 -0.6183
 6984TIP3   OH242442   3.124   1.184   3.668 -0.4568  0.2794  0.1955
 6984TIP3    H142443   3.157   1.211   3.754 -0.9403 -0.9053  0.7820
 6984TIP3    H242444   3.200   1.149   3.623 -0.4982 -0.6112  0.7859
 6985TIP3   OH242445   4.018   4.159   4.663 -0.1945 -0.6057  0.6782
 6985TIP3    H142446   4.041   4.195   4.749  0.1576 -0.2316  0.4285
 6985TIP3    H242447   4.069   4.210   4.601 -0.6312 -0.7137  0.2235
 6986TIP3   OH242448   5.594   1.055   1.007 -0.1695  0.2461  0.1423
 6986TIP3    H142449   5.656   1.023   1.072 -0.8529 -0.9366  0.2321
 6986TIP3    H242450   5.647   1.111   0.949  1.0853 -1.1059 -0.0700
 6987TIP3   OH242451   5.909   3.031  15.316 -0.0757 -0.5597  0.2357
 6987TIP3    H142452   5.862   3.047  15.398 -1.1856  0.1818 -0.5055
 6987TIP3    H242453   5.990   3.081  15.324 -0.8500  0.7384  0.3051
 6988TIP3   OH242454   1.408   4.968   6.295  0.6780 -0.1341 -0.4964
 6988TIP3    H142455   1.392   5.056   6.327 -1.1636 -0.1499 -1.2545
 6988TIP3    H242456   1.438   4.920   6.372 -0.7821  0.5448  0.5377
 6989TIP3   OH242457   4.988   2.387   4.904 -0.5099 -0.2151 -0.8711
 6989TIP3    H142458   4.975   2.447   4.831 -1.3862  0.5449 -0.1167
 6989TIP3    H242459   5.042   2.436   4.967 -0.5521 -0.5082 -0.6018
 6990TIP3   OH242460   5.654   5.696   4.705 -0.0057 -0.0116  0.1105
 6990TIP3    H142461   5.663   5.783   4.666  0.9297  0.2150  0.8201
 6990TIP3    H242462   5.618   5.712   4.792 -0.8030 -0.4232 -0.1285
 6991TIP3   OH242463   2.748   4.129  16.272  0.5910 -0.7325  0.0329
 6991TIP3    H142464   2.725   4.090  16.356 -0.2236  1.4962  0.9362
 6991TIP3    H242465   2.664   4.153  16.232  1.0294 -0.0746 -0.5366
 6992TIP3   OH242466   6.579   3.548   2.491 -0.0769  0.4643  0.4211
 6992TIP3    H142467   6.670   3.542   2.463 -0.0904 -0.1709  0.5033
 6992TIP3    H242468   6.583   3.594   2.574  0.1769  0.3860  0.4543
 6993TIP3   OH242469   6.472   4.066  16.937  0.0602 -0.1536  0.1210
 6993TIP3    H142470   6.566   4.074  16.922 -0.0629 -0.1403 -0.7107
 6993TIP3    H242471   6.463   3.991  16.995  0.6534  0.5018  1.0765
 6994TIP3   OH242472   1.931   0.087   4.070  0.3824 -0.0852 -0.4181
 6994TIP3    H142473   1.956   0.020   4.134  1.2334  1.6553  1.1469
 6994TIP3    H242474   1.852   0.128   4.106  0.9875  1.0603 -0.3502
 6995TIP3   OH242475   1.853   3.965  12.665 -0.3138 -0.3806 -0.3011
 6995TIP3    H142476   1.825   3.874  12.675 -0.6926 -0.2946 -0.5530
 6995TIP3    H242477   1.786   4.004  12.608 -0.7347  0.3154  0.6467
 6996TIP3   OH242478   2.863   3.281   5.293  0.5162  0.1852 -0.1705
 6996TIP3    H142479   2.866   3.202   5.239 -1.4777  1.0049 -1.5764
 6996TIP3    H242480   2.852   3.248   5.383  0.4609 -1.1248 -0.6388
 6997TIP3   OH242481   3.060   3.178  14.861  0.1938  0.0130  0.1131
 6997TIP3    H142482   3.032   3.268  14.882  0.8083  0.2255  0.0329
 6997TIP3    H242483   3.090   3.183  14.770 -1.5021 -0.6848 -0.5203
 6998TIP3   OH242484   0.103   4.115   2.359  0.0063  0.5465 -0.3863
 6998TIP3    H142485   0.181   4.084   2.405 -0.1477 -0.8109 -1.0051
 6998TIP3    H242486   0.036   4.120   2.427 -0.3150 -1.7847 -0.4650
 6999TIP3   OH242487   0.128   2.771   4.395 -0.1776  0.0177  0.4033
 6999TIP3    H142488   0.047   2.728   4.422  0.4031 -0.8411  0.8478
 6999TIP3    H242489   0.114   2.864   4.413 -2.0720  0.3259 -2.0281
 7000TIP3   OH242490   6.455   3.824   4.967 -0.8950  0.1034  0.0513
 7000TIP3    H142491   6.542   3.862   4.956 -1.4419  1.1914 -0.7792
 7000TIP3    H242492   6.463   3.765   5.042  1.2796 -2.1141 -1.7633
 7001TIP3   OH242493   1.760   0.314   9.747  0.2033  0.1115 -0.0320
 7001TIP3    H142494   1.742   0.297   9.839 -1.6277 -0.5586 -0.4766
 7001TIP3    H242495   1.804   0.234   9.716 -0.5860 -0.3045 -0.0937
 7002TIP3   OH242496   2.095   3.090  12.465 -0.2901  0.5843 -0.0583
 7002TIP3    H142497   2.108   3.154  12.535  0.5711  0.0885  0.2532
 7002TIP3    H242498   2.116   3.137  12.384  0.6324  0.6344  0.1929
 7003TIP3   OH242499   5.484   3.649  12.052  0.1276  0.3449  0.1326
 7003TIP3    H142500   5.403   3.670  12.098  0.2809 -2.3856  1.8580
 7003TIP3    H242501   5.554   3.669  12.114  0.6024  0.2457 -0.3592
 7004TIP3   OH242502   2.522   4.482   0.621  0.6120  0.4323  0.2683
 7004TIP3    H142503   2.588   4.495   0.689  0.1892 -0.5253  0.8832
 7004TIP3    H242504   2.560   4.416   0.562  0.9923  1.2832 -0.4638
 7005TIP3   OH242505   5.311   6.617   3.982  0.1927  0.1477  0.0032
 7005TIP3    H142506   5.402   6.639   3.965  0.1142  1.8116  1.4448
 7005TIP3    H242507   5.262   6.695   3.955 -0.9764 -1.1771 -1.9186
 7006TIP3   OH242508   4.659   3.109  16.818 -0.2702 -0.2349  0.6166
 7006TIP3    H142509   4.684   3.193  16.778  0.6012 -0.1037  1.4006
 7006TIP3    H242510   4.603   3.135  16.892 -2.1941 -0.4916 -0.6798
 7007TIP3   OH242511   2.374   1.026  10.562 -0.3851  0.1095 -0.0832
 7007TIP3    H142512   2.408   1.082  10.492 -0.5897 -1.6722 -1.6856
 7007TIP3    H242513   2.411   1.064  10.643  1.6049  0.9830 -1.3230
 7008TIP3   OH242514   0.215   1.411   5.866 -0.0321  0.0244 -0.4263
 7008TIP3    H142515   0.278   1.433   5.798 -0.6779 -0.0121 -1.0498
 7008TIP3    H242516   0.133   1.453   5.838 -0.4428 -0.4404  0.0505
 7009TIP3   OH242517   2.328   6.167   2.232 -0.3756 -1.0487  0.9040
 7009TIP3    H142518   2.303   6.161   2.140  1.0203 -1.5470  0.5351
 7009TIP3    H242519   2.358   6.258   2.243 -1.4464 -0.7123  1.1221
 7010TIP3   OH242520   5.735   1.785   4.912  0.5791  0.1336 -0.5340
 7010TIP3    H142521   5.786   1.797   4.832 -0.8746  3.1926 -1.1430
 7010TIP3    H242522   5.783   1.834   4.979 -0.4879  1.4350 -0.6729
 7011TIP3   OH242523   2.080   6.051  12.463 -0.1721  0.2173 -0.4296
 7011TIP3    H142524   2.150   6.102  12.502 -0.4500  0.4072 -0.1711
 7011TIP3    H242525   2.024   6.027  12.537 -0.6629  0.5116 -0.6997
 7012TIP3   OH242526   1.284   1.496  14.455 -0.4270 -0.3698  0.8167
 7012TIP3    H142527   1.266   1.580  14.498  0.5765 -0.5863  1.7153
 7012TIP3    H242528   1.230   1.433  14.502 -1.1415 -0.2509  0.1755
 7013TIP3   OH242529   0.253   6.645   1.829 -0.0949  0.1507  0.1842
 7013TIP3    H142530   0.240   6.553   1.804  0.9557  0.5383 -1.9974
 7013TIP3    H242531   0.171   6.688   1.804 -0.2590 -0.0226  0.4116
 7014TIP3   OH242532   0.599   4.150  14.730 -0.0205  0.4201  0.3519
 7014TIP3    H142533   0.628   4.239  14.709 -2.0948  1.1097  0.2463
 7014TIP3    H242534   0.545   4.159  14.808 -2.0198 -0.3920 -0.8616
 7015TIP3   OH242535   3.148   6.203   1.674 -0.1689  0.9195 -0.2018
 7015TIP3    H142536   3.098   6.154   1.608  0.0718 -1.9681  1.5744
 7015TIP3    H242537   3.219   6.244   1.624 -0.0529 -1.0555 -1.7950
 7016TIP3   OH242538   1.516   5.075  11.437  0.7147 -0.7354  0.2608
 7016TIP3    H142539   1.464   5.078  11.517  2.6742  1.6617  1.5265
 7016TIP3    H242540   1.477   5.002  11.387 -2.3445 -0.5209  2.0887
 7017TIP3   OH242541   4.375   5.652   4.038  0.6822 -0.3627 -0.2893
 7017TIP3    H142542   4.400   5.704   4.114 -0.8276 -1.2417  0.8639
 7017TIP3    H242543   4.386   5.711   3.963  1.0834  0.8924  0.7266
 7018TIP3   OH242544   1.272   5.028   4.487  0.2976  0.0089 -0.1717
 7018TIP3    H142545   1.190   5.047   4.532 -0.0562 -0.3421 -0.6517
 7018TIP3    H242546   1.245   4.987   4.404  0.9505  0.0464 -0.4104
 7019TIP3   OH242547   1.996   1.495  11.957  0.2917  0.3735 -0.0003
 7019TIP3    H142548   1.910   1.523  11.989 -0.0967  0.5827 -1.1762
 7019TIP3    H242549   2.042   1.577  11.935  0.1857  0.2228 -0.8454
 7020TIP3   OH242550   1.661   6.662  17.062  0.6824  0.1216  0.2992
 7020TIP3    H142551   1.633   6.669  16.971  1.9236 -1.3206 -0.2299
 7020TIP3    H242552   1.592   6.705  17.111  0.1051  1.1679 -1.3330
 7021TIP3   OH242553   6.754   1.194  11.757  0.2700 -0.4406 -0.0163
 7021TIP3    H142554   6.770   1.121  11.697 -1.7833 -0.5213 -0.5294
 7021TIP3    H242555   6.764   1.156  11.844 -0.8875 -1.3944 -0.2772
 7022TIP3   OH242556   6.572   3.778  14.076 -0.0148  0.4836 -0.3127
 7022TIP3    H142557   6.546   3.819  13.994  0.3099 -0.4810 -0.9023
 7022TIP3    H242558   6.582   3.685  14.056 -1.5055 -0.0642  1.1647
 7023TIP3   OH242559   1.653   4.889  14.562  0.0386  0.5167  0.2601
 7023TIP3    H142560   1.721   4.871  14.627 -1.1956  1.1387  1.7950
 7023TIP3    H242561   1.690   4.958  14.507  0.3336  1.4941  1.6311
 7024TIP3   OH242562   2.616   3.246   6.003  0.6324  0.7290 -0.6432
 7024TIP3    H142563   2.529   3.260   6.039 -0.1457 -1.6745 -1.4114
 7024TIP3    H242564   2.673   3.303   6.056 -1.3969  2.7506 -0.4585
 7025TIP3   OH242565   3.137   1.232  11.679 -0.2859 -0.9684 -0.2474
 7025TIP3    H142566   3.212   1.173  11.669 -0.9181 -1.7419 -0.4557
 7025TIP3    H242567   3.067   1.192  11.629  0.0138  1.3853 -2.8467
 7026TIP3   OH242568   1.453   0.685   1.954 -0.0510 -0.6231 -0.0667
 7026TIP3    H142569   1.413   0.600   1.937 -0.3874 -0.4277 -0.2652
 7026TIP3    H242570   1.379   0.746   1.959  0.2806 -0.0191 -1.8022
 7027TIP3   OH242571   4.318   5.498  13.147 -1.0806 -0.2675 -0.0636
 7027TIP3    H142572   4.289   5.423  13.097 -2.1686  1.3687 -2.0249
 7027TIP3    H242573   4.407   5.516  13.115 -0.4931 -1.1477  0.9946
 7028TIP3   OH242574   4.005   2.509  17.080 -0.2016  0.0565  0.4411
 7028TIP3    H142575   4.010   2.576  17.012 -1.9730  2.2037  2.2950
 7028TIP3    H242576   3.975   2.431  17.033 -0.0291  1.0627 -1.4544
 7029TIP3   OH242577   1.095   5.234  10.578  0.3106 -0.2096 -1.0537
 7029TIP3    H142578   1.083   5.163  10.640  0.6627  0.1213 -0.5954
 7029TIP3    H242579   1.131   5.193  10.500  0.4639 -0.5415 -0.8087
 7030TIP3   OH242580   1.772   0.010  11.378  0.2717  0.1967  0.0202
 7030TIP3    H142581   1.814  -0.054  11.321  0.5301 -0.5406  0.9963
 7030TIP3    H242582   1.683   0.020  11.343  1.1856  1.7055 -2.0115
 7031TIP3   OH242583   5.876   6.367  10.751 -0.2532  0.2226  0.2101
 7031TIP3    H142584   5.916   6.419  10.821  0.6899  0.9339 -0.8173
 7031TIP3    H242585   5.950   6.344  10.694 -0.7424 -1.7352  0.2998
 7032TIP3   OH242586   1.996   4.149  13.965 -0.6996  0.1224 -0.3384
 7032TIP3    H142587   2.004   4.228  13.913  0.6132  0.3875  0.2293
 7032TIP3    H242588   2.012   4.177  14.055  1.0151 -0.9548 -0.2650
 7033TIP3   OH242589   4.742   3.528   1.725 -0.1169  0.7563  0.0176
 7033TIP3    H142590   4.797   3.499   1.797  1.0455  1.8983 -0.3562
 7033TIP3    H242591   4.735   3.452   1.667  0.3364  0.3299  0.5116
 7034TIP3   OH242592   5.965   1.637  13.976  0.6510  0.3918 -0.2204
 7034TIP3    H142593   5.926   1.594  14.052 -1.9673  1.6108 -0.7752
 7034TIP3    H242594   5.985   1.564  13.917 -0.3135 -0.3552  0.3238
 7035TIP3   OH242595   3.816   2.239   3.493  0.4342 -0.6669  0.6070
 7035TIP3    H142596   3.876   2.234   3.567  1.6544 -1.3496 -0.4073
 7035TIP3    H242597   3.778   2.151   3.486  1.6618 -1.1268 -0.6440
 7036TIP3   OH242598   3.223   6.207  12.329 -0.2494 -0.6028  0.2809
 7036TIP3    H142599   3.137   6.181  12.361 -1.6908  0.8939 -2.0270
 7036TIP3    H242600   3.221   6.302  12.329  0.6349 -0.5393 -1.6333
 7037TIP3   OH242601   3.935   5.305   4.588 -0.2736  0.1336  0.1854
 7037TIP3    H142602   3.955   5.351   4.507 -1.8900  0.4191 -0.0920
 7037TIP3    H242603   4.000   5.236   4.593 -1.0944 -0.9476 -2.2462
 7038TIP3   OH242604   5.949   6.605   2.868  0.0109  0.0988 -0.0788
 7038TIP3    H142605   5.966   6.641   2.781  0.1959 -0.4692 -0.2831
 7038TIP3    H242606   5.853   6.605   2.875 -0.0546 -0.9391 -0.7583
 7039TIP3   OH242607   5.382   1.573  13.859  0.1887  0.3115 -0.5207
 7039TIP3    H142608   5.301   1.621  13.841 -1.2213 -0.0703  3.6778
 7039TIP3    H242609   5.433   1.634  13.913 -0.4255 -1.6818  2.5521
 7040TIP3   OH242610   1.564   6.647   3.557 -0.1085 -0.1838 -0.1343
 7040TIP3    H142611   1.579   6.649   3.463  0.8728 -0.2552  0.0179
 7040TIP3    H242612   1.649   6.668   3.596 -0.5104 -0.1240  0.7351
 7041TIP3   OH242613   4.343   2.649  10.476 -0.0157 -0.1440 -0.3437
 7041TIP3    H142614   4.369   2.557  10.473  0.1017 -0.1432  0.4433
 7041TIP3    H242615   4.392   2.686  10.550 -1.9101 -0.0420  0.9303
 7042TIP3   OH242616   4.417   5.046  12.257  0.2612 -0.3659 -0.4557
 7042TIP3    H142617   4.324   5.023  12.259 -0.2098  1.4052 -0.2433
 7042TIP3    H242618   4.461   4.966  12.227 -1.2406 -1.4637  0.1448
 7043TIP3   OH242619   2.014   4.320  10.378 -0.4536 -0.0490  0.2812
 7043TIP3    H142620   1.991   4.256  10.445  0.4171 -0.8012 -0.1057
 7043TIP3    H242621   1.971   4.288  10.299 -0.9015  0.4504  0.3150
 7044TIP3   OH242622   5.233   6.753   1.320  0.0924 -0.3678 -0.2035
 7044TIP3    H142623   5.197   6.698   1.390  0.8327 -0.0706  0.4145
 7044TIP3    H242624   5.317   6.784   1.354 -0.6726  1.8408 -0.1818
 7045TIP3   OH242625   4.395   6.467  11.366 -0.0891 -0.4777 -0.2042
 7045TIP3    H142626   4.334   6.432  11.430 -0.3622 -0.4919 -0.4728
 7045TIP3    H242627   4.469   6.406  11.368  0.4294  0.1478  0.9345
 7046TIP3   OH242628   2.971   2.309  16.211 -0.1479  0.3925  0.8338
 7046TIP3    H142629   3.028   2.377  16.248  0.0183  0.7276 -0.0187
 7046TIP3    H242630   3.021   2.274  16.137 -1.0720  0.7393  0.0275
 7047TIP3   OH242631   5.742   6.210  16.887 -0.1848 -0.4184 -0.5570
 7047TIP3    H142632   5.795   6.249  16.956 -2.0814 -1.7625  1.8087
 7047TIP3    H242633   5.777   6.122  16.876 -1.2585 -0.9647  0.2968
 7048TIP3   OH242634   2.586   1.593  11.522 -0.0375  0.1347 -0.5909
 7048TIP3    H142635   2.586   1.498  11.514 -1.2062  0.1415 -0.8734
 7048TIP3    H242636   2.587   1.610  11.616  1.9635 -0.1118 -0.5319
 7049TIP3   OH242637   6.681   2.598  13.913 -0.6055  0.1438  0.6442
 7049TIP3    H142638   6.619   2.539  13.956  0.9269 -1.0506  1.3212
 7049TIP3    H242639   6.750   2.611  13.977 -0.0362  1.2768 -0.1676
 7050TIP3   OH242640   1.483   5.870   2.345  0.1588 -0.4644 -0.0937
 7050TIP3    H142641   1.451   5.950   2.303  1.7329  0.6874  0.7555
 7050TIP3    H242642   1.506   5.897   2.434  1.0815 -1.7597  0.0977
 7051TIP3   OH242643   3.952   0.731  13.348  0.1575 -0.6903 -0.2247
 7051TIP3    H142644   3.976   0.691  13.431 -0.6860  0.7289  0.7354
 7051TIP3    H242645   3.937   0.657  13.289  2.9455 -1.7015  0.1841
 7052TIP3   OH242646   5.047   3.124   0.703 -0.2587  0.4914  0.0652
 7052TIP3    H142647   5.109   3.179   0.749  0.1764  1.3306 -1.4640
 7052TIP3    H242648   5.060   3.145   0.611 -2.4590  0.3294 -0.3369
 7053TIP3   OH242649   3.720   4.887   4.546  0.1005 -0.2143 -0.2472
 7053TIP3    H142650   3.772   4.808   4.536  0.7259  0.1698 -0.1185
 7053TIP3    H242651   3.632   4.856   4.566  0.0010 -0.8926 -1.6733
 7054TIP3   OH242652   5.030   2.237  12.995 -0.0788  0.3441  0.0509
 7054TIP3    H142653   4.951   2.261  13.043 -0.4571 -1.4724  0.4365
 7054TIP3    H242654   5.003   2.236  12.903 -0.7146 -0.8552  0.2277
 7055TIP3   OH242655   0.594   5.316   2.818  0.2658 -0.0775  0.5968
 7055TIP3    H142656   0.604   5.332   2.912  1.7439  1.3455  0.2452
 7055TIP3    H242657   0.524   5.376   2.790  0.6748  0.3863  0.5729
 7056TIP3   OH242658   1.439   2.861  11.606  0.2324  0.2425 -0.4562
 7056TIP3    H142659   1.504   2.795  11.583  0.0935  0.3423 -1.1457
 7056TIP3    H242660   1.446   2.869  11.701  1.1516  0.1717 -0.5104
 7057TIP3   OH242661   3.900   5.997   5.564 -0.2293  0.5205  0.3615
 7057TIP3    H142662   3.983   6.037   5.538 -0.1082 -0.9761 -1.8889
 7057TIP3    H242663   3.838   6.070   5.566  0.6301  1.3075 -0.4713
 7058TIP3   OH242664   0.809   0.958  11.003  0.0749  0.0055 -0.1365
 7058TIP3    H142665   0.757   0.972  11.082  0.3482 -1.7150  0.3927
 7058TIP3    H242666   0.860   1.039  10.993 -1.4973  1.0775  0.2260
 7059TIP3   OH242667   0.562   6.236   1.052  0.1767  0.7237  0.6619
 7059TIP3    H142668   0.521   6.322   1.062  1.0288  1.0906  1.1005
 7059TIP3    H242669   0.656   6.253   1.056  0.3590 -0.2353  0.8152
 7060TIP3   OH242670   3.198   6.807   5.626 -0.1219 -0.0620 -0.0442
 7060TIP3    H142671   3.114   6.836   5.591 -0.5543  1.3855  2.0228
 7060TIP3    H242672   3.256   6.882   5.617  0.0276  0.0216  1.3509
 7061TIP3   OH242673   4.158   6.540   3.071 -0.3910 -0.2833  0.2592
 7061TIP3    H142674   4.120   6.553   3.157 -2.1486  1.6695 -0.7247
 7061TIP3    H242675   4.181   6.629   3.041 -0.6631 -0.7899 -1.6041
 7062TIP3   OH242676   6.347   2.779  15.864 -0.3860  1.2812 -0.4272
 7062TIP3    H142677   6.425   2.727  15.882  0.0708  2.4754  1.3627
 7062TIP3    H242678   6.369   2.866  15.898 -2.2479  1.8104 -0.4848
 7063TIP3   OH242679   2.448   6.515  13.589 -0.3003  0.4983 -0.0472
 7063TIP3    H142680   2.486   6.585  13.536  1.2578 -0.6869 -0.5655
 7063TIP3    H242681   2.355   6.515  13.566  0.1031  0.8622 -1.8440
 7064TIP3   OH242682   3.517   5.924  16.992 -0.3828  0.1638 -0.0264
 7064TIP3    H142683   3.448   5.914  16.927 -0.3428 -0.3879  0.0106
 7064TIP3    H242684   3.490   6.000  17.044 -2.3164 -1.5192  1.6102
 7065TIP3   OH242685   1.664   3.976  12.465  0.7294 -0.0233  0.2592
 7065TIP3    H142686   1.575   3.997  12.492  0.4806  0.4348 -0.8800
 7065TIP3    H242687   1.665   3.880  12.459  0.5645 -0.0857  1.0669
 7066TIP3   OH242688   5.593   1.251   3.870 -0.2292 -0.6594  0.2080
 7066TIP3    H142689   5.681   1.240   3.834 -0.5646 -1.0167 -0.5127
 7066TIP3    H242690   5.594   1.339   3.909  0.5290 -0.7747  0.4524
 7067TIP3   OH242691   6.209   4.003  15.692 -0.3003 -0.0287 -0.5424
 7067TIP3    H142692   6.261   3.922  15.687 -0.5396 -0.1590 -1.0121
 7067TIP3    H242693   6.226   4.047  15.609 -0.0935  0.4562 -0.2438
 7068TIP3   OH242694   5.580   6.413   6.296 -0.4552  0.3077  0.2979
 7068TIP3    H142695   5.666   6.441   6.327  0.8703 -2.9633 -0.0404
 7068TIP3    H242696   5.526   6.412   6.375  1.2368 -2.1623  1.5650
 7069TIP3   OH242697   4.273   1.836   2.531 -0.4082  0.3606 -0.1141
 7069TIP3    H142698   4.318   1.754   2.510 -1.5141 -0.1196 -0.6959
 7069TIP3    H242699   4.189   1.809   2.567 -0.5784  1.2386  0.1748
 7070TIP3   OH242700   2.647   6.363  14.592 -0.0194 -0.1478  0.5045
 7070TIP3    H142701   2.655   6.272  14.621 -0.8374 -0.3201  0.1983
 7070TIP3    H242702   2.646   6.414  14.673 -0.2588 -0.4676  0.7055
 7071TIP3   OH242703   0.158   3.304   0.215  0.5192 -0.1980 -0.5195
 7071TIP3    H142704   0.178   3.327   0.124 -0.9321 -0.2549 -0.8852
 7071TIP3    H242705   0.196   3.217   0.227  0.9563 -0.0762 -0.9939
 7072TIP3   OH242706   2.272   5.855   4.139  0.2576 -0.2170  0.2799
 7072TIP3    H142707   2.216   5.932   4.152  0.0342 -0.3172 -0.0774
 7072TIP3    H242708   2.284   5.850   4.044 -2.5499 -2.6043 -0.0731
 7073TIP3   OH242709   0.332   4.684  12.326 -0.0478 -0.0359 -0.2087
 7073TIP3    H142710   0.256   4.673  12.383 -0.6887  0.0484 -1.0357
 7073TIP3    H242711   0.403   4.638  12.372 -0.4311  0.4063  0.8737
 7074TIP3   OH242712   0.492   0.381   4.861  0.2532  0.5088 -0.5519
 7074TIP3    H142713   0.525   0.328   4.934  1.6250  0.0867 -1.4338
 7074TIP3    H242714   0.443   0.319   4.807  0.6866  0.4344 -0.8646
 7075TIP3   OH242715   1.880   4.195   6.157  0.5650  0.3827 -0.0028
 7075TIP3    H142716   1.858   4.164   6.069  1.5748 -0.2178 -0.0610
 7075TIP3    H242717   1.905   4.287   6.144  1.4650  0.0801 -0.4801
 7076TIP3   OH242718   4.775   6.465  13.730 -0.3539  0.2220  0.0243
 7076TIP3    H142719   4.827   6.415  13.668 -0.8465 -2.3156  1.5341
 7076TIP3    H242720   4.685   6.456  13.699 -0.4961 -0.2629  0.5587
 7077TIP3   OH242721   4.907   1.852   1.383 -0.6352 -0.2107 -0.1047
 7077TIP3    H142722   4.851   1.929   1.374 -0.5420 -0.0243  0.8933
 7077TIP3    H242723   4.909   1.834   1.477  2.5215  0.9343  0.1645
 7078TIP3   OH242724   4.878   1.630  13.122  0.0842 -0.0164  0.3290
 7078TIP3    H142725   4.886   1.700  13.057  0.4571  0.2377  0.6419
 7078TIP3    H242726   4.967   1.594  13.129 -0.6397 -2.5599 -2.0411
 7079TIP3   OH242727   3.910   1.951   1.883 -0.5704  0.0318 -0.2168
 7079TIP3    H142728   4.001   1.920   1.888 -0.5249 -0.1810 -1.8690
 7079TIP3    H242729   3.917   2.046   1.876 -0.5686  0.1640  1.1827
 7080TIP3   OH242730   3.925   1.307   6.169  0.4549  0.2616 -0.2327
 7080TIP3    H142731   3.907   1.293   6.261 -1.1514 -0.2098 -0.5800
 7080TIP3    H242732   3.852   1.362   6.138 -0.0185 -1.0360 -1.5704
 7081TIP3   OH242733   1.942   6.713  15.668  0.3037 -0.2378 -0.4028
 7081TIP3    H142734   1.884   6.731  15.595  0.8249  0.9732 -0.5434
 7081TIP3    H242735   1.889   6.664  15.731  0.2010 -2.4434 -2.1191
 7082TIP3   OH242736   0.766   5.249   2.489  0.0978  0.0694  0.0260
 7082TIP3    H142737   0.723   5.165   2.502 -0.9932  0.8045  1.3951
 7082TIP3    H242738   0.700   5.304   2.446  1.4278 -0.2903 -2.6639
 7083TIP3   OH242739   2.182   2.945   5.112 -0.5362 -0.4501  0.0041
 7083TIP3    H142740   2.159   2.890   5.037  1.3401 -1.7768  0.3274
 7083TIP3    H242741   2.156   2.893   5.188  2.8358 -1.8577  0.3743
 7084TIP3   OH242742   4.506   4.787   2.303  0.3624  0.3325  0.3704
 7084TIP3    H142743   4.439   4.719   2.313  0.2808  0.6845  2.6901
 7084TIP3    H242744   4.558   4.757   2.228 -1.0074 -1.1041 -0.0869
 7085TIP3   OH242745   2.568   4.454   5.580  0.1350  0.0777  0.8056
 7085TIP3    H142746   2.629   4.523   5.607  0.9514 -0.7761  1.2164
 7085TIP3    H242747   2.623   4.394   5.529 -0.9602  0.6829 -1.1834
 7086TIP3   OH242748   3.071   3.918  10.880 -0.0027 -0.2764 -0.0169
 7086TIP3    H142749   3.069   3.829  10.913  2.1995 -0.5833 -0.5643
 7086TIP3    H242750   3.089   3.909  10.786 -2.2757  0.6968 -0.6108
 7087TIP3   OH242751   4.045   4.218  11.152 -0.5005 -0.6013  0.4818
 7087TIP3    H142752   3.986   4.279  11.108 -0.0666  0.1485  0.9121
 7087TIP3    H242753   3.988   4.149  11.185 -1.0596 -0.2234  0.3274
 7088TIP3   OH242754   4.340   3.537  15.229 -0.1439  0.0472  0.2911
 7088TIP3    H142755   4.336   3.630  15.248  1.6162 -0.0889  1.5626
 7088TIP3    H242756   4.254   3.503  15.253 -0.8969  1.3633 -0.4528
 7089TIP3   OH242757   6.506   1.144  14.672  0.2728  0.0281  0.1289
 7089TIP3    H142758   6.524   1.065  14.620  1.5701 -0.7515  1.6601
 7089TIP3    H242759   6.419   1.128  14.709  1.0543 -1.3533  1.4895
 7090TIP3   OH242760   2.513   0.202   4.752  0.3693 -0.4992 -0.5823
 7090TIP3    H142761   2.595   0.197   4.802  0.1378  2.1287  0.2466
 7090TIP3    H242762   2.537   0.245   4.670 -0.0383 -0.4428 -0.6750
 7091TIP3   OH242763   0.059   6.190  12.097  0.3151  0.1169 -0.1646
 7091TIP3    H142764   0.151   6.181  12.071  0.5089 -0.6108  0.7233
 7091TIP3    H242765   0.038   6.281  12.078  1.4077  0.4587  0.1776
 7092TIP3   OH242766   2.968   2.133   5.683 -0.6367  0.7019 -0.5520
 7092TIP3    H142767   3.046   2.171   5.723 -0.4955 -0.8829  0.7570
 7092TIP3    H242768   2.997   2.105   5.596 -0.1210  1.3591 -0.5984
 7093TIP3   OH242769   3.787   1.801  13.578  0.4164  0.4635 -0.5250
 7093TIP3    H142770   3.815   1.870  13.639  1.5193  0.8396 -1.4366
 7093TIP3    H242771   3.831   1.822  13.496 -0.4400 -0.4838 -1.2458
 7094TIP3   OH242772   5.274   5.977   4.293  0.4043  0.1343 -0.2379
 7094TIP3    H142773   5.351   5.949   4.243  0.1438  1.5046 -1.4881
 7094TIP3    H242774   5.310   6.021   4.370  1.0354  2.5553 -1.7777
 7095TIP3   OH242775   5.257   0.903   2.095  0.5533 -0.0449 -0.1568
 7095TIP3    H142776   5.349   0.883   2.077  0.7638 -0.3918  1.1428
 7095TIP3    H242777   5.257   0.933   2.186 -0.5242  0.6998 -0.3793
 7096TIP3   OH242778   5.706   6.541  16.203 -0.1221  0.2964 -0.4452
 7096TIP3    H142779   5.742   6.623  16.238 -0.0766  0.1358 -0.1105
 7096TIP3    H242780   5.620   6.565  16.169  0.3479  0.7102 -1.3692
 7097TIP3   OH242781   5.750   5.941   4.096 -0.4697 -0.1878 -0.0078
 7097TIP3    H142782   5.803   6.020   4.086 -0.1506 -0.5580 -1.6272
 7097TIP3    H242783   5.755   5.899   4.010  0.6100 -2.7615  1.2305
 7098TIP3   OH242784   1.626   3.250   5.062 -0.7952 -0.0471  0.0735
 7098TIP3    H142785   1.640   3.218   4.973  1.4443  0.4735  0.1810
 7098TIP3    H242786   1.587   3.337   5.050  1.4763  0.9501 -0.5313
 7099TIP3   OH242787   1.190   2.144   5.456  0.5331  0.0625  0.2349
 7099TIP3    H142788   1.270   2.182   5.493  0.6641  0.0281 -0.0064
 7099TIP3    H242789   1.120   2.172   5.515  0.8021 -0.4263  0.7985
 7100TIP3   OH242790   0.114   4.496  14.762  0.0765 -0.1306 -0.2369
 7100TIP3    H142791   0.059   4.498  14.684 -0.9030 -1.8247  0.3779
 7100TIP3    H242792   0.107   4.407  14.795  3.4522 -0.5743 -0.2991
 7101TIP3   OH242793   6.638   6.246  13.379  0.3067 -0.0247  0.9509
 7101TIP3    H142794   6.569   6.180  13.368  1.5629 -1.2817  0.1699
 7101TIP3    H242795   6.599   6.327  13.346  0.3704 -1.4701 -3.2971
 7102TIP3   OH242796   5.276   1.768  11.930  0.2002 -0.3115  0.1483
 7102TIP3    H142797   5.310   1.816  12.006 -0.7702  0.2713  0.2372
 7102TIP3    H242798   5.349   1.713  11.902  0.7292 -0.1791  1.2070
 7103TIP3   OH242799   2.724   4.250  15.526  0.1105 -0.5738 -0.2831
 7103TIP3    H142800   2.782   4.181  15.558 -0.6663 -0.7777  0.7478
 7103TIP3    H242801   2.641   4.234  15.571  0.0656  1.3734  0.4257
 7104TIP3   OH242802   1.960   5.038  11.910  0.0164  0.8289  0.0132
 7104TIP3    H142803   2.024   4.991  11.858 -0.9948 -0.7239  0.0870
 7104TIP3    H242804   1.916   5.096  11.848  0.9838  1.3544 -0.1847
 7105TIP3   OH242805   0.448   0.932   6.565  0.1109  0.8435 -0.0957
 7105TIP3    H142806   0.363   0.925   6.521  0.6777  1.7235 -1.3977
 7105TIP3    H242807   0.427   0.962   6.653 -1.1745 -2.2921  0.8263
 7106TIP3   OH242808   6.461   1.657   1.151  0.0494 -0.1533 -0.1179
 7106TIP3    H142809   6.407   1.614   1.218 -1.2903  1.7900  0.1216
 7106TIP3    H242810   6.421   1.632   1.068  0.1754 -0.5343 -0.0664
 7107TIP3   OH242811   4.190   0.615   2.669 -0.2847  0.8241  0.2028
 7107TIP3    H142812   4.219   0.527   2.691 -1.1761  1.2309  3.5006
 7107TIP3    H242813   4.221   0.629   2.579  0.1194 -2.6872 -0.3390
 7108TIP3   OH242814   3.384   3.034  11.701  0.7648  0.6904 -0.5296
 7108TIP3    H142815   3.367   3.124  11.730  1.5274  1.9584 -3.5525
 7108TIP3    H242816   3.297   2.997  11.684  0.4879  1.7054 -1.4200
 7109TIP3   OH242817   5.302   6.420  11.627  0.0464  0.5877 -0.6303
 7109TIP3    H142818   5.209   6.430  11.604 -0.0731  1.4737  0.1861
 7109TIP3    H242819   5.330   6.508  11.653  0.3620 -0.1514  1.8097
 7110TIP3   OH242820   0.345   5.664   5.661 -0.3320 -0.0028 -0.6652
 7110TIP3    H142821   0.397   5.729   5.615 -0.8448 -0.8470 -2.5160
 7110TIP3    H242822   0.254   5.688   5.643 -0.5306 -1.0015 -1.0574
 7111TIP3   OH242823   5.666   6.184   4.664  0.3289  0.6742  0.0405
 7111TIP3    H142824   5.731   6.214   4.601  1.0198 -0.5743  0.1153
 7111TIP3    H242825   5.618   6.263   4.689 -1.0080  1.0129 -3.1658
 7112TIP3   OH242826   2.596   2.542  16.350  0.4638 -0.3546  0.2996
 7112TIP3    H142827   2.504   2.522  16.366  0.1642  1.0363  0.4068
 7112TIP3    H242828   2.624   2.475  16.288 -0.4957 -1.0541  0.5968
 7113TIP3   OH242829   3.759   5.161  14.473  0.6523  0.0655  0.4123
 7113TIP3    H142830   3.824   5.115  14.421  0.6952 -0.1822  0.6785
 7113TIP3    H242831   3.685   5.175  14.414  0.2169 -1.2693  0.5905
 7114TIP3   OH242832   2.490   2.295   0.174  0.1483  0.2542 -0.3733
 7114TIP3    H142833   2.451   2.364   0.120  0.6951  1.3309  0.5708
 7114TIP3    H242834   2.568   2.335   0.212 -1.0156  0.1002  2.4464
 7115TIP3   OH242835   0.971   1.668  14.797 -0.0319 -0.0241 -0.1218
 7115TIP3    H142836   1.046   1.630  14.843 -0.1968  0.1483  0.2850
 7115TIP3    H242837   0.948   1.746  14.847 -1.8406 -1.2214  1.0292
 7116TIP3   OH242838   5.554   1.716   2.503  0.5405  0.0393 -0.6638
 7116TIP3    H142839   5.601   1.788   2.460 -1.7463  1.5337 -0.8215
 7116TIP3    H242840   5.475   1.757   2.539 -0.0139 -2.1060  0.7496
 7117TIP3   OH242841   1.729   3.724  12.450  0.2817  0.1846 -0.3321
 7117TIP3    H142842   1.764   3.652  12.397 -0.5994  0.9512 -2.0540
 7117TIP3    H242843   1.653   3.686  12.495 -1.2865  0.3782 -2.6150
 7118TIP3   OH242844   0.120   4.823  16.184 -0.2173  0.4393  0.4173
 7118TIP3    H142845   0.143   4.887  16.117 -0.1573 -0.3411 -0.3232
 7118TIP3    H242846   0.035   4.853  16.217 -1.4202 -0.4295 -1.6811
 7119TIP3   OH242847   4.422   0.193  16.768 -0.4766  0.1322  0.0199
 7119TIP3    H142848   4.446   0.140  16.691  0.7054 -2.1886  1.8583
 7119TIP3    H242849   4.472   0.273  16.758 -0.6111  0.0379 -1.7854
 7120TIP3   OH242850   2.841   2.078  11.497 -0.1612 -0.3193  0.1543
 7120TIP3    H142851   2.828   2.128  11.417  1.3138  0.5451  0.4068
 7120TIP3    H242852   2.767   2.102  11.553  0.1786  1.1054  0.0230
 7121TIP3   OH242853   4.212   5.690  10.948  0.0947  0.1980  0.2471
 7121TIP3    H142854   4.240   5.615  11.001  0.6680  1.1066  1.2632
 7121TIP3    H242855   4.240   5.668  10.859 -0.8884 -1.3613  0.2828
 7122TIP3   OH242856   2.962   1.962   0.043  0.7765 -0.0888 -0.3026
 7122TIP3    H142857   2.941   2.030  -0.021 -1.6902  0.9626  1.4729
 7122TIP3    H242858   2.976   2.010   0.125 -0.9386 -1.6431  0.9745
 7123TIP3   OH242859   5.186   0.199  12.574 -0.4073  0.3940  0.2063
 7123TIP3    H142860   5.167   0.106  12.579 -1.1958  0.6078  2.2186
 7123TIP3    H242861   5.117   0.235  12.519 -0.6936 -0.0639  0.2646
 7124TIP3   OH242862   5.679   2.983   0.929 -0.1280 -0.0393  0.1071
 7124TIP3    H142863   5.692   3.015   1.019 -2.1190  0.9872  0.0862
 7124TIP3    H242864   5.755   3.016   0.881 -0.8782  2.7483  0.6313
 7125TIP3   OH242865   1.063   3.556   5.093 -0.8917  0.1920 -0.7340
 7125TIP3    H142866   1.033   3.623   5.031  0.4276  1.9901  0.5075
 7125TIP3    H242867   1.151   3.533   5.063  0.2446  1.9460  1.0673
 7126TIP3   OH242868   4.144   2.353   3.416 -0.0656  0.8594  0.0779
 7126TIP3    H142869   4.233   2.322   3.399 -0.1636 -0.3196  1.4963
 7126TIP3    H242870   4.104   2.360   3.329  1.9808  3.3915 -0.7667
 7127TIP3   OH242871   0.653   6.215  16.651  0.4076 -0.4795 -0.1238
 7127TIP3    H142872   0.608   6.229  16.734 -0.8341 -2.4977 -0.3804
 7127TIP3    H242873   0.703   6.134  16.664  1.0719 -0.2276 -1.0068
 7128TIP3   OH242874   4.502   4.078   1.092 -0.0314 -0.7782 -0.1279
 7128TIP3    H142875   4.460   4.027   1.161  1.1277 -0.4844  0.8205
 7128TIP3    H242876   4.470   4.167   1.104  0.8734 -0.5417  0.6340
 7129TIP3   OH242877   0.802   6.189  10.676  0.0176  0.3372 -0.2343
 7129TIP3    H142878   0.845   6.274  10.676  0.9744 -0.1282  0.4738
 7129TIP3    H242879   0.817   6.154  10.588  0.3941  0.5234 -0.2448
 7130TIP3   OH242880   1.780   0.117  16.976  0.0214 -0.4729 -0.4857
 7130TIP3    H142881   1.764   0.058  17.050 -0.0817 -1.4524 -1.2659
 7130TIP3    H242882   1.875   0.128  16.975  0.0186 -0.4094 -0.1804
 7131TIP3   OH242883   5.947   2.048  12.698  0.5558 -0.3792 -0.2758
 7131TIP3    H142884   5.889   2.057  12.622  0.7956 -0.0668 -0.4211
 7131TIP3    H242885   5.938   2.131  12.746 -0.3600 -0.9542  0.5796
 7132TIP3   OH242886   4.348   1.612   2.849 -0.4842 -0.8366  0.1478
 7132TIP3    H142887   4.416   1.611   2.781 -1.3472  1.2468 -0.8214
 7132TIP3    H242888   4.388   1.564   2.922  0.5840 -2.9467 -1.6662
 7133TIP3   OH242889   3.793   4.297   1.554  0.1323 -0.0256  0.1705
 7133TIP3    H142890   3.871   4.295   1.500 -1.6675  0.0515 -2.6692
 7133TIP3    H242891   3.791   4.384   1.592  0.6861  0.4917 -0.9579
 7134TIP3   OH242892   3.708   0.684  13.991 -0.0368 -0.1531  0.6035
 7134TIP3    H142893   3.712   0.760  14.049  0.9756  0.2511  0.0301
 7134TIP3    H242894   3.764   0.619  14.034  0.8035  0.1857  0.0529
 7135TIP3   OH242895   5.047   4.585   2.637 -0.4837 -0.0606  0.8174
 7135TIP3    H142896   5.002   4.551   2.714 -2.4832 -0.5248 -0.4812
 7135TIP3    H242897   5.029   4.679   2.638 -1.1257 -0.1770  0.5446
 7136TIP3   OH242898   1.790   1.370  12.966 -0.4489 -0.1163 -0.1254
 7136TIP3    H142899   1.711   1.408  12.926  0.1421  1.0415 -0.2408
 7136TIP3    H242900   1.828   1.441  13.016  0.9544 -0.4119 -0.7163
 7137TIP3   OH242901   0.214   4.456   3.284 -0.0305 -0.4890  0.6163
 7137TIP3    H142902   0.178   4.367   3.281 -0.3603 -0.3741  1.0399
 7137TIP3    H242903   0.148   4.507   3.331 -0.0301  0.0735  0.0250
 7138TIP3   OH242904   3.144   1.161   1.298  0.2131  0.2933 -0.2578
 7138TIP3    H142905   3.183   1.106   1.231  1.1681  2.1810 -1.3386
 7138TIP3    H242906   3.126   1.244   1.254  0.4138  1.4453  1.6918
 7139TIP3   OH242907   3.940   3.890   3.042  0.1246  0.1757 -0.4329
 7139TIP3    H142908   3.863   3.880   2.987 -0.3623  0.7273  0.1373
 7139TIP3    H242909   4.014   3.866   2.985 -0.5403 -1.3955 -0.6812
 7140TIP3   OH242910   1.201   4.858   5.658 -0.5557 -0.0174  0.3546
 7140TIP3    H142911   1.293   4.878   5.643 -0.5851  0.3806  0.6735
 7140TIP3    H242912   1.157   4.890   5.579 -0.5021  0.4511  0.5093
 7141TIP3   OH242913   0.161   2.817   4.823 -0.0961  0.0962  0.1870
 7141TIP3    H142914   0.080   2.866   4.807  0.2000  0.0941 -1.6242
 7141TIP3    H242915   0.229   2.884   4.828  0.0033  0.0093  0.0173
 7142TIP3   OH242916   2.625   2.510   2.827  0.4411 -0.3981 -0.3489
 7142TIP3    H142917   2.640   2.601   2.803  1.2070 -0.5283 -0.3965
 7142TIP3    H242918   2.664   2.501   2.914 -3.0449  0.2936  1.4646
 7143TIP3   OH242919   2.456   1.980   4.146  0.1971 -0.5553  0.2088
 7143TIP3    H142920   2.406   1.899   4.142  0.1738 -0.7624  2.8530
 7143TIP3    H242921   2.494   1.981   4.234  1.0348  1.8223 -0.0898
 7144TIP3   OH242922   5.540   2.179  12.932  0.1312  0.2368 -0.5805
 7144TIP3    H142923   5.459   2.226  12.911 -0.8912 -0.8364  0.7941
 7144TIP3    H242924   5.584   2.235  12.996 -0.8642 -0.4118  0.7128
 7145TIP3   OH242925   4.447   1.259  16.956 -0.3971  1.1701 -0.1186
 7145TIP3    H142926   4.459   1.172  16.995  0.8967  0.3969 -2.1248
 7145TIP3    H242927   4.373   1.296  17.005 -1.0900 -1.0916  0.7090
 7146TIP3   OH242928   0.512   3.906  11.279 -0.5222 -0.2201 -0.3413
 7146TIP3    H142929   0.534   3.831  11.334  2.4421  1.6517  1.3196
 7146TIP3    H242930   0.458   3.962  11.336  1.2565  1.0126  0.2069
 7147TIP3   OH242931   0.820   6.535   4.335 -0.5635  0.0196  0.3188
 7147TIP3    H142932   0.891   6.472   4.326 -0.2537  0.2870  0.8753
 7147TIP3    H242933   0.835   6.598   4.264 -2.0214 -1.5944 -1.5521
 7148TIP3   OH242934   5.331   5.880  16.548  0.0713 -0.0596  0.4208
 7148TIP3    H142935   5.374   5.946  16.494  1.9875 -1.2085  0.4445
 7148TIP3    H242936   5.246   5.867  16.505  0.0040  1.7482 -0.0794
 7149TIP3   OH242937   5.690   0.528   2.363  0.6432 -0.1461 -0.0651
 7149TIP3    H142938   5.772   0.530   2.412  0.8520 -2.5756 -0.1997
 7149TIP3    H242939   5.716   0.511   2.273  0.0305 -2.0407  0.0563
 7150TIP3   OH242940   4.635   6.667   0.069  0.8174  0.0922 -0.2755
 7150TIP3    H142941   4.727   6.647   0.053  0.9041  0.5452 -0.3567
 7150TIP3    H242942   4.633   6.702   0.158  0.8155  0.6216 -0.4739
 7151TIP3   OH242943   4.618   1.698   1.827 -0.5877  0.2766  1.1510
 7151TIP3    H142944   4.686   1.645   1.868 -0.9903  0.5127  2.1467
 7151TIP3    H242945   4.632   1.686   1.733  0.8423  0.3423  1.3338
 7152TIP3   OH242946   4.194   6.641  14.488  0.2497 -0.6013 -0.9122
 7152TIP3    H142947   4.186   6.724  14.535  0.2274  0.2143 -2.3110
 7152TIP3    H242948   4.286   6.616  14.499  0.2339 -0.4499 -0.4133
 7153TIP3   OH242949   0.812   0.996  13.598  0.2372 -0.3902  0.2134
 7153TIP3    H142950   0.737   1.001  13.657  0.6773 -0.2710  0.7769
 7153TIP3    H242951   0.887   0.980  13.657  0.9072  1.2414 -0.1574
 7154TIP3   OH242952   1.710   3.009   2.521 -0.7219 -0.1209  0.1443
 7154TIP3    H142953   1.775   3.079   2.524 -0.5697 -0.1016 -1.9475
 7154TIP3    H242954   1.626   3.054   2.520 -0.6108  0.1946 -2.3180
 7155TIP3   OH242955   1.418   6.182   5.361 -0.4013 -0.1546  0.1362
 7155TIP3    H142956   1.396   6.100   5.404 -2.6139  0.6106  0.6370
 7155TIP3    H242957   1.408   6.248   5.429 -1.5582  0.8167 -0.9234
 7156TIP3   OH242958   2.963   5.410   0.285  0.2796  0.1927 -0.5055
 7156TIP3    H142959   2.941   5.481   0.225  0.3283  1.4697  0.9100
 7156TIP3    H242960   2.885   5.397   0.338  0.8459  0.4584  0.4331
 7157TIP3   OH242961   6.033   6.659  11.913  0.1699  0.4918  0.0728
 7157TIP3    H142962   6.052   6.724  11.981  0.8940  1.4718 -1.0247
 7157TIP3    H242963   6.110   6.661  11.856 -0.4814 -0.2015 -0.8532
 7158TIP3   OH242964   1.457   4.878  14.965  0.1768  0.8247 -0.3953
 7158TIP3    H142965   1.543   4.895  15.003 -0.0557  0.5154  0.2886
 7158TIP3    H242966   1.472   4.879  14.870  1.0504  0.1740 -0.2780
 7159TIP3   OH242967   1.045   3.904  15.157 -0.6635 -0.4630  0.0641
 7159TIP3    H142968   0.970   3.914  15.215 -0.1916  1.6000  0.3995
 7159TIP3    H242969   1.101   3.840  15.200 -0.0605  1.4159  2.2461
 7160TIP3   OH242970   1.720   0.995   1.171  0.3311  0.4465 -0.1778
 7160TIP3    H142971   1.710   0.919   1.113 -0.7278  0.5544 -0.1533
 7160TIP3    H242972   1.636   1.040   1.166  0.3512  0.6722  1.1388
 7161TIP3   OH242973   5.022   2.548   0.521  0.4989 -0.6702  0.5545
 7161TIP3    H142974   4.970   2.567   0.599  0.6570  0.0227  0.4952
 7161TIP3    H242975   5.099   2.605   0.529 -1.0609  2.0004 -1.7653
 7162TIP3   OH242976   5.065   5.857   2.367 -0.1114  0.0514 -0.3323
 7162TIP3    H142977   5.114   5.858   2.449  2.8758  0.4680 -2.0109
 7162TIP3    H242978   5.064   5.765   2.341  0.2357  0.1161 -0.5690
 7163TIP3   OH242979   2.203   0.649  11.687  0.0660  0.0801 -0.0008
 7163TIP3    H142980   2.171   0.563  11.713 -0.6851  0.6721  1.1867
 7163TIP3    H242981   2.127   0.706  11.699  0.5159  0.8862 -0.8791
 7164TIP3   OH242982   5.258   2.101  11.501 -0.0088  0.0191 -0.7399
 7164TIP3    H142983   5.165   2.125  11.496 -0.2792 -1.1336 -2.5601
 7164TIP3    H242984   5.289   2.108  11.411  1.0732 -1.7350 -0.5564
 7165TIP3   OH242985   3.531   0.478  12.513 -0.1174  0.0780 -0.0383
 7165TIP3    H142986   3.502   0.397  12.556  0.3784 -0.0150  0.1297
 7165TIP3    H242987   3.461   0.499  12.451 -1.0036  0.4061  1.0582
 7166TIP3   OH242988   1.666   4.057  11.830  0.3596  0.5142  0.4149
 7166TIP3    H142989   1.672   4.152  11.826 -0.3961  0.5282 -0.6874
 7166TIP3    H242990   1.573   4.039  11.845  0.7751 -0.0257  2.7918
 7167TIP3   OH242991   6.757   0.597  11.969  0.1999  0.0326 -0.3600
 7167TIP3    H142992   6.677   0.645  11.950 -0.8371 -2.2904 -2.3076
 7167TIP3    H242993   6.827   0.650  11.930 -0.6197  0.9641 -0.5993
 7168TIP3   OH242994   1.678   5.234  14.996  0.1253 -0.5088 -0.1632
 7168TIP3    H142995   1.692   5.189  15.079  0.2794 -1.2167 -0.5636
 7168TIP3    H242996   1.584   5.253  14.995  0.2474  0.1949  0.5054
 7169TIP3   OH242997   1.781   5.701  11.222 -0.4817  0.1754  0.8038
 7169TIP3    H142998   1.811   5.778  11.270 -1.1461  1.0479 -0.1436
 7169TIP3    H242999   1.691   5.722  11.195 -0.6950 -0.9482  0.5575
 7170TIP3   OH243000   0.742   6.542   0.288 -0.4568 -0.1993  0.0782
 7170TIP3    H143001   0.653   6.522   0.259 -0.5675  1.2795 -0.7372
 7170TIP3    H243002   0.740   6.637   0.306  0.9401 -0.1556  0.0946
 7171TIP3   OH243003   1.015   1.727  16.317 -0.6196 -1.3909 -0.5000
 7171TIP3    H143004   0.955   1.775  16.374 -1.0012 -1.7245 -0.6179
 7171TIP3    H243005   1.054   1.795  16.262  0.2480 -0.9701  0.5863
 7172TIP3   OH243006   3.705   3.324  12.037 -0.2390  0.3096  0.3928
 7172TIP3    H143007   3.631   3.266  12.023 -0.3869  0.7549 -0.7403
 7172TIP3    H243008   3.782   3.271  12.013 -0.4483  0.8783 -1.6958
 7173TIP3   OH243009   1.452   1.671  11.227  0.1793 -0.2295  0.1612
 7173TIP3    H143010   1.547   1.679  11.240 -0.0870  0.8552  1.6237
 7173TIP3    H243011   1.428   1.593  11.277  0.4265 -1.1353 -1.0821
 7174TIP3   OH243012   0.746   6.499  13.008 -0.0342 -0.2073  0.2512
 7174TIP3    H143013   0.683   6.571  13.012  0.4430  0.2025  0.7773
 7174TIP3    H243014   0.757   6.473  13.100 -1.1208 -1.7867 -0.0399
 7175TIP3   OH243015   1.663   4.920   0.969 -0.2783  0.1815 -0.4810
 7175TIP3    H143016   1.670   4.827   0.947 -1.1523 -0.2610  0.9139
 7175TIP3    H243017   1.609   4.921   1.049  0.3282  1.8338 -0.0564
 7176TIP3   OH243018   4.604   0.064   1.010  0.4598 -0.3847  0.3568
 7176TIP3    H143019   4.595  -0.031   1.014 -1.3651 -0.2545  0.2827
 7176TIP3    H243020   4.515   0.096   0.995  0.9437  1.3723  0.9782
 7177TIP3   OH243021   2.964   0.025   3.991 -0.6226 -0.0055  0.1880
 7177TIP3    H143022   3.053   0.015   3.955 -0.7395  0.0714 -0.1257
 7177TIP3    H243023   2.968   0.107   4.041 -0.1218 -0.7202  1.3851
 7178TIP3   OH243024   1.306   3.673   3.994 -0.5514 -0.2861  0.5823
 7178TIP3    H143025   1.227   3.620   3.994 -0.5907 -0.3278 -1.9789
 7178TIP3    H243026   1.280   3.756   3.953  0.7560 -0.4297 -0.6352
 7179TIP3   OH243027   6.346   6.091   3.439  0.0927  0.0679 -0.0940
 7179TIP3    H143028   6.400   6.105   3.517  0.1020 -2.6348  0.4613
 7179TIP3    H243029   6.410   6.072   3.370 -0.0210 -1.8733  0.2805
 7180TIP3   OH243030   1.136   1.253   5.162  0.2415 -0.1595 -0.4473
 7180TIP3    H143031   1.203   1.318   5.185  0.3512 -0.6312  0.6194
 7180TIP3    H243032   1.089   1.238   5.243  0.2293 -1.4424 -0.6802
 7181TIP3   OH243033   0.400   1.731   5.000  0.2991 -0.8327 -0.4590
 7181TIP3    H143034   0.377   1.824   4.994  2.5150 -0.2124 -0.2373
 7181TIP3    H243035   0.452   1.714   4.921  0.8186 -1.6069  0.0424
 7182TIP3   OH243036   3.616   0.736   3.018 -0.2967  0.1244  0.1686
 7182TIP3    H143037   3.691   0.705   3.070  0.9693  1.0065 -1.0537
 7182TIP3    H243038   3.597   0.663   2.959 -2.1938 -1.1601  2.2370
 7183TIP3   OH243039   5.651   5.945  14.280 -0.2614  0.4269 -0.2826
 7183TIP3    H143040   5.631   5.879  14.213  2.2749 -0.2383 -0.4799
 7183TIP3    H243041   5.695   5.896  14.350 -0.3368  1.5783  0.5997
 7184TIP3   OH243042   6.469   4.255  14.608 -0.2047  0.4542 -0.2296
 7184TIP3    H143043   6.509   4.170  14.591  0.9296  1.6122 -4.3895
 7184TIP3    H243044   6.541   4.318  14.600 -1.4843  2.0157 -0.0060
 7185TIP3   OH243045   0.118   5.313   1.072 -0.3650 -0.3953  0.1081
 7185TIP3    H143046   0.186   5.265   1.025 -1.6167  0.3908 -2.7808
 7185TIP3    H243047   0.153   5.326   1.160  2.5331 -1.3105 -0.8060
 7186TIP3   OH243048   6.402   3.859  14.962 -0.6005  0.4700  0.2922
 7186TIP3    H143049   6.324   3.879  14.910 -0.6357  1.5979  0.7347
 7186TIP3    H243050   6.472   3.850  14.898 -0.9047  0.4635 -0.0454
 7187TIP3   OH243051   2.700   6.248  11.448  0.1949 -0.1774 -0.3659
 7187TIP3    H143052   2.719   6.259  11.355 -1.9555 -0.0276 -0.8498
 7187TIP3    H243053   2.640   6.173  11.451 -1.9575  1.4821  0.5417
 7188TIP3   OH243054   5.799   0.145  15.461  0.5544  0.9056 -0.1146
 7188TIP3    H143055   5.746   0.175  15.387  1.6300 -0.4499 -1.5111
 7188TIP3    H243056   5.744   0.081  15.506  0.3748  0.7116 -0.5931
 7189TIP3   OH243057   4.535   2.560   1.138  0.5104  0.1391  0.1217
 7189TIP3    H143058   4.575   2.603   1.063  0.2455  0.2764  0.0591
 7189TIP3    H243059   4.441   2.574   1.127  0.3673 -1.0347 -0.2509
 7190TIP3   OH243060   5.683   4.876  15.769 -0.4531  0.6145  0.2576
 7190TIP3    H143061   5.774   4.897  15.788 -0.2468 -0.3673  0.4519
 7190TIP3    H243062   5.641   4.872  15.855 -1.3083  3.5334  0.0682
 7191TIP3   OH243063   5.585   5.714   0.008  0.2501 -0.6334 -0.0288
 7191TIP3    H143064   5.678   5.713   0.032  0.3227 -1.0275 -0.3180
 7191TIP3    H243065   5.586   5.713  -0.088 -0.0652 -2.0054 -0.0367
 7192TIP3   OH243066   1.948   4.034  15.050 -0.2362 -0.4364 -0.1763
 7192TIP3    H143067   1.888   3.963  15.073 -0.6110  0.5320  2.0389
 7192TIP3    H243068   1.901   4.084  14.983 -0.5984 -1.3976 -0.6551
 7193TIP3   OH243069   0.739   5.676   0.957  0.0483  0.1065  0.2676
 7193TIP3    H143070   0.763   5.695   1.047  0.7074 -0.0251  0.1300
 7193TIP3    H243071   0.681   5.747   0.931 -0.5127 -0.1004  0.9384
 7194TIP3   OH243072   3.073   2.750   0.436  0.2250 -0.6089 -0.0948
 7194TIP3    H143073   2.981   2.778   0.430  0.1686 -0.3867  1.4818
 7194TIP3    H243074   3.122   2.830   0.455  0.5822 -0.9135  0.2970
 7195TIP3   OH243075   1.432   2.933   0.756 -0.0752 -0.4958  0.0586
 7195TIP3    H143076   1.387   2.858   0.718  0.6096 -0.5083 -0.7464
 7195TIP3    H243077   1.476   2.975   0.682 -0.3543  0.6383  0.5060
 7196TIP3   OH243078   2.347   3.536  10.683  0.2402  0.5827 -0.1679
 7196TIP3    H143079   2.300   3.567  10.605 -1.6160 -0.5056  0.4570
 7196TIP3    H243080   2.438   3.563  10.668 -0.0484  0.4391 -2.7057
 7197TIP3   OH243081   4.972   3.549  16.181  0.7099  0.7778 -0.1728
 7197TIP3    H143082   4.910   3.537  16.109 -0.2343  1.8424  0.4353
 7197TIP3    H243083   5.058   3.546  16.139  0.2152  0.2724 -1.1800
 7198TIP3   OH243084   3.511   0.202   4.055 -0.0292  0.5054  0.2040
 7198TIP3    H143085   3.510   0.273   3.990 -0.3520  0.1803 -0.1493
 7198TIP3    H243086   3.601   0.171   4.055 -0.1371  0.1649 -0.4708
 7199TIP3   OH243087   6.184   0.975  16.602 -0.3872 -0.0457  0.0578
 7199TIP3    H143088   6.201   1.069  16.614 -0.2890 -0.2450  1.7324
 7199TIP3    H243089   6.270   0.939  16.581  0.0126 -0.0198  1.4813
 7200TIP3   OH243090   5.084   0.051   0.005 -0.6493  0.2645 -0.2804
 7200TIP3    H143091   5.058   0.018  -0.082 -1.4294 -0.4102  0.1877
 7200TIP3    H243092   5.122  -0.026   0.048 -1.1420  0.3498  0.3096
 7201TIP3   OH243093   3.941   5.236  11.515  0.3655  0.2994  0.3637
 7201TIP3    H143094   3.857   5.195  11.496  0.1135 -0.5247  2.9013
 7201TIP3    H243095   4.005   5.167  11.499  0.5542  0.7449 -0.9692
 7202TIP3   OH243096   3.503   4.429   6.146 -0.1036  0.1180  0.2643
 7202TIP3    H143097   3.493   4.511   6.195  0.2787  1.1116 -1.2798
 7202TIP3    H243098   3.486   4.361   6.211 -0.5925  1.4127  1.5471
 7203TIP3   OH243099   1.311   5.953  10.919  0.6994 -0.0051 -0.1929
 7203TIP3    H143100   1.244   6.007  10.877  0.6569 -0.6269 -0.9424
 7203TIP3    H243101   1.394   5.993  10.892  0.6700 -0.3474 -0.8034
 7204TIP3   OH243102   1.732   6.143   3.781  0.2992  0.6836  0.3868
 7204TIP3    H143103   1.712   6.058   3.741  1.3767  0.0002  1.2460
 7204TIP3    H243104   1.657   6.198   3.757 -1.7736 -1.2196  1.9902
 7205TIP3   OH243105   0.459   4.890  11.389 -0.0521  0.2501 -0.1642
 7205TIP3    H143106   0.365   4.878  11.397 -0.1123 -0.0430 -1.1887
 7205TIP3    H243107   0.477   4.878  11.296  0.4654  3.8396 -0.7031
 7206TIP3   OH243108   0.212   0.777  13.266  0.0228  0.0229 -0.0982
 7206TIP3    H143109   0.250   0.727  13.194  0.0375  0.3788 -0.3399
 7206TIP3    H243110   0.278   0.841  13.289 -1.0199  1.7592 -1.6395
 7207TIP3   OH243111   6.008   0.578  12.241  0.5640 -0.3446  0.3211
 7207TIP3    H143112   6.051   0.612  12.320  2.9127  0.8032 -1.3078
 7207TIP3    H243113   5.944   0.646  12.218  0.2589 -0.4236  0.9030
 7208TIP3   OH243114   3.428   5.167  14.043 -0.0360 -0.4081  0.6215
 7208TIP3    H143115   3.486   5.238  14.014  1.3094  0.2855  4.4962
 7208TIP3    H243116   3.479   5.087  14.030  0.2531 -0.1973  0.4437
 7209TIP3   OH243117   2.311   4.515  11.430  0.0047  0.5087  0.5051
 7209TIP3    H143118   2.310   4.494  11.336  1.4753  1.4331  0.2516
 7209TIP3    H243119   2.242   4.459  11.467 -0.3120 -0.2063 -1.0424
 7210TIP3   OH243120   5.038   0.118   2.777  0.1603  0.0216 -0.5704
 7210TIP3    H143121   4.958   0.166   2.754 -0.3000 -0.8385 -0.8049
 7210TIP3    H243122   5.015   0.069   2.855 -0.0484 -1.4382 -1.5163
 7211TIP3   OH243123   0.831   2.198   1.140 -0.4394 -0.2121  0.1019
 7211TIP3    H143124   0.882   2.267   1.097 -2.0763  1.3456  0.5308
 7211TIP3    H243125   0.740   2.225   1.128 -1.1846 -2.6592 -0.2643
 7212TIP3   OH243126   0.270   0.536  15.357  0.0046  0.0972 -0.6965
 7212TIP3    H143127   0.194   0.514  15.410  1.4603 -2.1871  0.6078
 7212TIP3    H243128   0.256   0.490  15.274 -0.6149  0.7530 -0.9636
 7213TIP3   OH243129   3.497   2.589  16.574 -0.3079  0.1058 -0.0799
 7213TIP3    H143130   3.458   2.502  16.566  0.5164 -0.3145  0.2812
 7213TIP3    H243131   3.426   2.650  16.555 -0.9331 -0.6468 -0.1875
 7214TIP3   OH243132   1.752   6.811  10.677 -0.2856 -0.1372 -0.6897
 7214TIP3    H143133   1.758   6.716  10.685  0.0656 -0.2771 -2.1845
 7214TIP3    H243134   1.783   6.845  10.760  2.2023 -1.2907 -1.0534
 7215TIP3   OH243135   2.087   2.485   1.541  0.2361  0.2646  0.5011
 7215TIP3    H143136   2.057   2.560   1.591 -3.3822  0.3901 -1.4950
 7215TIP3    H243137   2.125   2.522   1.461  0.6834 -0.0114  0.5800
 7216TIP3   OH243138   0.754   6.797   3.842 -0.0532  0.3413  0.2076
 7216TIP3    H143139   0.686   6.735   3.869 -0.1038  0.6810  0.8609
 7216TIP3    H243140   0.808   6.746   3.781  0.1210 -0.4798  1.0120
 7217TIP3   OH243141   2.558   4.548  16.260 -0.2234 -0.0838  0.5985
 7217TIP3    H143142   2.594   4.512  16.179 -1.3500 -0.0512  0.0521
 7217TIP3    H243143   2.515   4.629  16.233 -1.1903 -0.4107  1.0863
 7218TIP3   OH243144   3.782   0.160   4.061  0.4526 -0.1075 -0.1336
 7218TIP3    H143145   3.796   0.199   3.975 -0.0878  1.6576  0.5402
 7218TIP3    H243146   3.839   0.083   4.062  2.0194  0.9956 -1.2975
 7219TIP3   OH243147   6.152   4.535  16.716 -0.2674 -0.5453 -0.0563
 7219TIP3    H143148   6.160   4.558  16.809 -0.4135 -0.2576 -0.1175
 7219TIP3    H243149   6.065   4.496  16.709 -0.4164 -0.1978 -0.1520
 7220TIP3   OH243150   1.374   0.713  16.497  0.5069 -0.6394  0.3891
 7220TIP3    H143151   1.375   0.757  16.413  0.2937 -0.7610  0.3219
 7220TIP3    H243152   1.284   0.682  16.507  0.2626  0.2437  1.1093
 7221TIP3   OH243153   5.037   1.433  11.721 -0.0638  0.3219 -0.0659
 7221TIP3    H143154   5.010   1.519  11.689 -0.8131  1.0894  2.4290
 7221TIP3    H243155   4.981   1.372  11.675  0.1169  1.1723 -1.4901
 7222TIP3   OH243156   3.274   2.438  14.133 -0.5681 -0.4214  0.3661
 7222TIP3    H143157   3.339   2.383  14.087 -0.0409  0.8561 -0.4653
 7222TIP3    H243158   3.260   2.393  14.216  1.4941 -0.6709  0.6317
 7223TIP3   OH243159   3.591   3.291   4.948 -0.5314  1.0049  0.0990
 7223TIP3    H143160   3.607   3.321   5.038 -0.6188  0.9645  0.1281
 7223TIP3    H243161   3.666   3.324   4.898  0.8541 -1.0737  0.6530
 7224TIP3   OH243162   6.495   5.066  16.640  0.0332 -0.2247  0.8820
 7224TIP3    H143163   6.425   5.099  16.697 -1.4231  1.2151 -1.5762
 7224TIP3    H243164   6.549   5.143  16.622 -0.5480 -0.2201 -1.0145
 7225TIP3   OH243165   0.706   4.762   3.310 -0.1092 -0.2783  0.5525
 7225TIP3    H143166   0.781   4.801   3.266  0.2030  0.4961  1.7412
 7225TIP3    H243167   0.631   4.812   3.277 -0.0836 -0.7945 -0.3324
 7226TIP3   OH243168   1.947   1.792   3.465 -0.0696  0.2460  0.3021
 7226TIP3    H143169   1.949   1.784   3.370 -1.2427  0.7382  0.2249
 7226TIP3    H243170   1.887   1.865   3.482 -0.7822 -0.5856  1.4622
 7227TIP3   OH243171   1.601   4.896  17.031 -0.3654  0.9670  0.1922
 7227TIP3    H143172   1.559   4.869  17.113  1.7677  0.8812  1.3556
 7227TIP3    H243173   1.595   4.991  17.031 -1.4815  0.9055 -0.2122
 7228TIP3   OH243174   3.091   3.380   2.736 -0.3120 -0.7610  0.5430
 7228TIP3    H143175   3.100   3.361   2.829 -0.7890 -0.6966  0.6057
 7228TIP3    H243176   2.998   3.367   2.718 -0.5578  0.9587  0.4625
 7229TIP3   OH243177   5.179   4.590  14.862  0.6576 -0.0054  0.1733
 7229TIP3    H143178   5.241   4.518  14.848  0.6301  0.2131 -1.1994
 7229TIP3    H243179   5.199   4.621  14.951  3.1670  0.6526 -0.5322
 7230TIP3   OH243180   0.212   2.723  13.008  0.3436 -0.4486 -0.1330
 7230TIP3    H143181   0.196   2.634  13.040 -1.3856 -0.9259 -2.1247
 7230TIP3    H243182   0.128   2.767  13.021  0.6107  0.3100 -0.9636
 7231TIP3   OH243183   3.943   1.279   3.423 -0.2169  0.0750  0.0421
 7231TIP3    H143184   3.856   1.242   3.405  0.9993 -2.3477 -1.4716
 7231TIP3    H243185   3.984   1.287   3.337  1.8028 -0.8927  0.8427
 7232TIP3   OH243186   5.345   5.582  16.159  0.6741  0.8877  0.0107
 7232TIP3    H143187   5.440   5.593  16.166  0.8020 -0.7569  1.4799
 7232TIP3    H243188   5.334   5.507  16.100  0.2585  1.2681 -0.4094
 7233TIP3   OH243189   5.419   2.463   5.845 -0.7942  0.2853  0.1182
 7233TIP3    H143190   5.458   2.435   5.928  1.1626 -0.1541 -0.8784
 7233TIP3    H243191   5.343   2.406   5.833 -1.2173  0.4828  1.6727
 7234TIP3   OH243192   4.592   2.202  11.005 -0.0080  0.3707  0.6418
 7234TIP3    H143193   4.591   2.208  10.910 -0.9199  1.1326  0.6862
 7234TIP3    H243194   4.525   2.136  11.025  1.8265 -1.5930  0.6824
 7235TIP3   OH243195   3.977   1.313   1.761  0.5398 -0.5195 -0.2137
 7235TIP3    H143196   4.034   1.389   1.766  1.0879 -0.9176 -0.3567
 7235TIP3    H243197   3.888   1.349   1.762  0.7302  0.0294  1.8204
 7236TIP3   OH243198   0.807   2.685  16.495 -0.2188 -0.0621 -0.1012
 7236TIP3    H143199   0.805   2.650  16.584 -0.7768 -0.7090 -0.3636
 7236TIP3    H243200   0.749   2.760  16.497 -1.9746 -1.3604 -0.4396
 7237TIP3   OH243201   4.864   4.434  15.876 -0.0684 -0.0545 -0.1139
 7237TIP3    H143202   4.810   4.357  15.889 -0.2201  0.0790  0.0679
 7237TIP3    H243203   4.845   4.490  15.952 -2.0965  1.4354 -1.6048
 7238TIP3   OH243204   2.052   1.182   2.746  0.2582  0.0680 -0.3458
 7238TIP3    H143205   2.121   1.178   2.812  1.5877  2.6974 -1.4477
 7238TIP3    H243206   2.086   1.131   2.672  0.8900  1.0328 -0.7372
 7239TIP3   OH243207   2.689   5.644   1.466  0.1579  0.0721  0.2718
 7239TIP3    H143208   2.782   5.626   1.448  0.1389  0.5121 -0.2724
 7239TIP3    H243209   2.645   5.632   1.383 -0.3676 -0.6471  0.6427
 7240TIP3   OH243210   5.105   0.318   1.821  0.2035  0.3885 -0.1665
 7240TIP3    H143211   5.116   0.243   1.761 -1.5886 -0.6567  0.7196
 7240TIP3    H243212   5.102   0.394   1.764 -2.9164 -0.6960 -1.6698
 7241TIP3   OH243213   1.168   0.363   4.130 -0.1310 -0.0964  0.2198
 7241TIP3    H143214   1.190   0.381   4.221 -2.3367  2.3163  0.3836
 7241TIP3    H243215   1.084   0.317   4.134  0.4917 -1.3838 -0.6030
 7242TIP3   OH243216   1.978   4.723   5.799 -0.4843  0.2325 -0.2659
 7242TIP3    H143217   1.905   4.763   5.753 -0.8313 -0.5533 -0.4200
 7242TIP3    H243218   2.033   4.686   5.730  0.6750  1.7744 -0.2325
 7243TIP3   OH243219   5.219   3.795   0.084  0.3269 -0.5746 -0.7039
 7243TIP3    H143220   5.304   3.780   0.125  0.6526  0.8238 -0.8178
 7243TIP3    H243221   5.238   3.849   0.007 -0.6084 -0.6908 -1.0333
 7244TIP3   OH243222   0.642   2.745   4.152 -0.0633  0.4568  0.8444
 7244TIP3    H143223   0.723   2.740   4.101 -0.4541  1.2986  0.1007
 7244TIP3    H243224   0.670   2.754   4.243  0.7525  2.8315  0.4249
 7245TIP3   OH243225   1.385   4.744   4.419  0.3558 -0.2204  0.7727
 7245TIP3    H143226   1.405   4.837   4.423 -2.2270  0.4545 -0.1313
 7245TIP3    H243227   1.339   4.726   4.502  0.9089 -0.7221  0.9785
 7246TIP3   OH243228   1.342   3.300   3.134  0.4997 -0.1802 -0.1043
 7246TIP3    H143229   1.404   3.242   3.178  2.2129  1.0531 -0.7949
 7246TIP3    H243230   1.359   3.386   3.171  1.2974  0.7165 -2.3910
 7247TIP3   OH243231   2.836   5.001  11.651  0.4985  0.7489  0.4268
 7247TIP3    H143232   2.863   5.067  11.715 -1.3452  2.0093  0.0000
 7247TIP3    H243233   2.806   5.052  11.575  0.6929 -0.6455 -0.6292
 7248TIP3   OH243234   3.784   3.880  15.035  0.1412  0.0995  0.5442
 7248TIP3    H143235   3.768   3.973  15.021 -0.7521 -0.1627 -0.3131
 7248TIP3    H243236   3.799   3.871  15.129  1.6630  1.2941  0.4594
 7249TIP3   OH243237   0.506   0.512   5.445 -0.3181  0.6708 -0.1807
 7249TIP3    H143238   0.434   0.546   5.392  0.0971  0.5587 -0.8373
 7249TIP3    H243239   0.585   0.540   5.398  0.0919  1.3538  0.8626
 7250TIP3   OH243240   6.213   5.687   0.030  0.6359  0.1812  0.6231
 7250TIP3    H143241   6.240   5.666   0.120 -2.3330 -0.9845  1.3567
 7250TIP3    H243242   6.187   5.779   0.035 -1.8131 -0.4810  1.6974
 7251TIP3   OH243243   3.290   1.117   1.669 -0.2208  0.2706 -0.1161
 7251TIP3    H143244   3.242   1.137   1.589  0.7854  0.8630 -0.5877
 7251TIP3    H243245   3.348   1.045   1.645  0.5829  0.9041 -0.1353
 7252TIP3   OH243246   0.524   1.755  16.074  0.5622  0.2557 -0.1730
 7252TIP3    H143247   0.437   1.768  16.038  0.6104  0.7359 -0.1222
 7252TIP3    H243248   0.559   1.679  16.027  0.3000  0.3541 -0.5260
 7253TIP3   OH243249   2.080   4.606   5.579 -0.0589 -0.1630 -0.2842
 7253TIP3    H143250   2.159   4.660   5.577  0.1133 -0.2448  1.9416
 7253TIP3    H243251   2.093   4.543   5.508  1.7650 -0.0003 -0.1588
 7254TIP3   OH243252   4.770   1.889   0.611 -0.1409 -0.4283  0.2606
 7254TIP3    H143253   4.690   1.939   0.631  0.0134  0.1262 -0.4711
 7254TIP3    H243254   4.832   1.955   0.580  0.1408 -1.0427 -0.5037
 7255TIP3   OH243255   3.183   2.733  16.786 -0.2969 -0.0104 -0.1234
 7255TIP3    H143256   3.180   2.804  16.851  0.4491  0.4373 -0.5728
 7255TIP3    H243257   3.251   2.759  16.725  0.0544 -1.1715 -0.2442
 7256TIP3   OH243258   0.006   5.262   6.635  0.5245 -0.0953  0.2633
 7256TIP3    H143259   0.087   5.257   6.584 -0.3011 -2.2085 -0.9797
 7256TIP3    H243260  -0.041   5.182   6.612 -1.7170  0.8554  1.3087
 7257TIP3   OH243261   5.440   1.484   5.493  0.1969 -0.5503 -0.4744
 7257TIP3    H143262   5.449   1.571   5.532  0.2619 -0.6062 -0.3644
 7257TIP3    H243263   5.530   1.457   5.474  0.3984 -1.6315  1.7535
 7258TIP3   OH243264   2.061   1.806   0.030  0.5735  0.6094  0.2787
 7258TIP3    H143265   2.115   1.727   0.026 -0.6221 -0.2011 -0.3973
 7258TIP3    H243266   1.989   1.789  -0.030 -1.2129  1.0672  2.1782
 7259TIP3   OH243267   1.370   2.950   3.715  0.0657  0.0428  0.1800
 7259TIP3    H143268   1.435   2.929   3.782 -0.7864 -0.5769  0.8356
 7259TIP3    H243269   1.421   2.983   3.641  1.2506 -1.6573  0.1946
 7260TIP3   OH243270   6.257   5.181  13.084  0.3065  0.4341  0.2489
 7260TIP3    H143271   6.335   5.204  13.134  0.2053 -0.1076  0.6700
 7260TIP3    H243272   6.191   5.160  13.150  0.5035 -1.4454 -0.0692
 7261TIP3   OH243273   6.720   0.300  11.915 -0.0534  0.4214 -0.8236
 7261TIP3    H143274   6.633   0.312  11.879 -0.1528  0.0212 -0.7168
 7261TIP3    H243275   6.735   0.379  11.968 -0.6327  0.1725 -0.2730
 7262TIP3   OH243276   6.160   6.663   0.913  0.1839  0.0804 -0.3429
 7262TIP3    H143277   6.100   6.698   0.847  0.0158  0.0833 -0.1917
 7262TIP3    H243278   6.244   6.658   0.869 -0.4383 -2.4001 -1.4188
 7263TIP3   OH243279   3.330   1.527  16.956  0.0648 -0.1473  0.0242
 7263TIP3    H143280   3.310   1.435  16.973  0.1843  0.0104  1.0995
 7263TIP3    H243281   3.423   1.535  16.976 -0.2455  0.4909  1.3195
 7264TIP3   OH243282   2.413   5.542   0.444  0.6953 -0.2087  0.8672
 7264TIP3    H143283   2.350   5.549   0.372  0.4468  0.2756  1.1223
 7264TIP3    H243284   2.416   5.630   0.481  2.3451  0.0625  0.1812
 7265TIP3   OH243285   5.728   1.024  10.690  0.0810 -0.0855  0.1144
 7265TIP3    H143286   5.660   1.046  10.626 -3.0241 -0.8478  2.8619
 7265TIP3    H243287   5.762   0.939  10.660 -0.2519  0.2325 -1.2379
 7266TIP3   OH243288   3.608   5.180   2.981 -0.2521  0.3668  0.1891
 7266TIP3    H143289   3.615   5.139   3.067 -0.1250 -1.4185 -0.6219
 7266TIP3    H243290   3.516   5.170   2.956 -0.1032  0.0347 -0.2550
 7267TIP3   OH243291   1.085   6.351  16.331  0.0763  0.1229  0.3439
 7267TIP3    H143292   0.992   6.337  16.313  0.2176 -0.3262 -0.0339
 7267TIP3    H243293   1.129   6.276  16.293  0.4177 -0.7382  2.3229
 7268TIP3   OH243294   1.272   1.487  11.128  0.0279 -0.2082  0.0149
 7268TIP3    H143295   1.301   1.578  11.129  0.5708 -0.3220  2.5116
 7268TIP3    H243296   1.348   1.437  11.100  0.8689 -0.1024  1.9221
 7269TIP3   OH243297   1.703   5.431   2.512 -0.1073  0.4394  0.3107
 7269TIP3    H143298   1.656   5.408   2.592  0.5588 -0.0415  0.5812
 7269TIP3    H243299   1.685   5.524   2.499 -1.9219  0.0672 -0.1501
 7270TIP3   OH243300   6.431   4.457  13.047 -0.1308 -0.7009 -0.1615
 7270TIP3    H143301   6.442   4.390  12.980  1.4292  1.0551 -1.7973
 7270TIP3    H243302   6.444   4.540  13.000  0.7303  0.6482  2.2766
 7271TIP3   OH243303   1.310   1.584  16.856  0.1224 -0.4831  0.5568
 7271TIP3    H143304   1.233   1.636  16.881  0.7000  0.4264  0.4767
 7271TIP3    H243305   1.366   1.587  16.933  0.7305  0.1033  0.1017
 7272TIP3   OH243306   6.256   0.227   1.347 -0.5171 -0.4414  0.0600
 7272TIP3    H143307   6.296   0.203   1.431  0.3103  1.5204  0.2948
 7272TIP3    H243308   6.278   0.155   1.288  3.7914  0.5816  0.0831
 7273TIP3   OH243309   5.834   1.663   0.191 -0.6880 -0.0965  0.0760
 7273TIP3    H143310   5.831   1.705   0.105 -1.1115  0.5445  0.3926
 7273TIP3    H243311   5.751   1.687   0.232  0.5157  1.6859  1.6277
 7274TIP3   OH243312   5.970   1.593  12.236  0.4620 -0.4739  0.4637
 7274TIP3    H143313   5.976   1.576  12.142  1.0833  1.3520  0.1455
 7274TIP3    H243314   6.059   1.578  12.268  0.4984 -0.0069  0.5746
 7275TIP3   OH243315   6.707   6.120  11.599  0.0726 -0.6365 -0.0759
 7275TIP3    H143316   6.628   6.171  11.612 -0.1596 -1.3473  1.6070
 7275TIP3    H243317   6.723   6.079  11.684  2.8985  0.3833 -0.0142
 7276TIP3   OH243318   4.321   0.170  13.492 -0.0806  0.9172  0.0596
 7276TIP3    H143319   4.320   0.091  13.437 -0.5613  1.2682 -0.4481
 7276TIP3    H243320   4.347   0.139  13.578 -0.0408  0.2363 -0.1931
 7277TIP3   OH243321   0.106   2.868  15.832 -0.3263 -0.4246 -0.4771
 7277TIP3    H143322   0.017   2.841  15.854 -0.4429  1.0249  0.9230
 7277TIP3    H243323   0.139   2.912  15.910  0.9451  0.7573 -1.6228
 7278TIP3   OH243324   3.282   1.613   2.579  0.0588  0.2549 -0.1307
 7278TIP3    H143325   3.287   1.696   2.628  0.3452  0.3751 -0.3603
 7278TIP3    H243326   3.373   1.592   2.559  0.1296 -0.8857  1.2012
 7279TIP3   OH243327   4.535   6.348   3.882  0.1029 -0.5435  0.0882
 7279TIP3    H143328   4.473   6.275   3.871  1.3061 -1.7015  0.7807
 7279TIP3    H243329   4.483   6.417   3.923 -1.3329 -0.5918 -1.5194
 7280TIP3   OH243330   6.178   6.399  16.962  0.2607 -0.3615  0.0042
 7280TIP3    H143331   6.226   6.413  17.044  1.1534  0.0731 -0.5730
 7280TIP3    H243332   6.240   6.423  16.894 -0.4391 -0.8138 -0.8100
 7281TIP3   OH243333   5.764   3.440   2.229 -0.5241  0.0556 -0.5153
 7281TIP3    H143334   5.811   3.439   2.146 -2.6162 -1.5130 -1.7916
 7281TIP3    H243335   5.767   3.350   2.260 -0.2681  0.5041  0.8367
 7282TIP3   OH243336   3.531   1.245  17.052 -0.3235  0.1464  0.3027
 7282TIP3    H143337   3.576   1.209  17.128  2.3566 -0.9425 -1.6277
 7282TIP3    H243338   3.572   1.331  17.038 -0.2931  0.0464 -0.2633
 7283TIP3   OH243339   3.268   3.192  12.705 -0.5647  0.3085 -0.0330
 7283TIP3    H143340   3.341   3.148  12.662  0.1301  0.4371  0.9904
 7283TIP3    H243341   3.221   3.235  12.634  0.0178 -0.2555 -0.7716
 7284TIP3   OH243342   1.907   4.865   4.109  0.2059 -0.2015  0.0340
 7284TIP3    H143343   1.956   4.821   4.178 -1.2454 -1.3666  0.3749
 7284TIP3    H243344   1.892   4.797   4.043 -0.4564  0.2716 -0.3249
 7285TIP3   OH243345   5.114   3.191   0.417  0.0217 -0.6773 -0.0607
 7285TIP3    H143346   5.126   3.273   0.464  0.5266 -0.9521  0.2963
 7285TIP3    H243347   5.202   3.153   0.412 -0.0644 -0.7813 -0.9850
 7286TIP3   OH243348   2.272   1.498   0.638  0.4049  0.1472 -0.2563
 7286TIP3    H143349   2.319   1.417   0.660  0.4213  1.0729  4.0506
 7286TIP3    H243350   2.341   1.563   0.624  0.4768  0.4689  1.4024
 7287TIP3   OH243351   5.927   2.593   3.416 -0.2297  0.1098 -0.5906
 7287TIP3    H143352   5.991   2.654   3.453  0.4304 -1.7438  1.4859
 7287TIP3    H243353   5.962   2.570   3.330  1.2089  0.1098 -0.0201
 7288TIP3   OH243354   2.953   2.955   3.255 -0.2149 -0.0444  0.8845
 7288TIP3    H143355   2.957   2.929   3.163 -1.0276 -0.8018  1.0496
 7288TIP3    H243356   2.954   3.051   3.253  0.7593 -0.0508  0.1536
 7289TIP3   OH243357   2.488   0.709   5.814  0.1195  0.1706  0.2090
 7289TIP3    H143358   2.514   0.645   5.880  0.3321 -1.0734 -1.0600
 7289TIP3    H243359   2.479   0.791   5.864 -2.8559 -1.3117  2.4290
 7290TIP3   OH243360   1.355   3.266  15.908 -0.1075  0.8062  0.0559
 7290TIP3    H143361   1.373   3.346  15.859  0.4032  0.4056 -0.4197
 7290TIP3    H243362   1.303   3.212  15.849  0.5284  0.3133 -0.0701
 7291TIP3   OH243363   0.329   1.546   0.591  0.3905  0.2171  0.6951
 7291TIP3    H143364   0.250   1.578   0.547  0.6670  1.3604  0.9818
 7291TIP3    H243365   0.379   1.503   0.522  1.5187  3.2622 -0.5868
 7292TIP3   OH243366   4.774   0.981  11.963 -0.6968 -0.2324 -0.3432
 7292TIP3    H143367   4.714   0.948  11.897 -1.1488 -0.9631  0.4110
 7292TIP3    H243368   4.833   0.907  11.981  0.1752  0.3350 -0.7667
 7293TIP3   OH243369   3.363   4.164  15.671 -0.1594  0.5595  0.1156
 7293TIP3    H143370   3.338   4.253  15.645  0.0335  0.4483 -0.4729
 7293TIP3    H243371   3.432   4.176  15.736 -1.9724  0.8888  2.0757
 7294TIP3   OH243372   4.634   0.665   5.113 -0.6400 -0.3611 -0.2124
 7294TIP3    H143373   4.670   0.591   5.065  0.0304  0.8827 -1.7011
 7294TIP3    H243374   4.616   0.630   5.200 -0.4228 -2.2810 -0.8844
 7295TIP3   OH243375   5.414   4.220  16.409 -0.0540 -0.6145 -0.2951
 7295TIP3    H143376   5.376   4.255  16.489  0.0300 -0.9964 -0.0857
 7295TIP3    H243377   5.342   4.219  16.346  0.3141  1.5394 -0.8495
 7296TIP3   OH243378   5.427   3.688   2.699  0.3219  0.1713  0.5361
 7296TIP3    H143379   5.449   3.613   2.643 -1.7565  1.1592 -1.8154
 7296TIP3    H243380   5.499   3.749   2.686 -0.0684  0.3434 -1.1046
 7297TIP3   OH243381   6.468   3.231  15.563 -0.5846  0.5776  0.1581
 7297TIP3    H143382   6.415   3.158  15.531 -0.7845  0.3337  1.0137
 7297TIP3    H243383   6.558   3.209  15.539 -0.4091 -0.8158  1.9060
 7298TIP3   OH243384   3.224   1.029   5.526  0.1300 -0.4949 -0.1674
 7298TIP3    H143385   3.283   1.038   5.600 -0.9444 -0.3081  0.6778
 7298TIP3    H243386   3.168   1.107   5.529 -0.9704 -1.2627 -0.2190
 7299TIP3   OH243387   2.175   5.679   4.893 -0.2676 -0.0278 -0.1474
 7299TIP3    H143388   2.246   5.725   4.937  0.4354 -1.4734  0.2874
 7299TIP3    H243389   2.134   5.626   4.961  1.6086 -3.2512 -1.2811
 7300TIP3   OH243390   0.612   2.649  11.842 -0.0774 -0.5396 -0.8001
 7300TIP3    H143391   0.581   2.564  11.871 -2.0638 -0.1007 -1.4870
 7300TIP3    H243392   0.625   2.640  11.748  1.3590 -0.5309 -0.6241
 7301TIP3   OH243393   2.293   5.456  11.374 -1.0249 -0.2920  0.0157
 7301TIP3    H143394   2.352   5.393  11.332 -1.4011  0.0982 -1.1345
 7301TIP3    H243395   2.351   5.522  11.412 -0.6930  0.5399 -1.8138
 7302TIP3   OH243396   3.643   6.672   6.773  0.1061 -0.4257  0.1016
 7302TIP3    H143397   3.657   6.759   6.734 -0.0382  0.4377  1.8862
 7302TIP3    H243398   3.551   6.652   6.755  0.0126  0.0020  0.0997
 7303TIP3   OH243399   6.017   0.985   4.819  0.3682  0.5261  0.0635
 7303TIP3    H143400   6.013   1.079   4.801 -0.4960  0.4074 -0.4026
 7303TIP3    H243401   6.080   0.951   4.755 -0.2797  0.5990 -0.6226
 7304TIP3   OH243402   4.676   1.425  13.224 -0.0214  0.3837 -0.2880
 7304TIP3    H143403   4.732   1.492  13.184  0.5377 -0.6327 -1.2609
 7304TIP3    H243404   4.738   1.360  13.257 -0.5641  0.2857  0.5672
 7305TIP3   OH243405   1.366   0.477  10.972  0.1371 -0.4752 -0.0894
 7305TIP3    H143406   1.413   0.552  11.009  1.3059 -0.5196 -1.4046
 7305TIP3    H243407   1.383   0.405  11.034 -1.1437  0.3404  1.2801
 7306TIP3   OH243408   0.312   1.893  15.505  0.6191 -0.5441  0.6550
 7306TIP3    H143409   0.325   1.912  15.597 -1.0375  1.3144  0.5886
 7306TIP3    H243410   0.362   1.960  15.459 -0.6571  0.1908  0.2860
 7307TIP3   OH243411   3.353   2.390   2.922 -0.6245  0.2169  0.1088
 7307TIP3    H143412   3.436   2.425   2.957  0.1307 -0.7514 -0.6564
 7307TIP3    H243413   3.285   2.437   2.971  0.3710  1.0499  0.7441
 7308TIP3   OH243414   3.406   5.164   6.448 -0.2961 -0.0530  0.4799
 7308TIP3    H143415   3.489   5.170   6.494  0.1867 -0.8824 -0.2426
 7308TIP3    H243416   3.377   5.074   6.461 -0.8602  0.1035  0.3509
 7309TIP3   OH243417   1.581   0.781   5.271 -0.5766  0.2294  0.4003
 7309TIP3    H143418   1.604   0.873   5.281  0.8923  0.2089 -1.9167
 7309TIP3    H243419   1.637   0.735   5.333 -0.7817  0.8402  1.0447
 7310TIP3   OH243420   3.659   6.792   6.147  0.3393  0.3281  0.1885
 7310TIP3    H143421   3.668   6.747   6.230 -2.7379 -0.5802  0.1369
 7310TIP3    H243422   3.701   6.877   6.161  2.3029 -0.8041  1.7026
 7311TIP3   OH243423   0.375   2.351   5.278 -0.5783 -0.1224  0.1734
 7311TIP3    H143424   0.400   2.435   5.239  0.5136 -1.6884 -2.9120
 7311TIP3    H243425   0.458   2.311   5.304 -0.9377 -0.8178  0.2899
 7312TIP3   OH243426   4.282   3.213  12.329 -0.1090 -0.4292  0.0931
 7312TIP3    H143427   4.242   3.215  12.416 -0.0536  0.6172  0.1073
 7312TIP3    H243428   4.348   3.282  12.331  0.5209 -0.9950 -0.4942
 7313TIP3   OH243429   2.670   0.884  10.936 -0.1834 -0.2227  0.1055
 7313TIP3    H143430   2.641   0.919  10.851 -0.2209 -0.5221 -0.0051
 7313TIP3    H243431   2.605   0.818  10.958  0.1324 -0.5316  0.1055
 7314TIP3   OH243432   3.407   3.632  14.348 -0.1746  0.6946  0.0384
 7314TIP3    H143433   3.360   3.632  14.265 -0.5575  0.1033  0.2486
 7314TIP3    H243434   3.456   3.549  14.348 -0.1059  0.7311  0.3609
 7315TIP3   OH243435   2.674   4.666   0.219 -0.0186  0.1928 -0.3085
 7315TIP3    H143436   2.649   4.686   0.128  1.5715 -0.6890 -0.9823
 7315TIP3    H243437   2.594   4.635   0.260 -0.5824 -0.2058 -1.6592
 7316TIP3   OH243438   6.008   5.089   2.238 -0.3608 -0.2351 -0.2572
 7316TIP3    H143439   6.101   5.111   2.235 -0.9019  2.7132  1.0448
 7316TIP3    H243440   5.964   5.169   2.209 -2.5239 -0.9808  0.7832
 7317TIP3   OH243441   0.677   4.822   0.099 -0.3517  0.3369  0.6849
 7317TIP3    H143442   0.603   4.806   0.158  0.5106 -0.3198  1.6120
 7317TIP3    H243443   0.730   4.743   0.106  0.2773  0.6693 -0.2288
 7318TIP3   OH243444   4.715   1.115  10.795  0.4922  0.5217  0.2570
 7318TIP3    H143445   4.739   1.177  10.726  0.0908 -0.1633 -0.5224
 7318TIP3    H243446   4.797   1.071  10.818  0.7523  1.2296  0.7150
 7319TIP3   OH243447   5.652   1.007   3.662  0.1059 -0.4143 -0.0124
 7319TIP3    H143448   5.639   1.050   3.577 -0.4213 -0.3525  0.0937
 7319TIP3    H243449   5.575   1.032   3.713  1.0504  0.6299  0.9452
 7320TIP3   OH243450   1.551   2.818   0.515 -0.0875 -0.3685  0.6375
 7320TIP3    H143451   1.540   2.898   0.462  0.9429 -0.1435  0.7426
 7320TIP3    H243452   1.482   2.760   0.485  1.8898 -1.2311 -2.8090
 7321TIP3   OH243453   1.147   0.153   2.399  0.5744  0.1730 -0.5374
 7321TIP3    H143454   1.116   0.181   2.314 -2.4728  0.9691  0.7118
 7321TIP3    H243455   1.096   0.075   2.419  1.5612 -0.2659  0.4028
 7322TIP3   OH243456   6.489   6.492  10.440  0.0812  0.1043 -0.4633
 7322TIP3    H143457   6.423   6.432  10.474  1.0524 -1.5050 -1.2760
 7322TIP3    H243458   6.571   6.460  10.478  0.8395 -0.1603 -2.2610
 7323TIP3   OH243459   0.808   5.924   2.138 -0.1860 -0.4373 -0.0039
 7323TIP3    H143460   0.852   5.939   2.055 -0.5954 -0.1208 -0.1619
 7323TIP3    H243461   0.728   5.975   2.133  0.5794  0.9551  1.2617
 7324TIP3   OH243462   0.137   6.450   2.760 -0.6248 -0.3296  0.2058
 7324TIP3    H143463   0.180   6.518   2.813  0.2827 -0.2414 -0.6216
 7324TIP3    H243464   0.123   6.378   2.821  0.1713 -0.1303  0.6418
 7325TIP3   OH243465   1.806   5.685  12.940 -0.3293  0.5651 -0.0624
 7325TIP3    H143466   1.753   5.608  12.963  0.0574  0.3251  0.0384
 7325TIP3    H243467   1.744   5.746  12.901 -0.9962  0.9251  1.4819
 7326TIP3   OH243468   0.560   4.389  17.115  0.6400  0.3963  0.1994
 7326TIP3    H143469   0.471   4.422  17.117  1.2825  2.2240  0.9618
 7326TIP3    H243470   0.551   4.294  17.114 -1.2987  0.5591 -1.0340
 7327TIP3   OH243471   3.753   3.409   6.513 -0.1113 -0.3824  0.2594
 7327TIP3    H143472   3.735   3.325   6.469  1.0916 -0.2672 -0.4940
 7327TIP3    H243473   3.787   3.384   6.599  1.8167 -0.7713 -0.5472
 7328TIP3   OH243474   1.462   5.402  11.092  0.1219 -0.3199 -0.2718
 7328TIP3    H143475   1.463   5.390  11.187  0.6492 -0.6640 -0.3138
 7328TIP3    H243476   1.454   5.313  11.058 -0.1371 -0.1902 -0.5495
 7329TIP3   OH243477   4.105   6.316  16.072  0.1044 -0.2517  0.6218
 7329TIP3    H143478   4.194   6.349  16.086  0.4724 -0.6212 -0.6312
 7329TIP3    H243479   4.054   6.349  16.146  0.8874  1.4408  0.4417
 7330TIP3   OH243480   0.948   1.388   1.680  0.5404 -0.0774 -0.2553
 7330TIP3    H143481   1.011   1.354   1.744 -1.8097 -1.8766  1.3159
 7330TIP3    H243482   0.928   1.477   1.711  1.3892  0.0559 -0.0665
 7331TIP3   OH243483   6.248   4.748   3.880  0.0612  0.4300  0.1046
 7331TIP3    H143484   6.299   4.815   3.834 -1.5761  1.3806 -0.4021
 7331TIP3    H243485   6.247   4.674   3.821  0.0923  0.7301 -0.2747
 7332TIP3   OH243486   5.515   3.280  17.013 -0.2393 -0.6140 -0.2104
 7332TIP3    H143487   5.557   3.282  16.927  0.7800 -0.5340  0.2800
 7332TIP3    H243488   5.587   3.279  17.075 -0.9605 -1.0076  0.6480
 7333TIP3   OH243489   3.737   3.094   1.834 -0.8625  0.0169  0.1625
 7333TIP3    H143490   3.679   3.047   1.894 -1.2950  1.5549  1.0072
 7333TIP3    H243491   3.823   3.090   1.876 -0.6288 -1.0196 -0.3737
 7334TIP3   OH243492   3.963   2.784  15.190 -0.0051  0.4836  0.3538
 7334TIP3    H143493   3.920   2.718  15.245  0.3778  1.3707  1.7700
 7334TIP3    H243494   3.940   2.759  15.100 -1.1057 -0.7008  0.9296
 7335TIP3   OH243495   4.343   4.675   2.922 -0.1208 -0.1904  0.8735
 7335TIP3    H143496   4.416   4.614   2.918 -0.2762 -0.3502  0.3638
 7335TIP3    H243497   4.383   4.762   2.917  0.0663 -0.2648  1.0929
 7336TIP3   OH243498   4.432   2.466  15.025  0.5491  0.4145 -0.2198
 7336TIP3    H143499   4.345   2.427  15.018  0.7891 -0.1354 -0.1905
 7336TIP3    H243500   4.416   2.560  15.031 -0.1023  0.2494  0.8947
 7337TIP3   OH243501   2.117   6.306  16.998  0.1462 -0.0833 -0.2882
 7337TIP3    H143502   2.058   6.281  17.069  1.7040 -0.2804  0.9839
 7337TIP3    H243503   2.194   6.251  17.009  0.6765  0.2840 -1.8010
 7338TIP3   OH243504   5.958   2.406   5.352 -1.0596  0.0508 -0.0744
 7338TIP3    H143505   5.967   2.478   5.291  1.2209 -0.8414 -0.9043
 7338TIP3    H243506   5.933   2.447   5.435  0.7390  1.8756 -0.3658
 7339TIP3   OH243507   6.532   1.700   0.277 -0.3332 -0.6243  0.0272
 7339TIP3    H143508   6.562   1.786   0.307 -0.0521 -0.5082 -0.5832
 7339TIP3    H243509   6.443   1.693   0.312 -0.2218 -0.2463  0.4004
 7340TIP3   OH243510   4.395   5.452   4.283 -0.5098 -0.4648 -0.5326
 7340TIP3    H143511   4.317   5.404   4.310 -0.7259  0.7414  1.1812
 7340TIP3    H243512   4.386   5.462   4.189 -1.9848 -1.1238 -0.4817
 7341TIP3   OH243513   0.665   0.360  12.631  0.4740 -0.0327  1.2216
 7341TIP3    H143514   0.679   0.423  12.560  0.6773 -0.4257  0.9079
 7341TIP3    H243515   0.639   0.280  12.587  1.7019 -0.6106  1.5113
 7342TIP3   OH243516   5.028   4.693   0.715 -0.6274  0.4584 -0.1889
 7342TIP3    H143517   4.996   4.750   0.644 -1.2103  0.1006 -0.2248
 7342TIP3    H243518   4.950   4.676   0.768  0.0723  1.8106  1.3227
 7343TIP3   OH243519   6.444   1.248   5.169  0.1058  0.5746  0.3640
 7343TIP3    H143520   6.353   1.232   5.143 -0.2402 -0.4438  2.0659
 7343TIP3    H243521   6.478   1.306   5.101 -1.1698 -0.7089 -1.4731
 7344TIP3   OH243522   2.984   2.108   4.912  0.0624  0.2251 -0.1109
 7344TIP3    H143523   2.905   2.157   4.890 -0.6258 -0.3001  1.1313
 7344TIP3    H243524   3.026   2.159   4.981 -0.5302 -0.7558  1.0155
 7345TIP3   OH243525   3.268   0.447   6.494 -0.1342  0.7036  0.7102
 7345TIP3    H143526   3.179   0.434   6.463 -0.4002  1.3778  1.1734
 7345TIP3    H243527   3.262   0.431   6.589  0.1806  1.0147  0.7821
 7346TIP3   OH243528   1.714   0.127  16.269  0.6656  0.4696 -0.1692
 7346TIP3    H143529   1.647   0.190  16.297 -1.0749 -0.5752 -1.7558
 7346TIP3    H243530   1.703   0.053  16.329 -0.7451 -0.3564 -1.3852
 7347TIP3   OH243531   4.017   0.741  16.091  0.1102 -0.1592  0.1481
 7347TIP3    H143532   4.000   0.799  16.165  0.4244 -0.0622  0.1480
 7347TIP3    H243533   4.110   0.718  16.100  0.3528  0.4729 -0.6435
 7348TIP3   OH243534   3.363   0.052  14.044 -0.2779 -0.1434  0.3746
 7348TIP3    H143535   3.346  -0.042  14.035  3.3964 -1.1336  1.8720
 7348TIP3    H243536   3.408   0.076  13.963 -0.6293  0.1625  0.2699
 7349TIP3   OH243537   6.022   0.962  11.999  0.1955  0.3898  0.4327
 7349TIP3    H143538   5.987   1.049  12.014 -1.4111 -0.1181 -0.1440
 7349TIP3    H243539   5.947   0.904  12.009  0.8310 -0.7434 -1.0569
 7350TIP3   OH243540   5.148   5.311   6.219 -0.4478 -0.6736  0.4785
 7350TIP3    H143541   5.126   5.340   6.307  1.1909 -2.0515  1.4079
 7350TIP3    H243542   5.191   5.226   6.232 -0.2035 -0.9210 -1.6481
 7351TIP3   OH243543   6.228   1.794  12.879  0.1164 -0.2663  0.4522
 7351TIP3    H143544   6.225   1.700  12.864 -0.0535 -0.3789  1.1325
 7351TIP3    H243545   6.240   1.833  12.793  0.8180 -0.9450  0.2417
 7352TIP3   OH243546   2.067   1.456   2.638 -0.0493  0.2572 -0.2656
 7352TIP3    H143547   2.064   1.362   2.660  0.5356  0.1081 -0.8132
 7352TIP3    H243548   2.146   1.487   2.681  1.3668 -0.1294 -2.4689
 7353TIP3   OH243549   0.427   4.293   4.622  0.1672 -0.0838 -0.2095
 7353TIP3    H143550   0.502   4.245   4.585 -0.1409 -0.0449 -0.9086
 7353TIP3    H243551   0.447   4.385   4.605  0.2424 -0.0376  0.1397
 7354TIP3   OH243552   0.401   4.681  14.669  0.1165  0.0013  0.1128
 7354TIP3    H143553   0.420   4.594  14.633 -1.3519 -0.9485  1.5225
 7354TIP3    H243554   0.315   4.703  14.634 -0.2606  0.1288  1.1051
 7355TIP3   OH243555   2.686   3.406  16.963  1.1350  0.1338 -0.0232
 7355TIP3    H143556   2.669   3.442  17.050 -1.5298  1.3017 -0.9402
 7355TIP3    H243557   2.781   3.396  16.960  1.3201  0.0173  2.9987
 7356TIP3   OH243558   4.727   1.148   4.831 -0.3385  0.1919 -0.6137
 7356TIP3    H143559   4.788   1.179   4.899  0.1663  0.4680 -1.1789
 7356TIP3    H243560   4.741   1.208   4.758 -1.2323  0.1905 -0.7855
 7357TIP3   OH243561   0.273   5.464   1.672 -0.3582 -0.0690 -0.5212
 7357TIP3    H143562   0.347   5.436   1.618 -1.3986 -0.7579 -1.6403
 7357TIP3    H243563   0.215   5.509   1.610 -2.0775 -1.7904 -0.2296
 7358TIP3   OH243564   3.119   2.242  14.294  0.0709  0.0632 -0.4903
 7358TIP3    H143565   3.210   2.236  14.321 -0.1610  0.3647  0.3792
 7358TIP3    H243566   3.082   2.156  14.314 -0.0312  0.1984 -0.0798
 7359TIP3   OH243567   2.525   3.114  12.860 -0.9392  0.3387  0.0660
 7359TIP3    H143568   2.585   3.178  12.823 -0.3109  0.8399  1.8306
 7359TIP3    H243569   2.492   3.065  12.785  1.3410  0.3269 -1.0206
 7360TIP3   OH243570   5.054   5.006  13.139  0.0492  0.7587  0.1541
 7360TIP3    H143571   4.994   4.985  13.211 -0.8790  1.6033 -0.3614
 7360TIP3    H243572   5.006   5.066  13.084  0.5503 -0.2899 -1.4981
 7361TIP3   OH243573   0.779   3.675  16.859 -0.0477 -0.6997 -0.3303
 7361TIP3    H143574   0.835   3.664  16.781  0.7607 -0.2180  0.1677
 7361TIP3    H243575   0.693   3.694  16.823  0.3473 -0.3091 -1.1208
 7362TIP3   OH243576   4.942   5.161   3.337 -0.2517  0.0221  0.1217
 7362TIP3    H143577   4.956   5.070   3.311  3.1334  0.7631 -1.1863
 7362TIP3    H243578   4.910   5.204   3.258  0.2556  0.3559  0.0913
 7363TIP3   OH243579   5.354   1.838   0.501  0.5419 -0.0164 -0.0657
 7363TIP3    H143580   5.326   1.765   0.445 -0.2100 -0.6741  1.1273
 7363TIP3    H243581   5.273   1.874   0.536  1.0010  0.4039  0.5841
 7364TIP3   OH243582   4.356   0.451   1.686 -0.0379 -0.2931  0.1683
 7364TIP3    H143583   4.274   0.418   1.725  0.0517 -1.9647 -0.9898
 7364TIP3    H243584   4.425   0.399   1.728  0.3174  0.0709  0.0380
 7365TIP3   OH243585   5.240   0.880  16.111  0.6978  0.4518  0.3735
 7365TIP3    H143586   5.274   0.875  16.200 -1.4796  2.0782  1.3971
 7365TIP3    H243587   5.213   0.971  16.100  0.7523  0.2642 -1.9229
 7366TIP3   OH243588   5.275   1.444   4.232 -0.1697 -0.3870 -0.0005
 7366TIP3    H143589   5.316   1.432   4.146 -2.3702 -0.5858 -1.0798
 7366TIP3    H243590   5.249   1.356   4.258 -0.2779 -0.2128  0.4870
 7367TIP3   OH243591   3.634   5.257  11.984 -0.5207 -0.4092 -0.1706
 7367TIP3    H143592   3.676   5.273  12.068 -0.8285  1.2969 -0.2979
 7367TIP3    H243593   3.545   5.230  12.005 -0.6742  0.2570  0.0769
 7368TIP3   OH243594   5.210   1.098   2.567 -0.5328  0.5333  0.0557
 7368TIP3    H143595   5.231   1.007   2.584 -2.0369 -0.1696 -1.5637
 7368TIP3    H243596   5.294   1.138   2.542  0.0285 -0.5492  0.1828
 7369TIP3   OH243597   5.893   2.427  14.639  0.2353  0.1049 -0.0502
 7369TIP3    H143598   5.866   2.337  14.653  1.6286 -0.2297  0.6110
 7369TIP3    H243599   5.828   2.480  14.685  0.8794 -0.6943  1.8798
 7370TIP3   OH243600   0.027   5.933   1.802  0.0641  0.0182  0.3143
 7370TIP3    H143601   0.009   5.954   1.893 -0.5726 -0.2019  0.2440
 7370TIP3    H243602   0.019   5.838   1.797 -0.9441  0.1124 -0.1790
 7371TIP3   OH243603   5.507   3.220   6.157  0.0955 -0.0549  0.5092
 7371TIP3    H143604   5.487   3.307   6.193  1.8783  0.0690  1.3038
 7371TIP3    H243605   5.446   3.209   6.084 -1.6681  0.9295  1.7619
 7372TIP3   OH243606   4.126   3.775  12.537  0.1587  0.6916 -0.3382
 7372TIP3    H143607   4.208   3.748  12.496  1.2167 -0.0513  2.1091
 7372TIP3    H243608   4.098   3.699  12.588 -0.2382  2.0241  1.5521
 7373TIP3   OH243609   2.569   0.047   1.865 -0.9535  0.3993  0.0467
 7373TIP3    H143610   2.607   0.074   1.949  1.0959 -0.4891 -0.5305
 7373TIP3    H243611   2.567   0.128   1.813 -0.2060  0.5498  0.2342
 7374TIP3   OH243612   2.991   4.712   2.905  0.0694  0.2834  0.0068
 7374TIP3    H143613   3.077   4.736   2.939 -1.0240  1.7822  1.9368
 7374TIP3    H243614   3.007   4.633   2.852  2.4138 -0.1627  1.2448
 7375TIP3   OH243615   2.589   5.907  12.342  0.4919  0.1413  0.2629
 7375TIP3    H143616   2.611   5.893  12.250 -0.2215 -0.0506  0.1106
 7375TIP3    H243617   2.584   6.002  12.352  1.3140  0.1883  0.2958
 7376TIP3   OH243618   4.511   6.250   6.464 -0.3559 -0.5577 -0.0764
 7376TIP3    H143619   4.478   6.337   6.441 -1.2231 -0.2956  1.9799
 7376TIP3    H243620   4.605   6.262   6.476 -0.7430  0.6410  2.2614
 7377TIP3   OH243621   6.151   0.431   2.979 -0.3258  0.0601  0.2957
 7377TIP3    H143622   6.091   0.399   2.911  1.0576 -1.0947 -0.4444
 7377TIP3    H243623   6.101   0.425   3.060 -1.5066 -0.0239 -0.4232
 7378TIP3   OH243624   4.011   6.014  15.881 -0.6188 -0.2940 -0.1072
 7378TIP3    H143625   3.970   5.975  15.959 -1.1443 -0.7940 -0.6205
 7378TIP3    H243626   3.968   6.099  15.871 -0.8259 -0.3940 -0.0737
 7379TIP3   OH243627   3.621   2.212   1.176  0.0152 -0.1696  0.1433
 7379TIP3    H143628   3.641   2.252   1.261 -0.3002 -0.5643  0.4059
 7379TIP3    H243629   3.702   2.223   1.125  0.4228 -0.4826  0.7054
 7380TIP3   OH243630   2.922   0.277  13.287 -0.2124 -0.0559  0.5523
 7380TIP3    H143631   2.970   0.351  13.248  0.0172 -0.5963 -0.2139
 7380TIP3    H243632   2.837   0.314  13.311 -0.4802  0.2351 -0.7508
 7381TIP3   OH243633   3.237   3.456   3.095 -0.5076  0.2720  0.7868
 7381TIP3    H143634   3.317   3.423   3.137 -0.8530  0.5322  1.6764
 7381TIP3    H243635   3.244   3.551   3.102 -1.3434  0.2817  1.7637
 7382TIP3   OH243636   4.579   2.991   3.206  0.4965  0.1731 -1.0095
 7382TIP3    H143637   4.606   2.916   3.154  0.6729  0.1191 -0.8417
 7382TIP3    H243638   4.592   2.964   3.297 -0.1550  0.1372 -0.9236
 7383TIP3   OH243639   3.965   0.310  14.253  0.4580 -0.0384 -0.2676
 7383TIP3    H143640   3.955   0.378  14.319 -3.0542 -0.7592  0.1398
 7383TIP3    H243641   4.051   0.271  14.271  0.8434  1.6729  1.9773
 7384TIP3   OH243642   2.704   4.964  16.297  0.1437 -0.2832  0.0604
 7384TIP3    H143643   2.769   4.984  16.231 -0.2065 -0.3970 -0.3243
 7384TIP3    H243644   2.624   4.946  16.248 -0.2481  0.1134  0.5312
 7385TIP3   OH243645   5.692   1.911  13.130  0.5369 -0.0246  1.0478
 7385TIP3    H143646   5.716   1.877  13.044 -1.1996  1.5616 -0.1641
 7385TIP3    H243647   5.741   1.992  13.139  2.1250 -1.0746  2.4406
 7386TIP3   OH243648   0.391   4.182   1.975  0.2428 -0.0163  0.1008
 7386TIP3    H143649   0.352   4.268   1.965 -1.1021 -0.6727 -0.6456
 7386TIP3    H243650   0.431   4.163   1.890  0.7993 -0.0084  0.3568
 7387TIP3   OH243651   5.572   6.801  11.486 -0.5197 -0.2864 -0.2652
 7387TIP3    H143652   5.601   6.718  11.522  0.1731 -0.6666 -1.6329
 7387TIP3    H243653   5.648   6.858  11.492 -1.0237  0.3110  0.7693
 7388TIP3   OH243654   5.393   3.672  12.575  0.2504  0.6371 -0.1572
 7388TIP3    H143655   5.390   3.640  12.485 -1.5916 -0.3622  0.2013
 7388TIP3    H243656   5.353   3.759  12.571  0.1211  0.5708 -0.3020
 7389TIP3   OH243657   2.154   3.267   6.550  0.8389 -0.0639 -0.6456
 7389TIP3    H143658   2.067   3.249   6.515  1.1194 -0.5148 -1.1216
 7389TIP3    H243659   2.147   3.355   6.588  1.3065  1.8844 -4.5617
 7390TIP3   OH243660   0.987   6.137  15.024  0.1740  0.2153  0.1119
 7390TIP3    H143661   1.041   6.104  14.951  0.2898  0.7117 -0.0362
 7390TIP3    H243662   0.930   6.202  14.983  1.3615  1.7054  0.7179
 7391TIP3   OH243663   4.525   5.653  13.992 -0.4411  0.0575 -0.3157
 7391TIP3    H143664   4.552   5.561  13.982 -0.0125  0.0769  0.5232
 7391TIP3    H243665   4.605   5.703  13.976  0.1043  0.1187  2.1690
 7392TIP3   OH243666   2.216   1.631  15.673 -0.2078 -0.1176 -0.1115
 7392TIP3    H143667   2.273   1.558  15.699  2.6588  1.2398 -2.1976
 7392TIP3    H243668   2.193   1.612  15.582 -1.4629  0.3990  0.0864
 7393TIP3   OH243669   5.314   2.885  11.337  0.5457 -0.0154 -0.1008
 7393TIP3    H143670   5.229   2.918  11.307 -0.5229 -0.7271  1.9140
 7393TIP3    H243671   5.335   2.815  11.277  0.3620  1.0043 -1.4010
 7394TIP3   OH243672   6.172   1.092  12.655 -0.1061 -0.2117 -0.3463
 7394TIP3    H143673   6.233   1.147  12.605  0.4469 -0.2849  0.2399
 7394TIP3    H243674   6.170   1.132  12.742  0.4714 -1.2245  0.1587
 7395TIP3   OH243675   4.341   4.000  12.711 -0.3804 -0.4332 -0.0617
 7395TIP3    H143676   4.291   4.080  12.729 -0.4382 -0.5896  0.5085
 7395TIP3    H243677   4.371   4.010  12.621  1.7206  1.3630  0.7664
 7396TIP3   OH243678   3.165   3.168   5.201  0.6766 -0.4128  0.0750
 7396TIP3    H143679   3.098   3.144   5.137  0.4221 -0.1139  0.2285
 7396TIP3    H243680   3.134   3.249   5.240  2.2169  0.9572 -1.4126
 7397TIP3   OH243681   2.046   1.621  16.732  0.4742  0.7630 -0.2472
 7397TIP3    H143682   2.010   1.554  16.789 -1.8029  0.4210 -1.9616
 7397TIP3    H243683   1.979   1.689  16.729  2.3210  2.7442  0.6878
 7398TIP3   OH243684   0.487   4.123   6.064  0.4369  0.0566  0.1270
 7398TIP3    H143685   0.487   4.216   6.040 -1.8426 -0.0165 -0.3679
 7398TIP3    H243686   0.469   4.123   6.158 -0.5445  0.1318 -0.0451
 7399TIP3   OH243687   4.332   6.263   1.845 -0.6135 -0.0416 -0.2561
 7399TIP3    H143688   4.320   6.325   1.773 -0.5832  0.0460 -0.1853
 7399TIP3    H243689   4.425   6.267   1.866 -0.6553  0.0674 -0.0904
 7400TIP3   OH243690   2.017   6.464   2.363 -0.3097 -0.1270 -0.5069
 7400TIP3    H143691   1.979   6.448   2.277  0.3942 -0.6636 -0.7202
 7400TIP3    H243692   2.093   6.520   2.347 -1.2032  1.2854 -0.0379
 7401TIP3   OH243693   3.797   5.993   0.063 -0.2315 -0.5617 -0.1218
 7401TIP3    H143694   3.746   6.074   0.059 -0.1149 -0.5241 -1.4626
 7401TIP3    H243695   3.874   6.015   0.115 -0.5222 -0.0023  0.0763
 7402TIP3   OH243696   1.066   2.143  12.468 -0.0019 -0.2166  0.8709
 7402TIP3    H143697   1.033   2.232  12.467 -1.7766 -0.6931 -3.1302
 7402TIP3    H243698   1.145   2.147  12.414 -0.6065 -1.1566 -0.1202
 7403TIP3   OH243699   3.592   4.380   1.923 -0.3075  0.3068 -0.1355
 7403TIP3    H143700   3.615   4.470   1.946  1.7612  0.0551 -1.0177
 7403TIP3    H243701   3.662   4.327   1.961 -1.3487 -0.9248  0.1279
 7404TIP3   OH243702   2.480   4.018  17.146  0.0498 -0.0551 -0.3337
 7404TIP3    H143703   2.462   4.066  17.066 -0.2822 -0.7620 -0.6999
 7404TIP3    H243704   2.572   3.992  17.139 -0.0846 -0.4614 -0.6893
 7405TIP3   OH243705   2.157   2.494   2.584 -0.5661 -0.2900  0.1406
 7405TIP3    H143706   2.227   2.440   2.620  0.4382  0.1727 -1.0348
 7405TIP3    H243707   2.118   2.537   2.660  0.8659 -0.0412  0.7652
 7406TIP3   OH243708   3.177   2.080  13.213 -0.3006  0.3016 -0.2346
 7406TIP3    H143709   3.093   2.052  13.175 -1.6398  0.6744  2.2556
 7406TIP3    H243710   3.181   2.174  13.196 -1.7275  0.8155  1.8050
 7407TIP3   OH243711   2.751   4.835   2.093 -0.3970  0.1350  0.2085
 7407TIP3    H143712   2.702   4.763   2.133 -0.5814  0.6627  0.9386
 7407TIP3    H243713   2.812   4.863   2.160  0.6636 -0.2543 -0.5599
 7408TIP3   OH243714   0.353   0.636   1.468 -0.6993  0.7693  0.0706
 7408TIP3    H143715   0.443   0.621   1.495 -0.6318  2.9665  1.3084
 7408TIP3    H243716   0.300   0.610   1.544 -1.0850  0.1119 -0.4095
 7409TIP3   OH243717   0.396   5.554  16.651  0.3149  0.2290 -0.1207
 7409TIP3    H143718   0.413   5.478  16.707  0.4261  0.1307 -0.2866
 7409TIP3    H243719   0.301   5.562  16.650  0.1437 -1.3393 -1.9802
 7410TIP3   OH243720   2.561   5.002   3.572  0.0080 -0.1301  0.0513
 7410TIP3    H143721   2.617   5.076   3.597  0.0517  0.0290 -0.5238
 7410TIP3    H243722   2.614   4.950   3.512 -0.7197  0.4299 -1.1070
 7411TIP3   OH243723   2.417   0.918   3.796  0.2815 -0.5606 -0.0122
 7411TIP3    H143724   2.336   0.960   3.828 -0.2172 -1.0317 -0.6247
 7411TIP3    H243725   2.426   0.840   3.850  1.3140  0.3926  1.2571
 7412TIP3   OH243726   6.690   4.420  14.523 -0.0109 -0.3283  0.4535
 7412TIP3    H143727   6.669   4.365  14.447 -0.2923 -1.5887  1.4010
 7412TIP3    H243728   6.649   4.504  14.503 -1.9192 -1.2750  0.1217
 7413TIP3   OH243729   6.197   2.934  12.311  0.2296  0.3477  0.5438
 7413TIP3    H143730   6.116   2.892  12.282  0.2261  0.8564 -0.2112
 7413TIP3    H243731   6.259   2.861  12.323 -0.9942 -0.3795  3.6270
 7414TIP3   OH243732   1.817   2.675  12.405  0.0405 -0.1653 -0.8057
 7414TIP3    H143733   1.808   2.581  12.421  0.5004  0.0531  0.8802
 7414TIP3    H243734   1.877   2.706  12.473 -0.9215  1.5282 -0.6713
 7415TIP3   OH243735   3.673   1.420  15.737 -0.1440 -0.2418 -0.0651
 7415TIP3    H143736   3.588   1.459  15.755 -1.2778 -1.6310 -2.0642
 7415TIP3    H243737   3.724   1.489  15.695 -0.0934  0.7060  1.4692
 7416TIP3   OH243738   3.798   5.285  13.651  0.3521  0.1556 -0.7164
 7416TIP3    H143739   3.798   5.291  13.555  0.3451 -3.2356 -1.0422
 7416TIP3    H243740   3.879   5.330  13.678  1.2988 -0.4057 -2.4818
 7417TIP3   OH243741   4.756   1.852  11.705  0.2222 -0.1516 -0.4375
 7417TIP3    H143742   4.722   1.884  11.622  0.5860  0.2714 -0.4267
 7417TIP3    H243743   4.801   1.770  11.683  1.1621  0.4509 -0.8280
 7418TIP3   OH243744   3.641   2.385   3.682 -0.5479 -0.4731  0.0266
 7418TIP3    H143745   3.685   2.468   3.697 -1.3065 -0.1312  0.4209
 7418TIP3    H243746   3.696   2.340   3.618  0.6187 -0.2704  0.8516
 7419TIP3   OH243747   0.858   1.764   0.267  0.1988  0.0452  0.0384
 7419TIP3    H143748   0.794   1.804   0.208 -0.4462  0.1745  0.8156
 7419TIP3    H243749   0.892   1.689   0.218  2.1340  1.9899 -1.8748
 7420TIP3   OH243750   2.174   1.727  11.952 -0.2455 -0.1711 -0.5577
 7420TIP3    H143751   2.185   1.816  11.920 -1.0717  0.1369 -0.0064
 7420TIP3    H243752   2.241   1.716  12.019  0.6406 -0.3789 -1.4648
 7421TIP3   OH243753   5.793   0.258   1.430 -0.3728 -0.2857  0.0416
 7421TIP3    H143754   5.789   0.232   1.521  1.0835 -0.4939  0.0748
 7421TIP3    H243755   5.727   0.204   1.386 -0.0280 -1.2949  0.7284
 7422TIP3   OH243756   5.292   0.315   0.724 -0.1676 -0.4382 -0.6977
 7422TIP3    H143757   5.234   0.258   0.674 -1.7404  0.3348  0.1829
 7422TIP3    H243758   5.285   0.285   0.814 -1.0838  1.1394 -0.2048
 7423TIP3   OH243759   3.016   1.694   6.695  0.5652 -0.3343 -0.5987
 7423TIP3    H143760   2.934   1.647   6.679 -0.5843  0.9000  1.1975
 7423TIP3    H243761   3.076   1.628   6.728 -0.3995 -0.9136  0.0621
 7424TIP3   OH243762   5.354   3.599  15.723  0.5402  0.1071 -0.1044
 7424TIP3    H143763   5.419   3.593  15.793 -0.5770 -0.2917  0.9314
 7424TIP3    H243764   5.308   3.515  15.726  0.5575  0.0208 -1.4387
 7425TIP3   OH243765   0.295   2.180   2.434 -0.0134 -0.0042  0.4315
 7425TIP3    H143766   0.248   2.144   2.510  0.3197 -1.7709 -0.1502
 7425TIP3    H243767   0.356   2.111   2.409  0.1975  0.7188 -1.1785
 7426TIP3   OH243768   1.916   4.960   3.684  0.3755 -0.1974 -0.3972
 7426TIP3    H143769   1.941   5.046   3.718 -1.2813  1.4065 -2.8134
 7426TIP3    H243770   1.980   4.941   3.616 -0.1126 -0.1127 -0.8920
 7427TIP3   OH243771   0.392   2.675  16.353 -0.0170 -0.3867 -0.2937
 7427TIP3    H143772   0.452   2.743  16.385  0.3332 -0.8480  0.0260
 7427TIP3    H243773   0.385   2.613  16.424 -0.1171 -0.8397 -0.6944
 7428TIP3   OH243774   1.444   6.076   3.835 -0.1197 -0.2659 -0.2827
 7428TIP3    H143775   1.402   6.099   3.918 -0.4538 -0.7174 -0.3254
 7428TIP3    H243776   1.427   5.983   3.824  1.3066 -0.5782 -0.0718
 7429TIP3   OH243777   5.560   2.430   0.529  0.2252  0.2378  0.3351
 7429TIP3    H143778   5.572   2.473   0.614  0.8659  2.3161 -0.7230
 7429TIP3    H243779   5.646   2.433   0.487 -0.2045 -0.1930 -0.6221
 7430TIP3   OH243780   6.038   1.534  15.730 -0.0431  0.3606 -0.0210
 7430TIP3    H143781   6.111   1.567  15.677 -0.8709  2.3613 -0.0068
 7430TIP3    H243782   5.978   1.497  15.666 -0.1815  1.0686 -0.3148
 7431TIP3   OH243783   4.420   2.825  16.588  0.1359  0.0939  0.0363
 7431TIP3    H143784   4.390   2.785  16.506 -0.3047 -0.0879  0.2823
 7431TIP3    H243785   4.412   2.755  16.652 -3.4002  1.2699  1.1158
 7432TIP3   OH243786   3.489   6.558   2.517  0.7635  0.0804  0.0118
 7432TIP3    H143787   3.413   6.616   2.520  0.5901 -0.0921 -0.8000
 7432TIP3    H243788   3.452   6.471   2.503  1.0383 -0.1924  0.9602
 7433TIP3   OH243789   1.205   6.600   1.640 -0.4336 -0.3890  0.6455
 7433TIP3    H143790   1.295   6.627   1.659 -0.5609  0.3059  0.3031
 7433TIP3    H243791   1.151   6.665   1.684 -0.8065 -1.7097  2.1853
 7434TIP3   OH243792   3.542   3.325  15.461 -0.1122  0.5987 -0.7012
 7434TIP3    H143793   3.599   3.400  15.481  0.1517  0.0922  0.5175
 7434TIP3    H243794   3.602   3.251  15.451 -0.3006  0.6507 -2.6633
 7435TIP3   OH243795   1.435   2.509   1.458 -0.2243 -0.9017 -0.6354
 7435TIP3    H143796   1.451   2.587   1.404  0.3481  0.0609  0.8483
 7435TIP3    H243797   1.491   2.442   1.421  1.9106  0.3830  0.0862
 7436TIP3   OH243798   0.852   0.089  12.590  0.6704  0.5963  0.4710
 7436TIP3    H143799   0.911   0.141  12.645 -0.0541  1.6517  0.2717
 7436TIP3    H243800   0.894   0.087  12.504  0.6896  0.8623  0.4741
 7437TIP3   OH243801   2.265   2.816   1.703  0.2478 -0.7652 -0.3009
 7437TIP3    H143802   2.293   2.812   1.611  2.7077  2.0852  0.1475
 7437TIP3    H243803   2.272   2.908   1.726 -2.2412 -1.0803  2.2782
 7438TIP3   OH243804   0.586   4.655  13.310  0.5863 -0.4522 -0.5430
 7438TIP3    H143805   0.578   4.562  13.286  1.9573 -0.3057 -1.6634
 7438TIP3    H243806   0.677   4.677  13.292  0.7248  0.7110  1.2977
 7439TIP3   OH243807   1.623   6.452  12.180 -0.1904 -0.4162  0.4007
 7439TIP3    H143808   1.712   6.451  12.146 -0.8516  1.2655 -1.6050
 7439TIP3    H243809   1.569   6.423  12.106 -1.3780 -0.7165  1.3513
 7440TIP3   OH243810   0.480   5.203   4.000  0.1963  0.2010 -0.0624
 7440TIP3    H143811   0.527   5.213   4.082  0.2667  2.6383 -0.3207
 7440TIP3    H243812   0.460   5.293   3.972 -0.1560 -0.5484 -2.5164
 7441TIP3   OH243813   4.143   6.477  12.832 -0.1575 -1.0805  0.1132
 7441TIP3    H143814   4.160   6.569  12.849  0.9466 -1.4918  1.5155
 7441TIP3    H243815   4.061   6.475  12.783  0.5817  0.7163 -1.2820
 7442TIP3   OH243816   4.801   5.313  14.586 -0.3422  0.1719  0.4983
 7442TIP3    H143817   4.857   5.237  14.578 -1.3273 -0.5463  0.1977
 7442TIP3    H243818   4.861   5.387  14.595  0.6817 -0.9068  4.0644
 7443TIP3   OH243819   1.603   6.132  13.269 -0.2634 -0.8163 -0.5558
 7443TIP3    H143820   1.627   6.199  13.204  2.2255 -0.2275  0.8238
 7443TIP3    H243821   1.510   6.147  13.286  0.0272  1.8659 -0.8475
 7444TIP3   OH243822   0.412   0.410  13.856  0.5618  0.1163 -0.2960
 7444TIP3    H143823   0.404   0.318  13.883  0.3512  0.4920  0.9877
 7444TIP3    H243824   0.331   0.451  13.887  1.6044  1.1936  1.1555
 7445TIP3   OH243825   0.230   0.675   0.427 -0.2158  0.0710  0.1361
 7445TIP3    H143826   0.242   0.653   0.335 -0.6061 -2.1301  0.5660
 7445TIP3    H243827   0.140   0.649   0.447 -0.2537  0.8635  1.0527
 7446TIP3   OH243828   2.262   3.069  13.496 -0.0020 -0.2757  0.2274
 7446TIP3    H143829   2.298   3.029  13.576 -0.5396  2.6561  2.0718
 7446TIP3    H243830   2.339   3.104  13.451  0.0132  3.1034  2.5148
 7447TIP3   OH243831   6.171   1.215  12.070  0.1873  0.1589  0.5991
 7447TIP3    H143832   6.194   1.172  12.152  1.2107 -0.2958  0.0840
 7447TIP3    H243833   6.082   1.185  12.052 -0.3328  0.8123  1.8795
 7448TIP3   OH243834   0.023   5.738   3.346  0.4407  0.9702  0.0475
 7448TIP3    H143835   0.013   5.831   3.324  0.5155  0.7672 -0.9050
 7448TIP3    H243836   0.105   5.713   3.305 -0.4748  0.0494 -1.3008
 7449TIP3   OH243837   0.847   2.646   3.997  0.5819  0.1794  0.3787
 7449TIP3    H143838   0.850   2.561   4.041 -1.2501 -0.3115 -0.3175
 7449TIP3    H243839   0.890   2.630   3.913 -0.7614 -0.4404 -0.2360
 7450TIP3   OH243840   1.538   4.897  12.075 -0.0921  0.3115 -0.4972
 7450TIP3    H143841   1.494   4.967  12.122 -2.0110 -2.4708  2.2827
 7450TIP3    H243842   1.601   4.861  12.138  1.6235  0.1393 -2.2134
 7451TIP3   OH243843   1.917   5.835   3.397  0.1821 -0.4703 -0.6135
 7451TIP3    H143844   2.005   5.872   3.406 -0.4539  1.2596 -1.1830
 7451TIP3    H243845   1.890   5.856   3.308 -0.8709 -0.8126 -0.3962
 7452TIP3   OH243846   6.671   2.152   0.259  0.1622 -0.8099 -0.1532
 7452TIP3    H143847   6.640   2.241   0.277 -0.7404 -1.0907 -0.2266
 7452TIP3    H243848   6.593   2.106   0.227 -0.4491 -2.7107  3.4816
 7453TIP3   OH243849   0.998   3.715  14.571  0.3077 -0.0815 -0.6251
 7453TIP3    H143850   1.038   3.748  14.490  2.4950 -0.6705  0.1388
 7453TIP3    H243851   0.932   3.652  14.541 -0.8377  1.6536 -1.9735
 7454TIP3   OH243852   5.654   3.231  14.783 -0.0192  0.0113 -0.4345
 7454TIP3    H143853   5.708   3.307  14.804 -0.4467  0.4006 -0.7241
 7454TIP3    H243854   5.652   3.179  14.864 -0.3412  0.6843 -0.0034
 7455TIP3   OH243855   5.179   4.528  11.139 -0.1580  0.3699 -0.2304
 7455TIP3    H143856   5.161   4.531  11.045  0.1476  0.2381 -0.2940
 7455TIP3    H243857   5.094   4.515  11.179 -0.5161  1.9753 -0.3894
 7456TIP3   OH243858   6.724   0.297  16.761 -0.1643  0.2082  0.2743
 7456TIP3    H143859   6.769   0.286  16.845  0.2168  0.7016  0.1409
 7456TIP3    H243860   6.790   0.337  16.704 -1.1538  2.2285  0.4533
 7457TIP3   OH243861   3.485   3.399   2.538  0.2705 -0.1369  0.3513
 7457TIP3    H143862   3.555   3.464   2.548 -1.6368  1.7139  3.5137
 7457TIP3    H243863   3.466   3.371   2.628 -1.5458 -2.3016 -0.6059
 7458TIP3   OH243864   1.045   6.393   2.467 -0.2184 -0.2465 -0.1824
 7458TIP3    H143865   1.042   6.334   2.543 -2.4038  1.4298  1.1383
 7458TIP3    H243866   0.968   6.449   2.477 -1.7442 -1.1372 -4.6691
 7459TIP3   OH243867   5.160   2.038   2.356 -0.1439 -0.1157 -0.1104
 7459TIP3    H143868   5.192   2.045   2.446  1.1330 -0.8683 -0.4706
 7459TIP3    H243869   5.223   1.980   2.313 -1.7979 -1.3428 -1.0013
 7460TIP3   OH243870   0.695   6.696  13.557 -0.3285  0.1687 -0.7112
 7460TIP3    H143871   0.688   6.768  13.620  3.2758 -0.9383  1.2181
 7460TIP3    H243872   0.627   6.634  13.584 -0.0369  0.5351  0.9840
 7461TIP3   OH243873   2.880   3.228   3.198  0.6144  0.1679 -0.3545
 7461TIP3    H143874   2.789   3.245   3.177  0.0043 -1.4035  0.8230
 7461TIP3    H243875   2.909   3.305   3.248 -0.9030 -0.4288  1.5734
 7462TIP3   OH243876   2.590   5.878  10.732 -0.0750 -0.1906 -0.0861
 7462TIP3    H143877   2.665   5.898  10.788 -0.2963  0.8651 -0.1428
 7462TIP3    H243878   2.529   5.833  10.789 -1.2501  2.7908  1.2100
 7463TIP3   OH243879   4.499   0.673  15.809 -0.1604 -0.9924 -0.0102
 7463TIP3    H143880   4.506   0.577  15.814  1.0472 -0.9811 -1.0083
 7463TIP3    H243881   4.572   0.699  15.753 -0.3366  0.5464  0.4481
 7464TIP3   OH243882   1.543   1.206  14.811 -0.7014 -0.0214  0.6658
 7464TIP3    H143883   1.617   1.169  14.761 -0.3420  0.9519  0.4458
 7464TIP3    H243884   1.487   1.131  14.830 -0.3088 -0.5825 -0.2973
 7465TIP3   OH243885   0.881   1.682   5.674 -0.1276  0.1672  0.2265
 7465TIP3    H143886   0.883   1.767   5.631 -0.0190 -0.8539 -1.9541
 7465TIP3    H243887   0.964   1.678   5.722  0.3277  0.9166 -0.4655
 7466TIP3   OH243888   6.241   5.922  15.567  0.6033 -0.0674  0.3187
 7466TIP3    H143889   6.172   5.929  15.632 -0.5709  0.7933 -0.9597
 7466TIP3    H243890   6.313   5.974  15.603 -0.3102  1.0399  0.6043
 7467TIP3   OH243891   6.297   6.277  14.265 -0.1967 -0.5388 -0.0226
 7467TIP3    H143892   6.362   6.233  14.210 -0.5921 -1.7201  0.4255
 7467TIP3    H243893   6.326   6.261  14.354 -1.6282 -1.9915  0.2271
 7468TIP3   OH243894   4.525   2.680  15.968 -0.4186  0.3372  0.0043
 7468TIP3    H143895   4.549   2.630  15.890 -0.9310 -0.3428  0.2664
 7468TIP3    H243896   4.445   2.637  16.000  0.5083 -0.2455  1.6594
 7469TIP3   OH243897   6.355   6.648   4.608  0.0406  0.7649 -0.4939
 7469TIP3    H143898   6.428   6.658   4.669  1.0874 -2.1167 -1.1361
 7469TIP3    H243899   6.384   6.691   4.528 -0.0702  1.8225  0.0068
 7470TIP3   OH243900   4.052   5.615   4.049  0.0478 -0.7680  0.4509
 7470TIP3    H143901   4.023   5.525   4.064 -1.4754 -0.1958  1.2122
 7470TIP3    H243902   4.142   5.616   4.081  0.1345 -2.0515  0.3129
 7471TIP3   OH243903   1.234   5.992   2.670  0.3166 -0.1146 -0.1510
 7471TIP3    H143904   1.201   5.975   2.582 -0.2715  2.2948 -0.4609
 7471TIP3    H243905   1.157   5.984   2.727  0.3202  0.0908 -0.1151
 7472TIP3   OH243906   0.919   3.265   2.005  0.4310 -0.1057 -0.5832
 7472TIP3    H143907   0.871   3.196   2.051 -0.2995  2.1773  2.4182
 7472TIP3    H243908   0.851   3.322   1.969  0.8541  1.2007  0.5623
 7473TIP3   OH243909   4.704   3.031   0.742  0.1497 -0.0567  0.3906
 7473TIP3    H143910   4.675   3.119   0.720 -0.8633 -0.2580  0.8344
 7473TIP3    H243911   4.793   3.025   0.708 -0.4162  0.5204 -1.3077
 7474TIP3   OH243912   2.994   2.212   6.600  0.3088  0.2613  0.7440
 7474TIP3    H143913   3.009   2.120   6.623 -0.2190 -0.5306 -1.7514
 7474TIP3    H243914   3.081   2.252   6.603  0.7984 -0.7229  0.3528
 7475TIP3   OH243915   4.407   3.210  13.181 -0.4160 -0.0358  0.0257
 7475TIP3    H143916   4.353   3.131  13.185  1.9922 -1.8605 -0.6247
 7475TIP3    H243917   4.390   3.255  13.263 -1.5753 -1.4392  0.6001
 7476TIP3   OH243918   1.774   6.383   3.267  0.3683  0.2059  0.3439
 7476TIP3    H143919   1.827   6.303   3.261  0.9281  0.6020 -0.1669
 7476TIP3    H243920   1.765   6.398   3.361  1.0478  0.0505  0.4393
 7477TIP3   OH243921   4.429   4.825  12.891  0.1592 -0.0073 -0.2531
 7477TIP3    H143922   4.386   4.877  12.958 -0.3336  1.1535 -1.4394
 7477TIP3    H243923   4.483   4.763  12.940 -0.4918  0.5472  1.2088
 7478TIP3   OH243924   3.032   1.083   3.118  0.1852  0.5890 -0.7025
 7478TIP3    H143925   3.034   1.041   3.204 -1.0495 -0.2081 -1.0537
 7478TIP3    H243926   3.122   1.114   3.105  0.7040 -0.4213  0.3101
 7479TIP3   OH243927   5.633   6.726   4.255 -0.4180 -0.0730  0.2619
 7479TIP3    H143928   5.655   6.726   4.348 -1.1723  0.5283  0.4507
 7479TIP3    H243929   5.553   6.778   4.249 -0.4046 -0.1414 -0.7202
 7480TIP3   OH243930   4.160   3.900   4.912  0.2577  0.1533  0.4939
 7480TIP3    H143931   4.146   3.805   4.912  2.8202 -0.3112 -0.1721
 7480TIP3    H243932   4.075   3.937   4.889 -1.0538 -1.9087  1.7774
 7481TIP3   OH243933   0.522   0.788   4.864  0.3527  0.8595  0.6695
 7481TIP3    H143934   0.505   0.866   4.917 -1.0567  1.2726 -0.3260
 7481TIP3    H243935   0.565   0.822   4.786  1.6938  0.3522  1.1661
 7482TIP3   OH243936   0.480   5.602   6.306 -0.0338  0.5118  0.3933
 7482TIP3    H143937   0.395   5.623   6.342  0.1848  1.4584  0.3796
 7482TIP3    H243938   0.499   5.674   6.245  0.7223  0.2563  0.3164
 7483TIP3   OH243939   5.121   3.263   5.611 -0.2415  0.1855  0.2136
 7483TIP3    H143940   5.117   3.312   5.529 -3.0542  0.5460  0.4419
 7483TIP3    H243941   5.065   3.187   5.596 -0.8751  0.3058  1.7798
 7484TIP3   OH243942   3.534   3.407  10.978  0.2836 -0.4004 -0.3272
 7484TIP3    H143943   3.467   3.471  10.952 -0.6963 -1.6059 -0.9101
 7484TIP3    H243944   3.579   3.448  11.052 -2.1384 -0.1475  1.1424
 7485TIP3   OH243945   5.164   5.372  12.581  0.3692 -0.3524  0.0026
 7485TIP3    H143946   5.172   5.277  12.581  0.1478 -0.3740  0.2062
 7485TIP3    H243947   5.240   5.403  12.630  1.5723 -0.3053 -1.7946
 7486TIP3   OH243948   4.976   2.426   2.169  0.4240 -0.1820  0.4109
 7486TIP3    H143949   4.976   2.385   2.083 -1.8408  0.6225 -0.0209
 7486TIP3    H243950   5.021   2.510   2.156 -1.3005  0.6467 -0.3856
 7487TIP3   OH243951   3.708   3.266   6.111 -0.2974 -0.5075 -0.4057
 7487TIP3    H143952   3.662   3.257   6.195 -0.1461  0.7217 -0.1733
 7487TIP3    H243953   3.649   3.318   6.057  0.0633 -0.4155 -0.7137
 7488TIP3   OH243954   5.063   1.222   2.320 -0.3013 -0.3553 -0.0382
 7488TIP3    H143955   4.989   1.163   2.304 -0.1447 -0.5273 -0.1384
 7488TIP3    H243956   5.119   1.175   2.382 -0.2637 -0.2381  0.0168
 7489TIP3   OH243957   1.872   1.628   3.692 -0.2103 -0.3836  0.1531
 7489TIP3    H143958   1.817   1.591   3.623  1.3247 -0.1327 -1.2688
 7489TIP3    H243959   1.863   1.723   3.682  0.7595 -0.3281 -0.3862
 7490TIP3   OH243960   0.599   4.067   0.780  0.6863  0.1030 -0.1374
 7490TIP3    H143961   0.623   4.159   0.785 -0.6788  0.4252  1.0393
 7490TIP3    H243962   0.541   4.053   0.855 -2.7032 -0.6069 -2.6476
 7491TIP3   OH243963   0.804   3.372   6.499  0.0429  0.6407 -0.1890
 7491TIP3    H143964   0.841   3.399   6.583 -0.8478  0.8665  0.1362
 7491TIP3    H243965   0.834   3.440   6.437 -0.6009  1.3406  0.2554
 7492TIP3   OH243966   5.331   4.156  13.873  0.2346 -0.0147 -0.4462
 7492TIP3    H143967   5.350   4.107  13.953  1.4321 -0.4991 -1.0090
 7492TIP3    H243968   5.241   4.186  13.884  0.3656 -0.1154  1.0571
 7493TIP3   OH243969   0.878   1.876   1.879  0.2217  0.1847 -0.0783
 7493TIP3    H143970   0.944   1.926   1.927  0.2184 -0.4217  0.5687
 7493TIP3    H243971   0.818   1.942   1.845  0.3992  0.6456  0.4924
 7494TIP3   OH243972   2.409   6.102   4.310  0.1960 -0.4229  0.1464
 7494TIP3    H143973   2.432   6.011   4.326 -0.5227 -0.9510 -1.5938
 7494TIP3    H243974   2.468   6.130   4.241  0.0797  0.2782  0.3238
 7495TIP3   OH243975   0.081   2.932   2.517  0.2612  0.2172  0.8294
 7495TIP3    H143976   0.024   2.868   2.560  1.8693 -2.5516 -0.8497
 7495TIP3    H243977   0.028   2.968   2.446 -0.2357 -0.3115  0.9306
 7496TIP3   OH243978   1.622   2.845   2.910 -0.2830 -0.0578  0.0351
 7496TIP3    H143979   1.559   2.850   2.839 -1.0623  1.0446  0.7628
 7496TIP3    H243980   1.662   2.933   2.914  0.0151 -0.2137  0.7076
 7497TIP3   OH243981   0.241   2.109   5.904 -0.3013 -0.7955 -0.0454
 7497TIP3    H143982   0.168   2.142   5.957 -0.2956 -0.1419 -0.4276
 7497TIP3    H243983   0.318   2.118   5.960 -0.1532  0.7339 -0.4541
 7498TIP3   OH243984   3.473   1.682   1.923  0.3068 -0.5970 -0.4534
 7498TIP3    H143985   3.496   1.666   1.832  1.1867  0.3210 -0.4112
 7498TIP3    H243986   3.377   1.681   1.925  0.2902 -1.0433 -1.2968
 7499TIP3   OH243987   5.253   3.534   5.740  0.1446  0.3658 -0.5544
 7499TIP3    H143988   5.290   3.469   5.681 -2.3577 -0.6551 -1.1534
 7499TIP3    H243989   5.256   3.616   5.690 -0.0053 -0.0570 -1.2756
 7500TIP3   OH243990   4.726   4.554   2.065  0.0825  0.2231 -0.3694
 7500TIP3    H143991   4.749   4.579   2.155 -0.8565  3.1315 -0.8554
 7500TIP3    H243992   4.808   4.519   2.029  1.2612  1.6819  0.7616
 7501TIP3   OH243993   3.104   4.378   4.743 -0.4100 -0.6337  0.6664
 7501TIP3    H143994   3.198   4.374   4.724 -0.0370  1.0002  1.9291
 7501TIP3    H243995   3.081   4.288   4.768  0.3748 -1.4697 -1.3726
 7502TIP3   OH243996   6.009   5.882  13.803 -0.7422 -0.0571  0.0949
 7502TIP3    H143997   6.066   5.921  13.738  1.1820  1.0713  2.3159
 7502TIP3    H243998   5.991   5.794  13.770  4.2251 -1.4025  0.2353
 7503TIP3   OH243999   3.373   0.228  14.563 -0.5352 -0.2784 -0.0255
 7503TIP3    H144000   3.405   0.178  14.488 -0.3915 -1.6355  0.9141
 7503TIP3    H244001   3.403   0.180  14.640  0.3432  1.7218  0.9565
 7504TIP3   OH244002   3.958   5.763  14.650  0.4952  0.1068  0.2188
 7504TIP3    H144003   3.983   5.835  14.708 -0.4141  0.6437 -0.0454
 7504TIP3    H244004   3.924   5.695  14.709  0.0122  0.4684  0.3621
 7505TIP3   OH244005   4.335   3.341  13.400  0.2017  0.0075  0.2647
 7505TIP3    H144006   4.373   3.293  13.474 -2.3439 -0.3133  1.4705
 7505TIP3    H244007   4.260   3.386  13.437 -1.0066  0.0821 -2.0928
 7506TIP3   OH244008   2.830   3.165   0.385 -0.5790 -0.3077 -0.8267
 7506TIP3    H144009   2.885   3.229   0.340 -0.1702 -0.4017 -0.4641
 7506TIP3    H244010   2.769   3.219   0.437 -0.1734 -0.2111 -0.4472
 7507TIP3   OH244011   3.085   1.232  15.095 -0.1650 -0.2353  0.0753
 7507TIP3    H144012   3.103   1.150  15.141 -0.0213 -0.2423  0.0049
 7507TIP3    H244013   3.138   1.228  15.016  0.6551  0.3862  0.5798
 7508TIP3   OH244014   5.520   0.529   5.828 -0.0378 -0.2541  0.1206
 7508TIP3    H144015   5.526   0.484   5.743 -2.2956  1.5998 -1.1472
 7508TIP3    H244016   5.470   0.469   5.883  2.5354 -2.0492  0.6786
 7509TIP3   OH244017   6.270   4.680   5.598 -0.2836  0.0664  0.2597
 7509TIP3    H144018   6.184   4.710   5.567 -0.7393 -0.5240  0.9175
 7509TIP3    H244019   6.294   4.610   5.538 -0.4829 -0.0914  0.3646
 7510TIP3   OH244020   2.683   0.541   4.686 -0.2501 -0.0270 -0.4245
 7510TIP3    H144021   2.682   0.445   4.681  0.6518 -0.3666  3.1518
 7510TIP3    H244022   2.590   0.566   4.687 -0.6091 -1.2263  1.9337
 7511TIP3   OH244023   4.750   2.389  16.229  0.1509 -0.0036 -0.0207
 7511TIP3    H144024   4.790   2.325  16.288  1.7941 -0.1149 -1.1777
 7511TIP3    H244025   4.709   2.337  16.161 -0.4988  0.1526  0.2429
 7512TIP3   OH244026   3.866   1.302  12.083 -0.0941  0.8641  0.2668
 7512TIP3    H144027   3.886   1.311  11.990  1.0979  1.7303  0.5815
 7512TIP3    H244028   3.851   1.208  12.095  1.6935  0.4542 -0.4378
 7513TIP3   OH244029   0.764   1.254   4.756  0.9146  0.4023  0.4400
 7513TIP3    H144030   0.727   1.275   4.842 -1.5945 -0.4186 -0.3600
 7513TIP3    H244031   0.851   1.220   4.775 -0.1127 -1.1875  2.8215
 7514TIP3   OH244032   4.711   3.656  15.107 -0.4337 -0.1638  0.7862
 7514TIP3    H144033   4.755   3.741  15.099 -0.3159 -0.3554 -0.8025
 7514TIP3    H244034   4.628   3.667  15.061  0.5670 -1.5539 -1.4975
 7515TIP3   OH244035   4.252   0.053  16.914 -0.1412 -0.0275 -0.2789
 7515TIP3    H144036   4.224   0.101  16.992 -1.1377  1.2739 -1.3969
 7515TIP3    H244037   4.309   0.114  16.868 -1.0617 -0.0762 -1.5050
 7516TIP3   OH244038   0.706   5.955  12.827  0.1111  0.0883  0.9121
 7516TIP3    H144039   0.660   6.031  12.862 -1.6474 -1.1241  1.3742
 7516TIP3    H244040   0.681   5.952  12.735 -2.4004 -1.6307  1.5621
 7517TIP3   OH244041   1.841   0.506  16.185 -0.5043 -0.2384  0.4643
 7517TIP3    H144042   1.891   0.427  16.204 -0.4979 -0.2096  0.5655
 7517TIP3    H244043   1.753   0.486  16.217 -0.8196 -0.6803 -0.6441
 7518TIP3   OH244044   3.977   4.842   3.334  0.2649 -0.4802  0.1659
 7518TIP3    H144045   4.061   4.797   3.332  0.3332 -0.3371 -0.2685
 7518TIP3    H244046   3.983   4.908   3.265  0.1765  0.2156  0.8012
 7519TIP3   OH244047   0.501   4.139   1.735 -0.5859  0.1346 -0.1096
 7519TIP3    H144048   0.507   4.052   1.697  2.0609  0.4511 -0.6355
 7519TIP3    H244049   0.476   4.196   1.662 -1.0716 -0.0091 -0.0564
 7520TIP3   OH244050   4.057   0.875   0.509  0.8031 -0.1709 -0.5378
 7520TIP3    H144051   4.045   0.931   0.433 -1.3947 -0.9569 -0.8491
 7520TIP3    H244052   4.086   0.791   0.473  1.0618 -0.1535 -0.3730
 7521TIP3   OH244053   5.381   0.057  11.081  0.3945  0.0143  0.2088
 7521TIP3    H144054   5.356   0.094  10.996  1.0199 -2.1936 -1.0250
 7521TIP3    H244055   5.474   0.079  11.090  0.1116  1.0285  0.7884
 7522TIP3   OH244056   6.156   1.146  14.253 -0.0133 -0.4652 -0.3136
 7522TIP3    H144057   6.146   1.201  14.175  0.0198 -0.6641 -0.4591
 7522TIP3    H244058   6.089   1.078  14.242 -0.5660 -0.0158  0.2415
 7523TIP3   OH244059   5.057   3.595   1.718 -0.2340 -0.1753 -0.0062
 7523TIP3    H144060   5.010   3.647   1.652 -0.6973  0.5100  0.8379
 7523TIP3    H244061   5.130   3.650   1.745 -0.4944 -0.1237  0.6059
 7524TIP3   OH244062   2.461   4.565  13.918 -0.0220 -0.1938 -0.4543
 7524TIP3    H144063   2.396   4.583  13.851  1.3864 -1.6330 -2.3272
 7524TIP3    H244064   2.427   4.488  13.964 -0.7250  0.4648  0.1567
 7525TIP3   OH244065   3.981   1.851   0.868  0.4479  0.0240  0.3296
 7525TIP3    H144066   4.045   1.794   0.911  0.4721  0.1841  0.5066
 7525TIP3    H244067   3.909   1.792   0.844  1.2780 -0.4141 -1.1562
 7526TIP3   OH244068   1.806   0.674  14.928  0.0020 -0.4826 -0.5496
 7526TIP3    H144069   1.791   0.605  14.993  1.3978 -0.6442 -0.3568
 7526TIP3    H244070   1.901   0.687  14.929 -0.1171  0.6117 -1.4455
 7527TIP3   OH244071   2.852   2.332  12.296  0.3090 -0.2644  0.7827
 7527TIP3    H144072   2.893   2.382  12.224 -1.4858 -2.8468 -2.3156
 7527TIP3    H244073   2.814   2.399  12.353  1.7829  1.9592 -0.6733
 7528TIP3   OH244074   5.606   4.653  16.430 -0.5999 -0.2091 -0.2260
 7528TIP3    H144075   5.590   4.739  16.391  0.5021 -0.1410 -0.5680
 7528TIP3    H244076   5.604   4.592  16.356  0.4312 -0.2262 -0.2449
 7529TIP3   OH244077   5.587   4.280  11.190  0.2000  0.7879 -0.8372
 7529TIP3    H144078   5.562   4.215  11.124  1.4956 -0.2138 -0.3792
 7529TIP3    H244079   5.672   4.250  11.221 -1.0704  0.2622  2.5168
 7530TIP3   OH244080   3.343   3.735  12.892  0.1291 -0.0528  0.1143
 7530TIP3    H144081   3.333   3.812  12.948  1.4890  1.0557 -1.0994
 7530TIP3    H244082   3.415   3.686  12.933 -0.0846 -0.1818  0.3392
 7531TIP3   OH244083   3.774   6.705  15.806 -0.0313 -0.3149 -0.0185
 7531TIP3    H144084   3.696   6.755  15.782  0.1254 -0.0157  0.0886
 7531TIP3    H244085   3.741   6.626  15.848 -0.2866 -0.3855 -0.3485
 7532TIP3   OH244086   0.350   4.485   5.110 -0.8841  0.6584 -0.4292
 7532TIP3    H144087   0.263   4.502   5.073 -1.8565  0.1588  1.4862
 7532TIP3    H244088   0.409   4.486   5.034 -2.6846  0.0362 -1.9266
 7533TIP3   OH244089   1.607   5.969   2.565  0.2953 -0.1118 -0.4707
 7533TIP3    H144090   1.682   5.944   2.619  0.7895  0.7166 -0.7543
 7533TIP3    H244091   1.637   6.046   2.517 -1.3233  1.3987  0.7856
 7534TIP3   OH244092   4.779   1.800  12.019 -0.7030 -0.1463  0.0063
 7534TIP3    H144093   4.747   1.829  11.934  1.3007  0.5990 -0.5355
 7534TIP3    H244094   4.858   1.750  12.000 -0.9520 -1.1119  1.3509
 7535TIP3   OH244095   2.678   0.941  12.499  0.4640 -0.8549  0.5732
 7535TIP3    H144096   2.642   1.030  12.496  0.7342 -0.7358  0.8645
 7535TIP3    H244097   2.750   0.946  12.562  1.4124 -0.9428 -0.4806
 7536TIP3   OH244098   2.480   3.908  12.359 -0.7837 -0.2481  0.4213
 7536TIP3    H144099   2.425   3.918  12.281 -0.1153 -0.6934 -0.1214
 7536TIP3    H244100   2.565   3.944  12.333 -0.6617 -0.0633  1.0692
 7537TIP3   OH244101   1.386   5.062   2.135  0.0449 -0.0565 -0.0382
 7537TIP3    H144102   1.320   5.064   2.205  0.5771  0.8697  0.4554
 7537TIP3    H244103   1.416   5.153   2.128  0.2372 -0.2001 -1.2517
 7538TIP3   OH244104   1.919   0.654  16.426 -0.7335  1.1983 -0.1477
 7538TIP3    H144105   1.892   0.615  16.343  0.2743  0.0482  0.0358
 7538TIP3    H244106   1.852   0.720  16.444 -1.9517  0.2341 -0.9736
 7539TIP3   OH244107   3.120   5.811   2.059  0.3782  0.3310  0.1409
 7539TIP3    H144108   3.045   5.830   2.003  0.8204  2.2478  0.1466
 7539TIP3    H244109   3.189   5.870   2.029  0.5832  1.5668  2.7352
 7540TIP3   OH244110   0.822   6.327  14.943  0.0829  0.2122  0.0913
 7540TIP3    H144111   0.833   6.422  14.951 -0.4579  0.2837 -0.0176
 7540TIP3    H244112   0.732   6.315  14.912  0.7850 -0.2249 -1.9849
 7541TIP3   OH244113   4.319   4.703   0.454  0.0103  0.1041 -0.2874
 7541TIP3    H144114   4.235   4.722   0.496 -0.0973  0.4898 -0.6662
 7541TIP3    H244115   4.295   4.672   0.367  0.2733  0.5139 -0.5037
 7542TIP3   OH244116   1.943   4.240   1.922 -0.7598  0.0411  0.1089
 7542TIP3    H144117   1.963   4.148   1.906 -0.5397  0.1678 -0.3573
 7542TIP3    H244118   1.890   4.239   2.002 -1.6709 -0.5772 -0.4910
 7543TIP3   OH244119   0.769   4.722  15.069  0.3819 -0.1038  0.0058
 7543TIP3    H144120   0.717   4.785  15.118 -0.1725  1.7549 -2.7506
 7543TIP3    H244121   0.720   4.640  15.075 -0.7452  0.6027  0.7602
 7544TIP3   OH244122   0.830   3.438  17.069 -0.2282  0.6429  0.1155
 7544TIP3    H144123   0.812   3.423  16.976  0.1119  1.3751 -0.0803
 7544TIP3    H244124   0.747   3.472  17.104 -0.9473 -1.4283  0.5273
 7545TIP3   OH244125   0.549   1.429  11.294 -0.3652  0.3180 -0.4582
 7545TIP3    H144126   0.477   1.422  11.357 -0.2465  0.3334 -0.3200
 7545TIP3    H244127   0.559   1.340  11.259  3.5170 -1.3657  3.9306
 7546TIP3   OH244128   4.429   4.258  13.995  0.5581  0.1727 -0.3372
 7546TIP3    H144129   4.344   4.298  14.012  1.1378  0.6169  1.8077
 7546TIP3    H244130   4.490   4.332  13.990  1.0827 -0.2358 -0.0571
 7547TIP3   OH244131   2.416   3.599  14.239  0.2184 -0.0646 -0.4516
 7547TIP3    H144132   2.470   3.551  14.177 -0.8663  0.2918 -1.7224
 7547TIP3    H244133   2.327   3.568  14.222 -0.3453  1.4922 -0.4898
 7548TIP3   OH244134   4.522   3.331   4.239  0.1954  0.2083 -0.3802
 7548TIP3    H144135   4.496   3.297   4.154 -0.4490  0.3959 -0.2626
 7548TIP3    H244136   4.604   3.285   4.259  0.2783  0.0617 -1.0323
 7549TIP3   OH244137   6.655   0.086  16.600  0.1438  0.3386 -0.8821
 7549TIP3    H144138   6.750   0.092  16.597  0.1704  0.4806 -0.0182
 7549TIP3    H244139   6.628   0.163  16.651 -0.2318 -1.1230  1.2963
 7550TIP3   OH244140   5.933   1.091   0.377  0.6196 -0.2806  0.1907
 7550TIP3    H144141   5.958   1.182   0.361  0.4622 -0.2486  0.1188
 7550TIP3    H244142   5.936   1.049   0.291  1.8388 -0.6403  0.3936
 7551TIP3   OH244143   4.448   3.238   0.859  0.5516  0.7985  0.2236
 7551TIP3    H144144   4.483   3.280   0.938  0.0010  0.5944  0.5819
 7551TIP3    H244145   4.377   3.296   0.831  0.3732  0.5736  0.2099
 7552TIP3   OH244146   0.031   2.700  12.226 -0.6965  0.2140 -0.4280
 7552TIP3    H144147   0.109   2.755  12.241 -0.6067 -0.1114  0.3780
 7552TIP3    H244148  -0.041   2.754  12.258 -0.5303 -0.3917  1.0360
 7553TIP3   OH244149   5.203   2.973   3.230 -0.2677  0.8011  0.1476
 7553TIP3    H144150   5.133   3.021   3.186 -0.9569  0.3983  0.7671
 7553TIP3    H244151   5.252   2.931   3.160 -0.4882  1.3051 -0.3119
 7554TIP3   OH244152   2.187   5.561  14.244  0.6766  0.3687 -0.4990
 7554TIP3    H144153   2.111   5.574  14.187 -0.1250  2.6609  0.9705
 7554TIP3    H244154   2.238   5.492  14.200 -1.5297 -0.2825 -2.2304
 7555TIP3   OH244155   5.726   2.566  11.637 -0.1407  0.2946  0.1433
 7555TIP3    H144156   5.740   2.640  11.697 -0.2052 -0.0389  0.5758
 7555TIP3    H244157   5.733   2.488  11.693 -1.6801  0.0194 -0.0049
 7556TIP3   OH244158   0.123   0.121  14.503  0.4513  0.3033  1.0381
 7556TIP3    H144159   0.205   0.155  14.537 -0.0793  1.4402  1.2157
 7556TIP3    H244160   0.147   0.071  14.425  1.2319  1.1970  0.6962
 7557TIP3   OH244161   1.184   3.583  15.782  0.3703 -0.0206 -0.8681
 7557TIP3    H144162   1.110   3.635  15.750 -0.1263  0.4074  0.8871
 7557TIP3    H244163   1.261   3.629  15.746 -0.1212  1.0091 -0.6572
 7558TIP3   OH244164   0.320   6.063  15.817 -0.2840  0.1911 -0.1232
 7558TIP3    H144165   0.381   6.132  15.841  1.3169 -0.4188 -2.1237
 7558TIP3    H244166   0.251   6.108  15.768 -0.6196  0.6923  0.8065
 7559TIP3   OH244167   0.125   1.038   2.404  0.0638 -0.2699  0.2296
 7559TIP3    H144168   0.114   0.957   2.453  0.3569 -0.5067 -0.0974
 7559TIP3    H244169   0.202   1.024   2.349 -1.1945 -0.6316 -1.5229
 7560TIP3   OH244170   5.412   2.793   0.545  0.2888  0.3287  0.9264
 7560TIP3    H144171   5.326   2.769   0.511  0.4787 -0.1636  0.7917
 7560TIP3    H244172   5.398   2.878   0.587 -0.5743 -0.3637  2.1228
 7561TIP3   OH244173   2.685   4.640   1.874  0.0425  0.0511 -0.1798
 7561TIP3    H144174   2.611   4.688   1.836 -0.0629  0.8065  0.9379
 7561TIP3    H244175   2.721   4.699   1.940 -0.3231 -1.5394  1.5194
 7562TIP3   OH244176   1.100   0.979   0.455 -0.2766  0.0475 -0.2294
 7562TIP3    H144177   1.041   1.044   0.416  1.9786  2.3321 -0.1042
 7562TIP3    H244178   1.147   0.940   0.381 -1.3177 -1.1908 -0.2699
 7563TIP3   OH244179   2.777   3.756  11.741 -0.0369  0.1048 -0.0098
 7563TIP3    H144180   2.754   3.825  11.803  0.9470  0.5273 -0.0917
 7563TIP3    H244181   2.795   3.802  11.659 -0.1641 -0.3327 -0.2894
 7564TIP3   OH244182   3.053   2.838   4.522 -0.3183  0.3865 -0.0492
 7564TIP3    H144183   3.047   2.773   4.452  1.1120 -1.6992  1.6204
 7564TIP3    H244184   3.067   2.921   4.477 -2.8283 -0.2807 -2.3030
 7565TIP3   OH244185   3.053   0.792  12.310  0.2257 -0.3879  0.2661
 7565TIP3    H144186   2.981   0.733  12.288 -1.2231  1.1646  0.6558
 7565TIP3    H244187   3.107   0.794  12.231 -0.5174 -1.0448 -0.2760
 7566TIP3   OH244188   2.124   6.650   3.917  0.5848 -0.0929  0.5178
 7566TIP3    H144189   2.162   6.730   3.881 -0.9022  0.6130  0.4268
 7566TIP3    H244190   2.094   6.675   4.004 -0.5297 -0.3317  0.2202
 7567TIP3   OH244191   4.563   6.672  11.460 -0.1192 -0.7227 -0.0947
 7567TIP3    H144192   4.548   6.655  11.553 -3.2833  0.8334 -0.2025
 7567TIP3    H244193   4.503   6.613  11.415  1.4358 -1.5221 -1.2358
 7568TIP3   OH244194   1.410   4.366   5.355  0.2322 -1.0452 -0.2351
 7568TIP3    H144195   1.496   4.330   5.374  0.2848 -0.2066  1.2198
 7568TIP3    H244196   1.422   4.461   5.358 -1.1638 -0.8678  2.2992
 7569TIP3   OH244197   2.969   2.815   5.510 -0.1339  0.1428 -0.1198
 7569TIP3    H144198   2.930   2.733   5.538  1.0370 -0.7856 -1.1070
 7569TIP3    H244199   2.989   2.802   5.417  2.8428  0.3681  0.3887
 7570TIP3   OH244200   4.432   5.679   1.622 -0.0817  0.2624  0.0082
 7570TIP3    H144201   4.514   5.658   1.576  0.4879  0.2444  1.0032
 7570TIP3    H244202   4.460   5.728   1.699 -0.8925 -0.8896  1.0713
 7571TIP3   OH244203   2.425   2.586  15.404  0.0024  0.3907 -0.2158
 7571TIP3    H144204   2.510   2.541  15.410 -0.8123 -1.1095  0.7950
 7571TIP3    H244205   2.447   2.679  15.409  1.5309  0.0126  1.2506
 7572TIP3   OH244206   4.440   3.375  11.283 -0.0806 -0.0926  0.2545
 7572TIP3    H144207   4.407   3.455  11.323 -1.5727 -0.8116  0.5561
 7572TIP3    H244208   4.513   3.403  11.229 -1.9988  1.8620 -1.5258
 7573TIP3   OH244209   4.169   1.956  12.280  0.0685  0.2348  0.3184
 7573TIP3    H144210   4.103   1.988  12.219 -0.9887 -0.8704  0.8379
 7573TIP3    H244211   4.170   2.020  12.351  1.9347  2.0083 -1.1840
 7574TIP3   OH244212   3.229   2.203  12.267 -0.5133  0.0721 -0.7337
 7574TIP3    H144213   3.300   2.168  12.321 -0.2801 -0.3524 -1.3071
 7574TIP3    H244214   3.209   2.287  12.307  1.6290  1.1141 -1.6748
 7575TIP3   OH244215   5.369   6.307  13.271 -0.0004  0.1483 -0.6671
 7575TIP3    H144216   5.410   6.222  13.288 -2.1966 -0.8877 -0.1705
 7575TIP3    H244217   5.429   6.352  13.211  1.2402 -1.7127 -0.8892
 7576TIP3   OH244218   5.067   0.338  16.535 -0.5872  0.4731 -0.2112
 7576TIP3    H144219   5.154   0.309  16.507 -0.6769  0.0973 -0.1169
 7576TIP3    H244220   5.083   0.391  16.612 -0.3773  1.0980 -0.6784
 7577TIP3   OH244221   6.467   1.904  15.525 -0.7048  0.4492  0.6198
 7577TIP3    H144222   6.541   1.961  15.541  0.3592 -0.9496  0.9146
 7577TIP3    H244223   6.429   1.935  15.443  1.1924  0.2220 -0.3823
 7578TIP3   OH244224   5.011   1.258   4.082 -0.1384 -0.2528 -0.0353
 7578TIP3    H144225   5.098   1.277   4.046 -0.7083  1.3225 -0.6964
 7578TIP3    H244226   4.988   1.172   4.048  1.4286 -1.0043  0.7098
 7579TIP3   OH244227   5.045   0.089   4.858 -0.7958  0.6513  0.2703
 7579TIP3    H144228   5.000   0.160   4.813  0.3852  0.7539 -0.7875
 7579TIP3    H244229   5.051   0.019   4.793  0.8051  0.7444  0.2898
 7580TIP3   OH244230   1.765   2.030  13.568 -0.5153 -0.0541  0.0679
 7580TIP3    H144231   1.816   2.086  13.510  0.2836  0.8734  1.5768
 7580TIP3    H244232   1.674   2.049  13.547 -0.2447  0.9303 -0.2634
 7581TIP3   OH244233   1.463   5.327   2.072 -0.8297 -0.7506  0.1370
 7581TIP3    H144234   1.370   5.346   2.078 -0.6460  0.4199 -0.5288
 7581TIP3    H244235   1.485   5.344   1.981  0.3660  0.5864  0.6472
 7582TIP3   OH244236   1.971   3.941   5.270 -0.6829  0.1201  0.1534
 7582TIP3    H144237   2.026   4.001   5.221 -0.4758  0.4650  0.7951
 7582TIP3    H244238   1.989   3.855   5.232 -1.4751  0.5247 -1.2079
 7583TIP3   OH244239   2.698   4.455  11.039  0.1433  0.0432  0.1028
 7583TIP3    H144240   2.647   4.422  10.964  0.5725 -0.2982 -0.0470
 7583TIP3    H244241   2.642   4.522  11.079 -0.4655 -0.3984  0.0071
 7584TIP3   OH244242   6.076   3.036  14.951  0.2087 -0.1385  0.6064
 7584TIP3    H144243   6.169   3.014  14.944 -0.4075 -2.5206 -1.1678
 7584TIP3    H244244   6.042   2.972  15.014 -0.4713 -0.1716  0.2078
 7585TIP3   OH244245   4.161   1.609  15.490 -0.1170  0.0462 -0.0394
 7585TIP3    H144246   4.145   1.660  15.411  0.0891  0.6779  0.3199
 7585TIP3    H244247   4.121   1.524  15.473 -1.6974  0.7752 -0.1039
 7586TIP3   OH244248   3.929   6.315   2.108 -0.0155  0.2108 -0.2560
 7586TIP3    H144249   3.864   6.261   2.062  1.7701 -1.8125 -0.5748
 7586TIP3    H244250   3.973   6.363   2.039  0.9314 -0.8727 -0.4433
 7587TIP3   OH244251   5.204   1.818   6.595  0.1694 -1.1844 -0.0033
 7587TIP3    H144252   5.146   1.865   6.535  1.9183  2.0158  0.5308
 7587TIP3    H244253   5.158   1.818   6.679  1.0185  1.9807  0.6056
 7588TIP3   OH244254   6.544   0.536  13.256  0.2969  0.0619 -0.5120
 7588TIP3    H144255   6.611   0.566  13.196 -0.5540  0.7019 -1.1685
 7588TIP3    H244256   6.565   0.444  13.271  1.0400  0.1289 -1.0818
 7589TIP3   OH244257   5.686   1.987  13.812  0.2586 -0.6225  0.5956
 7589TIP3    H144258   5.750   1.954  13.748  0.5405  0.4327  0.3166
 7589TIP3    H244259   5.601   1.966  13.772  0.3685 -2.8658  1.3955
 7590TIP3   OH244260   4.030   6.720   0.876 -0.0999 -0.1253  0.0045
 7590TIP3    H144261   4.084   6.763   0.811 -2.6677  2.0774 -0.8559
 7590TIP3    H244262   4.064   6.749   0.961 -0.2445  1.6910 -0.5283
 7591TIP3   OH244263   3.868   4.468  13.225 -0.2750  0.2484  0.5940
 7591TIP3    H144264   3.839   4.396  13.281  1.9985 -0.4595  0.9722
 7591TIP3    H244265   3.852   4.438  13.136  1.1336 -1.0060  0.7256
 7592TIP3   OH244266   6.552   1.202   1.078  0.1792 -0.3058 -0.1713
 7592TIP3    H144267   6.511   1.288   1.069  2.1309  0.4638 -4.0280
 7592TIP3    H244268   6.635   1.220   1.121 -0.0234 -0.5176  0.3127
 7593TIP3   OH244269   5.898   5.917  16.284 -0.1624  0.0187 -0.1730
 7593TIP3    H144270   5.930   5.992  16.334  0.9366 -1.8623  2.1542
 7593TIP3    H244271   5.828   5.952  16.230 -0.4785  2.4861  1.6822
 7594TIP3   OH244272   0.544   6.701   3.203 -0.1422  0.0869  0.1308
 7594TIP3    H144273   0.499   6.757   3.139  0.5700 -1.1774 -1.5392
 7594TIP3    H244274   0.488   6.704   3.280 -2.2787 -0.1319 -1.3148
 7595TIP3   OH244275   4.342   0.693   2.452  0.1676  0.0226 -0.8841
 7595TIP3    H144276   4.389   0.762   2.404 -0.5457 -0.0398 -1.6933
 7595TIP3    H244277   4.285   0.653   2.387 -1.8398  0.8154  0.2793
 7596TIP3   OH244278   3.179   0.623  10.956  0.3020  0.5866 -0.8765
 7596TIP3    H144279   3.197   0.550  11.015  1.7246  0.6846 -1.1647
 7596TIP3    H244280   3.237   0.609  10.881  0.3449  1.8251 -1.1008
 7597TIP3   OH244281   2.975   4.831   0.851 -0.1699  0.2590 -0.1435
 7597TIP3    H144282   2.982   4.879   0.768  0.9479  2.9300  1.3496
 7597TIP3    H244283   3.063   4.797   0.866 -0.1909  0.3658  0.2369
 7598TIP3   OH244284   3.301   0.539   5.315  0.2951 -0.2257 -0.4651
 7598TIP3    H144285   3.285   0.633   5.303 -0.5829 -0.3159 -0.0464
 7598TIP3    H244286   3.374   0.520   5.255  1.9405  1.1597  0.9570
 7599TIP3   OH244287   2.293   2.507  16.298 -0.3639  1.1166 -0.0421
 7599TIP3    H144288   2.254   2.422  16.278 -0.1898  0.8621  0.6615
 7599TIP3    H244289   2.289   2.556  16.216  1.7020 -0.4115 -1.1419
 7600TIP3   OH244290   1.410   5.251  13.857  0.2830 -0.1760  0.2770
 7600TIP3    H144291   1.355   5.188  13.904 -3.5068  2.3289 -0.2986
 7600TIP3    H244292   1.467   5.197  13.802 -1.5589 -3.1144  0.9917
 7601TIP3   OH244293   1.068   3.749   4.921 -0.2327  0.3783  0.0283
 7601TIP3    H144294   1.084   3.744   4.826 -1.0762 -0.5034 -0.0808
 7601TIP3    H244295   1.082   3.841   4.943  3.3845  0.0576 -0.3236
 7602TIP3   OH244296   4.051   0.474  12.450  0.2870  0.4726  0.2828
 7602TIP3    H144297   3.971   0.443  12.492 -0.0352  0.4595 -0.3326
 7602TIP3    H244298   4.072   0.408  12.384  2.7824 -1.3906  2.7106
 7603TIP3   OH244299   1.247   6.495   4.990  0.2752 -0.2554 -0.0524
 7603TIP3    H144300   1.330   6.515   4.948  0.6929  1.4600  1.4556
 7603TIP3    H244301   1.261   6.409   5.031  0.7657 -0.6826 -1.0924
 7604TIP3   OH244302   6.089   5.503   3.110 -0.0570  0.0085  0.6716
 7604TIP3    H144303   6.156   5.534   3.048 -1.4702  1.1771 -0.3622
 7604TIP3    H244304   6.065   5.416   3.078  1.2748 -0.6498  1.3555
 7605TIP3   OH244305   0.354   2.369   5.717 -0.0720 -0.3882 -0.7563
 7605TIP3    H144306   0.296   2.357   5.792 -2.1845  0.2154 -2.2090
 7605TIP3    H244307   0.441   2.353   5.752 -1.0471 -0.9806  1.6201
 7606TIP3   OH244308   2.018   0.817   0.760  0.0587  0.4419 -0.4118
 7606TIP3    H144309   2.006   0.909   0.781  0.2423  0.1207  1.2258
 7606TIP3    H244310   2.088   0.787   0.819 -1.1873 -1.1376  0.3423
 7607TIP3   OH244311   6.590   0.312  13.612  0.0954 -0.2376 -0.5410
 7607TIP3    H144312   6.638   0.343  13.689 -1.8084  0.7483  0.3200
 7607TIP3    H244313   6.507   0.360  13.614 -0.2839 -0.6536 -2.8736
 7608TIP3   OH244314   5.422   2.912  15.089  0.2720  0.3931  0.0941
 7608TIP3    H144315   5.361   2.984  15.103  1.9251  1.9727 -0.4110
 7608TIP3    H244316   5.371   2.847  15.040 -1.8275  0.2982  2.2317
 7609TIP3   OH244317   2.448   2.138   2.598  0.3850 -0.2810  0.1610
 7609TIP3    H144318   2.503   2.065   2.569  1.0698 -0.0721  0.8922
 7609TIP3    H244319   2.430   2.119   2.690  1.1293  0.7983  0.5468
 7610TIP3   OH244320   3.090   4.356  13.687  0.4322  0.6598  0.7671
 7610TIP3    H144321   3.062   4.439  13.724 -0.0958 -0.0306  1.9697
 7610TIP3    H244322   3.149   4.380  13.615 -2.3855  2.1750 -1.2374
 7611TIP3   OH244323   3.247   3.937   0.688  0.3882 -0.1486 -0.4007
 7611TIP3    H144324   3.235   3.851   0.649 -0.1822  0.4973 -1.7081
 7611TIP3    H244325   3.289   3.920   0.772 -0.3569 -1.7459 -0.3177
 7612TIP3   OH244326   4.256   0.136  16.196  0.5113 -0.1009 -0.0671
 7612TIP3    H144327   4.168   0.101  16.180  0.8434 -0.3261 -1.6044
 7612TIP3    H244328   4.281   0.103  16.282 -1.4698  1.1482  1.0634
 7613TIP3   OH244329   0.120   0.637   1.310  0.2901 -0.0460  0.5303
 7613TIP3    H144330   0.201   0.611   1.354  0.9148 -1.7816 -1.4796
 7613TIP3    H244331   0.052   0.589   1.356  0.6011  0.1341  1.1929
 7614TIP3   OH244332   2.430   1.161   4.724 -0.3283 -0.1294  0.1326
 7614TIP3    H144333   2.398   1.187   4.810  1.1781  0.9879  0.3992
 7614TIP3    H244334   2.469   1.074   4.737  0.2250  0.1912  0.6841
 7615TIP3   OH244335   4.009   0.390   4.216 -0.0640  0.1330 -0.2077
 7615TIP3    H144336   3.948   0.455   4.181  0.6283  1.6309  1.2394
 7615TIP3    H244337   4.079   0.442   4.256  2.4081 -1.5254 -2.1329
 7616TIP3   OH244338   6.442   0.419  14.986  0.2538  0.2098  0.3407
 7616TIP3    H144339   6.421   0.373  14.905 -1.2424  0.8557  0.3233
 7616TIP3    H244340   6.448   0.350  15.052 -1.1396 -0.1085  0.1591
 7617TIP3   OH244341   3.801   4.442   0.656 -0.2309 -0.0943  0.0810
 7617TIP3    H144342   3.734   4.464   0.591 -0.3437 -0.1306  0.1839
 7617TIP3    H244343   3.753   4.395   0.724 -0.1308  0.0260  0.2356
 7618TIP3   OH244344   0.167   5.461  11.016 -0.0715 -0.4832 -0.4784
 7618TIP3    H144345   0.260   5.485  11.011  0.1026 -1.3930 -2.7986
 7618TIP3    H244346   0.120   5.538  10.985  0.0063 -0.5313 -0.7159
 7619TIP3   OH244347   2.013   3.429  12.954  0.1116  0.2821 -0.2053
 7619TIP3    H144348   2.087   3.372  12.976 -1.3664 -1.5663  0.2509
 7619TIP3    H244349   2.005   3.421  12.859 -1.2345 -1.8723  0.0328
 7620TIP3   OH244350   4.674   5.368  14.812 -0.4147  0.4935  0.2193
 7620TIP3    H144351   4.697   5.344  14.723  0.5774  2.7498 -0.2050
 7620TIP3    H244352   4.707   5.296  14.866 -0.6637 -0.7078 -1.1708
 7621TIP3   OH244353   3.504   4.176  12.345  0.3357 -0.5707  0.0250
 7621TIP3    H144354   3.518   4.147  12.436  0.9371 -0.4862 -0.0366
 7621TIP3    H244355   3.581   4.145  12.298 -1.1310 -2.8934 -1.0300
 7622TIP3   OH244356   0.267   2.007  16.343  0.0508  0.0544  0.2771
 7622TIP3    H144357   0.212   2.075  16.304 -0.8001 -0.9269 -0.2638
 7622TIP3    H244358   0.355   2.023  16.307 -0.4941 -0.1637 -1.1976
 7623TIP3   OH244359   1.434   2.060  13.789  0.3573 -0.3957  0.3072
 7623TIP3    H144360   1.464   2.068  13.698  0.2123 -0.6819  0.2319
 7623TIP3    H244361   1.481   2.129  13.836 -0.2122  0.3267 -0.1489
 7624TIP3   OH244362   3.521   6.042  11.062  0.1016  0.0464  0.1614
 7624TIP3    H144363   3.608   6.071  11.036 -0.7886  0.2724 -3.0241
 7624TIP3    H244364   3.499   6.096  11.138  2.4900  0.3047  0.7540
 7625TIP3   OH244365   1.377   1.659  16.513 -0.5125  0.3570  0.4182
 7625TIP3    H144366   1.312   1.589  16.511  0.9746 -1.3332  3.3519
 7625TIP3    H244367   1.347   1.717  16.583 -0.3652  1.1846 -0.1973
 7626TIP3   OH244368   3.327   2.486   2.003  0.6784 -0.1294 -0.2220
 7626TIP3    H144369   3.279   2.410   1.971  0.9159 -0.7856  0.9289
 7626TIP3    H244370   3.268   2.560   1.988  0.8601 -0.3623 -2.3135
 7627TIP3   OH244371   2.005   0.547  15.407  0.7372  0.2528 -0.4254
 7627TIP3    H144372   1.925   0.569  15.454  0.2160  1.6545 -1.8455
 7627TIP3    H244373   2.074   0.551  15.473 -0.4889 -2.6825  1.1951
 7628TIP3   OH244374   0.075   4.749  17.114  0.3871  0.0938  0.0136
 7628TIP3    H144375   0.166   4.741  17.084  1.1028  1.8516  1.5267
 7628TIP3    H244376   0.074   4.829  17.165 -2.0902  0.1953 -0.0865
 7629TIP3   OH244377   6.350   5.236  16.877 -0.0374  0.0768 -0.7940
 7629TIP3    H144378   6.445   5.235  16.880 -0.0080 -0.9011 -1.5288
 7629TIP3    H244379   6.323   5.196  16.959  0.1136  2.1659  0.3532
 7630TIP3   OH244380   5.923   6.117  14.950 -0.2938  0.1434 -0.0141
 7630TIP3    H144381   5.935   6.180  15.021 -0.6968 -0.6723  0.8073
 7630TIP3    H244382   5.829   6.105  14.943 -0.2515  0.1089 -0.6001
 7631TIP3   OH244383   6.071   3.107  14.688  0.3792  0.5241 -0.3620
 7631TIP3    H144384   6.159   3.146  14.694  0.0068  1.2304  0.9127
 7631TIP3    H244385   6.051   3.081  14.778 -0.5875  0.0661 -0.7006
 7632TIP3   OH244386   3.402   3.529   6.635  0.1618 -0.2868 -0.6579
 7632TIP3    H144387   3.307   3.535   6.631  0.0960 -0.2782  0.5149
 7632TIP3    H244388   3.426   3.471   6.563 -0.8430 -1.4043 -0.1245
 7633TIP3   OH244389   5.383   0.849  15.026 -0.0151  0.4273 -0.0798
 7633TIP3    H144390   5.325   0.901  14.972 -1.9095 -1.6531 -0.1908
 7633TIP3    H244391   5.362   0.874  15.116  0.8490  1.5653 -0.1722
 7634TIP3   OH244392   5.559   2.524  16.238  0.2230 -0.2463  0.1880
 7634TIP3    H144393   5.543   2.617  16.252 -4.0442 -0.7089 -0.3559
 7634TIP3    H244394   5.548   2.511  16.144 -0.6503 -1.4713  0.4365
 7635TIP3   OH244395   6.534   2.140   1.545  0.2450 -0.7686  0.5919
 7635TIP3    H144396   6.453   2.104   1.509 -1.0574  1.3608  1.1805
 7635TIP3    H244397   6.510   2.229   1.572  2.4385 -0.5668  2.1011
 7636TIP3   OH244398   3.396   4.669  14.495 -0.6291 -0.1145 -0.1427
 7636TIP3    H144399   3.455   4.681  14.420  0.4691 -1.2558  0.4982
 7636TIP3    H244400   3.319   4.627  14.458  0.2547 -1.4536 -0.5365
 7637TIP3   OH244401   2.729   1.448   3.900  0.4784 -0.4009 -0.3191
 7637TIP3    H144402   2.654   1.394   3.925  1.1162 -0.9333  0.4825
 7637TIP3    H244403   2.733   1.517   3.966  0.2438  0.0822 -0.7988
 7638TIP3   OH244404   6.394   3.592   3.361  0.5126  0.0753 -1.2055
 7638TIP3    H144405   6.350   3.674   3.338 -2.1698 -0.7463  0.4995
 7638TIP3    H244406   6.415   3.601   3.454  3.6629  0.2113 -1.8317
 7639TIP3   OH244407   4.370   1.879   5.933 -0.5701  0.1492 -0.2882
 7639TIP3    H144408   4.405   1.948   5.878 -0.0505 -0.0082 -0.1546
 7639TIP3    H244409   4.352   1.921   6.017 -1.4729  0.4164 -0.6068
 7640TIP3   OH244410   3.514   1.596   5.220  0.2541 -0.5423  0.6642
 7640TIP3    H144411   3.532   1.682   5.258 -0.2299 -0.5669  0.9519
 7640TIP3    H244412   3.522   1.535   5.292 -0.1006 -0.6545  0.6125
 7641TIP3   OH244413   0.734   4.748   4.983 -0.4362  0.4529 -0.6219
 7641TIP3    H144414   0.653   4.717   4.943  0.7314 -1.9595 -1.2972
 7641TIP3    H244415   0.725   4.726   5.076 -1.0132  1.3234 -0.4547
 7642TIP3   OH244416   0.025   2.588  16.023 -0.2681 -0.1002  0.2137
 7642TIP3    H144417  -0.034   2.525  16.065  0.4292 -0.2209  1.0330
 7642TIP3    H244418   0.033   2.659  16.086  0.9926 -0.3969  0.4173
 7643TIP3   OH244419   1.391   6.644  14.783  0.5002  0.3807  0.4442
 7643TIP3    H144420   1.326   6.596  14.834 -0.1895  1.1491  0.3183
 7643TIP3    H244421   1.445   6.577  14.742 -0.2707 -0.2706  0.4796
 7644TIP3   OH244422   1.173   6.536  11.047  0.2467 -0.4139  0.0507
 7644TIP3    H144423   1.169   6.542  10.952  1.1416 -0.3007  0.0154
 7644TIP3    H244424   1.086   6.565  11.076  0.9996  2.8921 -0.5935
 7645TIP3   OH244425   2.974   0.221  16.443 -0.0714  0.2374  0.0489
 7645TIP3    H144426   3.018   0.162  16.381  0.2144  1.1446 -0.6273
 7645TIP3    H244427   2.893   0.246  16.397 -0.9487 -0.8011  0.9609
 7646TIP3   OH244428   1.249   2.444   3.646  0.3148  0.6813 -0.2249
 7646TIP3    H144429   1.189   2.373   3.624  0.3539  0.7215 -0.4622
 7646TIP3    H244430   1.254   2.497   3.567 -0.0558  1.1974  0.0909
 7647TIP3   OH244431   1.927   1.207  14.018  0.0837  0.0707  0.0581
 7647TIP3    H144432   2.012   1.167  14.039 -0.0023  0.2671  0.7883
 7647TIP3    H244433   1.928   1.216  13.923  0.2696 -1.3011 -0.0798
 7648TIP3   OH244434   3.458   0.060   1.522  0.0856  0.0845  0.4155
 7648TIP3    H144435   3.446   0.019   1.437 -0.6788  1.8043 -0.3674
 7648TIP3    H244436   3.498  -0.007   1.576 -0.7637 -1.5286 -0.8730
 7649TIP3   OH244437   3.275   6.200   6.846  0.5226 -0.3357  0.4099
 7649TIP3    H144438   3.270   6.107   6.872  1.4959 -0.6648 -0.5479
 7649TIP3    H244439   3.356   6.207   6.796  0.2555  0.9628  0.1306
 7650TIP3   OH244440   5.360   5.019  11.972 -0.3109 -0.0948  0.3421
 7650TIP3    H144441   5.266   5.012  11.956 -0.0322 -2.7484 -0.4911
 7650TIP3    H244442   5.369   5.015  12.067 -0.9444 -2.5523  0.3588
 7651TIP3   OH244443   0.650   1.945  14.336 -0.6269 -0.1503 -0.1540
 7651TIP3    H144444   0.655   1.855  14.367  0.2797  0.8372  2.9506
 7651TIP3    H244445   0.558   1.969  14.346 -0.9876 -0.8673 -1.5621
 7652TIP3   OH244446   4.159   1.425  12.416 -0.0442  0.0331 -0.5842
 7652TIP3    H144447   4.157   1.513  12.377  1.2928  0.2186 -0.2649
 7652TIP3    H244448   4.164   1.440  12.510  1.0601 -0.3609 -0.5647
 7653TIP3   OH244449   5.135   4.582  11.559 -0.1542  0.1774  0.0080
 7653TIP3    H144450   5.065   4.579  11.624 -0.4792 -1.6961 -0.3775
 7653TIP3    H244451   5.093   4.618  11.480 -0.4775 -0.1673  0.0216
 7654TIP3   OH244452   3.357   5.373  12.455 -0.0752 -0.2553  0.3211
 7654TIP3    H144453   3.444   5.410  12.438  0.6187 -1.9800 -0.1025
 7654TIP3    H244454   3.369   5.324  12.537 -0.6902 -0.3767  0.3370
 7655TIP3   OH244455   5.703   0.238   2.196 -0.2363 -0.3273  0.5737
 7655TIP3    H144456   5.738   0.200   2.277 -0.7129 -0.3799  0.7572
 7655TIP3    H244457   5.617   0.273   2.221  0.6794  1.9727  0.7161
 7656TIP3   OH244458   1.853   2.385  12.548 -0.2382 -0.0476  0.6161
 7656TIP3    H144459   1.937   2.342  12.561  0.7152  1.8388  1.0823
 7656TIP3    H244460   1.824   2.356  12.462  0.9330 -0.6696  0.4150
 7657TIP3   OH244461   4.528   3.187   1.235 -0.3715 -0.6236  0.0169
 7657TIP3    H144462   4.574   3.156   1.313  2.4825 -1.2920 -1.7631
 7657TIP3    H244463   4.476   3.112   1.206 -0.5671 -0.7369  0.6550
 7658TIP3   OH244464   5.553   2.747   4.383  0.6393 -0.3815 -0.0029
 7658TIP3    H144465   5.523   2.830   4.346 -1.8896 -1.1644  0.0873
 7658TIP3    H244466   5.618   2.715   4.322  0.4883  0.9036 -0.8765
 7659TIP3   OH244467   1.686   5.393   5.182  0.0654  0.0371 -0.1204
 7659TIP3    H144468   1.665   5.439   5.101 -1.1761  1.0268  0.7039
 7659TIP3    H244469   1.741   5.454   5.231 -1.1375  0.4949  0.7464
 7660TIP3   OH244470   2.959   0.313  15.501  0.4118  0.2256  0.0714
 7660TIP3    H144471   2.899   0.373  15.544  0.8665  0.9366 -0.2669
 7660TIP3    H244472   2.931   0.226  15.530 -0.7042  0.5455  0.0027
 7661TIP3   OH244473   3.608   6.451   5.706 -0.8420 -0.1188 -0.6257
 7661TIP3    H144474   3.689   6.471   5.659 -0.9836  1.8333 -0.1058
 7661TIP3    H244475   3.602   6.518   5.774 -2.8026 -0.3271 -0.5389
 7662TIP3   OH244476   6.681   4.485   3.836  0.0414 -0.0014 -0.1114
 7662TIP3    H144477   6.730   4.442   3.766 -0.0678  0.0913 -0.2471
 7662TIP3    H244478   6.590   4.483   3.806  0.1858  1.4760 -0.7313
 7663TIP3   OH244479   3.051   0.164  13.937  0.2424  0.9966  0.2915
 7663TIP3    H144480   3.137   0.198  13.911  0.8636 -1.1555 -0.6947
 7663TIP3    H244481   3.062   0.140  14.029  0.5291  1.2899  0.3344
 7664TIP3   OH244482   4.402   1.630  11.561 -0.1542  0.2219  0.5755
 7664TIP3    H144483   4.429   1.701  11.620 -1.3696  2.2447 -1.1776
 7664TIP3    H244484   4.443   1.651  11.478 -2.3764  0.1721 -0.5967
 7665TIP3   OH244485   6.760   4.229  16.451  0.1476 -0.3968  0.1021
 7665TIP3    H144486   6.747   4.323  16.464  0.3500 -0.2781 -0.5586
 7665TIP3    H244487   6.708   4.189  16.521  1.5876  0.2383  1.6001
 7666TIP3   OH244488   5.710   3.553   4.536  0.1985  0.0572 -0.2284
 7666TIP3    H144489   5.786   3.529   4.588  1.0772 -0.2125 -1.5859
 7666TIP3    H244490   5.737   3.631   4.488 -0.0910 -0.4693 -1.2862
 7667TIP3   OH244491   2.356   4.886  14.735 -0.2012  0.1817 -0.1201
 7667TIP3    H144492   2.443   4.849  14.720  0.1361  1.6881 -2.2514
 7667TIP3    H244493   2.296   4.825  14.692 -0.3773 -1.2774  2.0057
 7668TIP3   OH244494   1.711   2.321   0.274  0.1239  0.0080  0.0659
 7668TIP3    H144495   1.802   2.330   0.304 -0.7323  0.6628  2.8222
 7668TIP3    H244496   1.685   2.234   0.305 -0.4250  0.1841  0.1108
 7669TIP3   OH244497   4.174   1.387  13.648 -0.3040 -0.8078  0.0691
 7669TIP3    H144498   4.171   1.429  13.734 -0.3394  0.2165 -0.4210
 7669TIP3    H244499   4.180   1.294  13.668  1.2286 -0.5064  1.1965
 7670TIP3   OH244500   3.791   2.622  12.532  0.2275  0.0217 -0.2458
 7670TIP3    H144501   3.725   2.690  12.546 -1.1229 -0.8825 -1.9621
 7670TIP3    H244502   3.756   2.545  12.576 -0.5543 -0.8299 -2.2660
 7671TIP3   OH244503   1.356   4.225  16.017 -0.0400  0.2339 -0.4989
 7671TIP3    H144504   1.362   4.264  15.930  1.8668 -0.1708 -0.5804
 7671TIP3    H244505   1.409   4.145  16.012 -0.3218 -0.0743  0.8880
 7672TIP3   OH244506   2.737   5.123   3.899 -0.5660 -0.3562  0.3253
 7672TIP3    H144507   2.795   5.070   3.844  0.2313  0.0427  0.7706
 7672TIP3    H244508   2.773   5.211   3.893 -0.7461 -0.2231  1.1137
 7673TIP3   OH244509   0.176   4.780  12.718 -0.0321  0.0201  0.1778
 7673TIP3    H144510   0.130   4.714  12.666 -1.5207  1.2966 -0.2003
 7673TIP3    H244511   0.125   4.789  12.798  0.7547 -0.0145  0.7032
 7674TIP3   OH244512   3.404   2.888  11.170 -0.6315 -0.3126 -0.0978
 7674TIP3    H144513   3.447   2.891  11.255 -1.2117  0.3095  0.1817
 7674TIP3    H244514   3.441   2.963  11.122 -1.3030  0.1588  0.1053
 7675TIP3   OH244515   2.871   3.176   3.852  0.1274 -0.1062  0.2109
 7675TIP3    H144516   2.922   3.181   3.771  1.3523 -0.5660  0.9091
 7675TIP3    H244517   2.860   3.267   3.880 -0.6712  0.0782 -0.6798
 7676TIP3   OH244518   2.616   0.247  13.406  0.5360  0.0772  0.0904
 7676TIP3    H144519   2.575   0.310  13.465  1.5930 -0.2584  1.2289
 7676TIP3    H244520   2.573   0.261  13.322  0.5316  2.1261  0.3842
 7677TIP3   OH244521   2.703   0.163   2.059  0.4993 -0.2054 -0.1792
 7677TIP3    H144522   2.744   0.097   2.115  0.0391  0.2815  0.7518
 7677TIP3    H244523   2.774   0.222   2.035  0.5706 -0.0103  0.4902
 7678TIP3   OH244524   6.822   6.453   0.837  0.2587 -0.2001 -0.2499
 7678TIP3    H144525   6.893   6.402   0.798  1.4702 -0.3402  1.9828
 7678TIP3    H244526   6.779   6.392   0.897 -0.4881  0.4488 -0.1143
 7679TIP3   OH244527   2.330   4.973  15.450  0.1796  0.4069 -0.1050
 7679TIP3    H144528   2.354   4.914  15.522 -0.3405  1.0038  0.5806
 7679TIP3    H244529   2.252   5.019  15.482 -0.3538  0.3315 -1.2601
 7680TIP3   OH244530   2.672   3.230  11.716 -0.4149 -0.2313 -0.5360
 7680TIP3    H144531   2.676   3.318  11.680  0.2375 -0.4193 -0.9562
 7680TIP3    H244532   2.580   3.206  11.712 -0.6850  0.6652  0.1677
 7681TIP3   OH244533   1.236   1.955  11.822 -0.2613  0.3550 -0.3465
 7681TIP3    H144534   1.198   1.916  11.900  0.9055 -1.6812 -0.7178
 7681TIP3    H244535   1.184   1.921  11.750  1.3543 -1.4344 -0.7518
 7682TIP3   OH244536   4.053   4.245   2.787  0.1622 -0.0466  0.1640
 7682TIP3    H144537   4.043   4.338   2.767 -0.0220  0.2096  1.3824
 7682TIP3    H244538   4.147   4.231   2.793  0.1929  0.0339 -0.0924
 7683TIP3   OH244539   0.477   6.188  15.198  0.2473 -0.6269 -0.2019
 7683TIP3    H144540   0.550   6.249  15.205 -0.2520  0.3706 -2.8205
 7683TIP3    H244541   0.517   6.101  15.200  1.3369 -0.1238 -0.0436
 7684TIP3   OH244542   6.764   1.761   6.533 -0.0425  0.1903  0.3088
 7684TIP3    H144543   6.833   1.786   6.472  0.3629 -2.2895 -0.3559
 7684TIP3    H244544   6.765   1.666   6.533 -2.4690  0.0814  1.4522
 7685TIP3   OH244545   5.003   2.615   3.058  0.0114 -0.3921 -0.2682
 7685TIP3    H144546   4.922   2.621   3.008 -0.0123 -1.4240 -0.3645
 7685TIP3    H244547   5.050   2.541   3.020 -0.0621 -1.2914  1.3276
 7686TIP3   OH244548   4.811   6.809   3.154  0.0249 -0.2621 -0.3836
 7686TIP3    H144549   4.794   6.821   3.247 -1.4772 -0.6423 -0.5774
 7686TIP3    H244550   4.811   6.897   3.117  2.3011  0.0345  0.2007
 7687TIP3   OH244551   2.204   0.300  11.996  0.4128  0.3061 -1.0269
 7687TIP3    H144552   2.275   0.293  11.933  0.3771 -1.2802 -0.9114
 7687TIP3    H244553   2.124   0.291  11.943  0.3504  0.1171 -0.9000
 7688TIP3   OH244554   2.897   4.752  13.268  0.0141  0.9851 -0.1043
 7688TIP3    H144555   2.925   4.727  13.180  0.7708  3.1976 -0.5647
 7688TIP3    H244556   2.978   4.763  13.317 -0.3205  1.4592  0.3564
 7689TIP3   OH244557   0.508   4.571  15.327 -0.3088 -0.2790 -0.2676
 7689TIP3    H144558   0.555   4.600  15.405 -1.2467  0.7960 -0.0785
 7689TIP3    H244559   0.416   4.593  15.345 -1.0764 -3.1478 -0.2257
 7690TIP3   OH244560   6.618   3.067   4.187  0.3780 -0.1393  0.4930
 7690TIP3    H144561   6.594   3.148   4.231  0.6693 -0.3654  1.0944
 7690TIP3    H244562   6.606   3.084   4.094 -1.4009 -0.0200  0.7165
 7691TIP3   OH244563   4.152   3.325   5.284 -0.0461 -0.2583 -0.1250
 7691TIP3    H144564   4.237   3.280   5.284 -0.2094 -0.6325  1.6200
 7691TIP3    H244565   4.111   3.299   5.367 -0.6109  2.2490  0.4575
 7692TIP3   OH244566   5.757   4.729   1.751 -0.0492  0.2108 -0.4879
 7692TIP3    H144567   5.839   4.708   1.795 -0.3673  0.8770  0.4683
 7692TIP3    H244568   5.734   4.650   1.703  1.4679  0.2235 -1.2848
 7693TIP3   OH244569   4.916   2.135  11.009 -0.0420  0.3913  0.2941
 7693TIP3    H144570   4.894   2.044  10.987  1.9294 -0.6356  2.1439
 7693TIP3    H244571   4.835   2.184  10.993 -1.0156 -1.5725 -1.2343
 7694TIP3   OH244572   5.171   5.326  12.235  0.0936  0.0857 -0.0149
 7694TIP3    H144573   5.261   5.305  12.208  1.2429  1.8983  2.0151
 7694TIP3    H244574   5.173   5.420  12.251 -2.7433  0.5236 -1.6811
 7695TIP3   OH244575   2.903   3.560   5.628  0.2584  0.3455 -0.6514
 7695TIP3    H144576   2.986   3.519   5.604  0.7090  1.8707 -1.8454
 7695TIP3    H244577   2.861   3.496   5.686  0.8027 -1.9197 -2.5779
 7696TIP3   OH244578   1.062   3.061   1.317 -0.5825 -0.4365  0.0888
 7696TIP3    H144579   1.039   2.996   1.250  1.9611 -1.6612  0.2703
 7696TIP3    H244580   1.121   3.122   1.273  0.1773 -0.5725  0.8823
 7697TIP3   OH244581   6.270   1.172   3.076  0.0663 -0.0202  0.3343
 7697TIP3    H144582   6.300   1.252   3.032  0.5665 -1.0186 -1.2391
 7697TIP3    H244583   6.268   1.194   3.169  0.8322  1.6130 -0.0109
 7698TIP3   OH244584   6.202   4.944   5.433  0.1086 -0.0873 -0.4408
 7698TIP3    H144585   6.262   4.874   5.406 -0.7521 -0.2720 -2.0490
 7698TIP3    H244586   6.122   4.898   5.459 -0.0000  0.2346 -0.2032
 7699TIP3   OH244587   4.439   5.920  14.535  0.5542  0.8122  1.2032
 7699TIP3    H144588   4.491   5.983  14.485  0.7450 -0.2467  0.0190
 7699TIP3    H244589   4.498   5.845  14.547 -0.2159  0.1795  1.1178
 7700TIP3   OH244590   4.564   3.405   1.072  0.3528 -0.9284 -0.2368
 7700TIP3    H144591   4.652   3.378   1.048 -0.0697 -0.6714 -2.1715
 7700TIP3    H244592   4.528   3.330   1.120  1.9496 -0.6269  1.5671
 7701TIP3   OH244593   6.419   6.405  16.404 -0.4979 -0.0932 -0.4567
 7701TIP3    H144594   6.416   6.343  16.476 -1.5085  1.2333  0.7079
 7701TIP3    H244595   6.510   6.404  16.374 -0.2198 -1.1559  0.3737
 7702TIP3   OH244596   3.704   5.772   3.887 -0.2476 -0.3296 -0.6154
 7702TIP3    H144597   3.623   5.724   3.869 -2.1515  2.1473  0.5900
 7702TIP3    H244598   3.731   5.740   3.973 -1.0863  0.1204 -0.1575
 7703TIP3   OH244599   1.352   5.192  15.593  0.4337 -0.4470 -0.1042
 7703TIP3    H144600   1.388   5.281  15.600  2.2679 -1.0475 -1.3731
 7703TIP3    H244601   1.363   5.156  15.681 -0.8143  0.7243  0.5710
 7704TIP3   OH244602   2.815   5.492   6.141 -0.0913  0.1578  0.2190
 7704TIP3    H144603   2.758   5.470   6.214  0.6058 -0.6861  0.5295
 7704TIP3    H244604   2.755   5.508   6.068 -0.7480 -0.1722  0.6745
 7705TIP3   OH244605   4.149   0.564  11.047 -0.4264 -0.1169  0.3225
 7705TIP3    H144606   4.238   0.588  11.019  0.2368 -1.2048  1.3682
 7705TIP3    H244607   4.134   0.618  11.125 -0.7056  0.0994  0.1180
 7706TIP3   OH244608   6.322   6.641  15.238  0.0842  0.2202  0.3822
 7706TIP3    H144609   6.375   6.607  15.310 -1.5208  0.2508  1.6393
 7706TIP3    H244610   6.291   6.727  15.269 -4.0361 -1.4437  1.5932
 7707TIP3   OH244611   0.389   4.040   5.175 -0.5523 -0.4820  0.7126
 7707TIP3    H144612   0.329   4.113   5.159  1.5320  1.3079  0.6388
 7707TIP3    H244613   0.364   3.974   5.111  0.0147  1.7845 -2.0457
 7708TIP3   OH244614   1.715   3.470  15.046 -0.0484 -0.0601  0.4273
 7708TIP3    H144615   1.626   3.439  15.030 -1.0423  1.9754  1.5508
 7708TIP3    H244616   1.725   3.465  15.142 -0.0601  2.3164  0.6215
 7709TIP3   OH244617   5.809   4.900  10.579  0.3263  0.0862 -0.1340
 7709TIP3    H144618   5.758   4.962  10.527  0.6842  0.7110  0.2339
 7709TIP3    H244619   5.750   4.826  10.594 -0.6607  1.0076  0.7201
 7710TIP3   OH244620   6.488   0.596   5.632 -0.0618 -0.1396  0.2067
 7710TIP3    H144621   6.547   0.611   5.706  0.4452 -0.2986 -0.1660
 7710TIP3    H244622   6.484   0.679   5.586  0.4383 -0.3280 -0.1795
 7711TIP3   OH244623   3.702   2.301  14.451  0.2698  0.5162 -0.1382
 7711TIP3    H144624   3.723   2.393  14.436 -0.7685  0.6605 -0.7960
 7711TIP3    H244625   3.618   2.303  14.498  0.3151 -0.0858 -0.0243
 7712TIP3   OH244626   6.209   5.602  13.913 -1.2401  0.1940 -0.2896
 7712TIP3    H144627   6.153   5.555  13.974  0.4662 -0.4388  0.8929
 7712TIP3    H244628   6.267   5.534  13.878  1.1170  1.2711  1.2668
 7713TIP3   OH244629   4.065   4.154   1.205  0.1788  0.1230 -0.1954
 7713TIP3    H144630   4.060   4.223   1.271 -0.8874 -1.0797  1.0167
 7713TIP3    H244631   4.139   4.180   1.150  0.0832  1.9926  0.4799
 7714TIP3   OH244632   3.006   2.184  10.649 -0.1632 -0.0044 -0.1552
 7714TIP3    H144633   3.016   2.276  10.622  0.3797  0.6371  2.0467
 7714TIP3    H244634   2.911   2.170  10.651 -0.2489 -0.1286 -2.3113
 7715TIP3   OH244635   4.261   4.360   3.509 -0.0282 -0.1159 -0.1491
 7715TIP3    H144636   4.208   4.356   3.588  1.0214 -0.7626  0.5518
 7715TIP3    H244637   4.352   4.354   3.541  0.6534  3.1293 -1.0961
 7716TIP3   OH244638   2.694   3.242   1.024  0.1439  0.0656 -0.1225
 7716TIP3    H144639   2.689   3.330   1.062  0.3378  0.4242 -0.9112
 7716TIP3    H244640   2.787   3.222   1.022  0.0516 -0.7027  1.2251
 7717TIP3   OH244641   4.305   1.454  15.179  0.0614 -0.4300  0.1756
 7717TIP3    H144642   4.236   1.435  15.115  0.0590  0.1293 -0.0004
 7717TIP3    H244643   4.363   1.515  15.134  0.2940 -0.3615  0.5605
 7718TIP3   OH244644   1.469   2.971  12.632 -0.1605  0.5041  0.1234
 7718TIP3    H144645   1.558   2.979  12.668 -0.1476  0.3919  0.1172
 7718TIP3    H244646   1.482   2.936  12.544 -0.0714  2.3078 -0.6426
 7719TIP3   OH244647   2.263   6.702   3.639 -0.0783  0.0950 -0.2792
 7719TIP3    H144648   2.273   6.618   3.684  0.9253 -1.2450 -2.7957
 7719TIP3    H244649   2.188   6.689   3.581 -0.8621  1.5151  0.3474
 7720TIP3   OH244650   4.768   3.559   4.166 -0.3288 -0.4534 -0.9213
 7720TIP3    H144651   4.724   3.590   4.245 -0.4120 -0.7192 -0.8623
 7720TIP3    H244652   4.698   3.546   4.103 -0.2602 -0.2264 -1.0436
 7721TIP3   OH244653   4.566   0.074  16.314 -0.0194 -0.3476  0.2972
 7721TIP3    H144654   4.537   0.043  16.228 -0.1530  1.9341 -0.5334
 7721TIP3    H244655   4.637   0.135  16.295 -0.7028  0.9522  1.7179
 7722TIP3   OH244656   1.767   4.386   0.634 -0.1255  0.1347  0.1541
 7722TIP3    H144657   1.727   4.303   0.658  1.7054 -0.6286  0.7425
 7722TIP3    H244658   1.731   4.407   0.548  0.1904 -1.8058 -0.4800
 7723TIP3   OH244659   0.657   1.678  14.396 -0.3862  0.3769 -0.2791
 7723TIP3    H144660   0.612   1.594  14.402  1.6591 -0.6536  2.0845
 7723TIP3    H244661   0.735   1.668  14.450 -0.2515  3.9374  0.4442
 7724TIP3   OH244662   6.008   3.470  10.951  0.6538 -0.5449  0.3646
 7724TIP3    H144663   6.006   3.404  10.882  1.1920 -0.1569 -0.0336
 7724TIP3    H244664   6.097   3.466  10.986  1.1104  0.8892 -0.5860
 7725TIP3   OH244665   4.643   3.920   0.058  0.1622  0.4349  0.5278
 7725TIP3    H144666   4.726   3.958   0.086  0.6816  0.2913 -0.7383
 7725TIP3    H244667   4.587   3.996   0.040 -0.5893  0.5355  2.9750
 7726TIP3   OH244668   6.021   4.217   4.438 -0.1490  0.1418 -0.2173
 7726TIP3    H144669   6.087   4.279   4.407  0.0863 -0.5990 -1.2364
 7726TIP3    H244670   6.042   4.204   4.531  1.7316 -0.7640 -0.7123
 7727TIP3   OH244671   2.559   3.071   4.527 -0.4944 -0.2184 -0.1153
 7727TIP3    H144672   2.468   3.082   4.552 -0.3832 -3.7334  2.6357
 7727TIP3    H244673   2.556   3.025   4.443 -1.2762 -0.3959  0.0026
 7728TIP3   OH244674   0.567   1.911  11.645  0.2636 -0.4867  0.4363
 7728TIP3    H144675   0.525   1.932  11.561 -0.4220 -0.6574  0.7320
 7728TIP3    H244676   0.509   1.948  11.711 -0.1666 -1.9465  0.9110
 7729TIP3   OH244677   1.829   2.851  16.286  0.1429 -0.3459 -0.2336
 7729TIP3    H144678   1.768   2.803  16.230  1.4328 -1.3337 -0.8218
 7729TIP3    H244679   1.805   2.943  16.274 -0.8079 -0.6729 -0.9471
 7730TIP3   OH244680   5.607   5.718  15.704 -0.1845  0.0442 -0.2796
 7730TIP3    H144681   5.577   5.678  15.623 -1.2131 -1.2870  0.7013
 7730TIP3    H244682   5.536   5.776  15.731 -0.6954 -0.9243  0.5701
 7731TIP3   OH244683   4.580   2.852  13.122  0.0631 -0.0128  0.4335
 7731TIP3    H144684   4.601   2.933  13.077  0.5114 -0.4938 -0.2454
 7731TIP3    H244685   4.663   2.822  13.160  0.1377 -0.7242 -0.2750
 7732TIP3   OH244686   1.129   0.870   4.219  0.1542  0.2042  0.2619
 7732TIP3    H144687   1.142   0.902   4.309 -1.0012  0.1236  0.4678
 7732TIP3    H244688   1.043   0.904   4.194  0.3022 -0.0961 -0.6831
 7733TIP3   OH244689   3.379   2.099   1.184  0.2696 -0.0333  0.0280
 7733TIP3    H144690   3.471   2.117   1.202 -0.2082  0.8197  1.8459
 7733TIP3    H244691   3.376   2.082   1.090  2.1918  0.5090 -0.1740
 7734TIP3   OH244692   1.971   0.342  16.856 -0.2593  0.3484  0.0377
 7734TIP3    H144693   1.987   0.308  16.768 -0.4870  1.2632 -0.3644
 7734TIP3    H244694   2.043   0.306  16.909 -0.1195 -0.1988 -0.5199
 7735TIP3   OH244695   5.371   4.282  15.468 -0.1375 -0.0007 -0.4789
 7735TIP3    H144696   5.331   4.214  15.415 -0.1176 -0.3302 -0.0723
 7735TIP3    H244697   5.431   4.236  15.527  2.1409  0.5959 -2.1857
 7736TIP3   OH244698   1.920   3.933   4.312 -0.1586 -0.2703 -0.0627
 7736TIP3    H144699   1.881   4.015   4.281  0.2623 -0.5256 -1.3620
 7736TIP3    H244700   1.962   3.955   4.395 -0.2596  0.7665 -0.2770
 7737TIP3   OH244701   3.420   4.856  13.524 -0.6529 -0.1647  0.3258
 7737TIP3    H144702   3.427   4.856  13.620  1.8212 -0.5832  0.2052
 7737TIP3    H244703   3.430   4.948  13.500 -0.6240 -0.1409  0.4301
 7738TIP3   OH244704   0.896   2.225   0.710 -0.2875  0.1752 -0.2452
 7738TIP3    H144705   0.948   2.298   0.676  0.4966 -0.4977 -0.5163
 7738TIP3    H244706   0.805   2.257   0.706  0.0602  1.2070 -0.1526
 7739TIP3   OH244707   2.106   3.630   1.734  0.3048  0.6194  0.6558
 7739TIP3    H144708   2.017   3.659   1.717  0.4846  1.1473  0.5977
 7739TIP3    H244709   2.097   3.561   1.800 -0.5651 -2.5324 -2.4397
 7740TIP3   OH244710   1.262   0.195   5.399 -0.1381 -0.3125  0.2412
 7740TIP3    H144711   1.313   0.122   5.433  1.2733  1.1971  1.5895
 7740TIP3    H244712   1.278   0.194   5.305  1.8661 -0.3230  0.5370
 7741TIP3   OH244713   5.743   6.467  13.778  0.2112 -0.0874  0.0368
 7741TIP3    H144714   5.666   6.428  13.819  0.4851 -0.7513 -0.0558
 7741TIP3    H244715   5.762   6.409  13.704  0.6845  0.1833 -0.0577
 7742TIP3   OH244716   0.614   0.660  16.041  0.0177 -0.1443  0.4582
 7742TIP3    H144717   0.557   0.631  16.112  0.6501 -0.1994  0.9623
 7742TIP3    H244718   0.665   0.731  16.080  0.2773 -0.0861  0.0163
 7743TIP3   OH244719   1.096   5.634   1.992  0.1150 -0.0242 -0.9457
 7743TIP3    H144720   1.042   5.598   1.922 -0.4347 -0.8328 -0.1220
 7743TIP3    H244721   1.046   5.618   2.072  1.2204 -0.0970 -0.2424
 7744TIP3   OH244722   5.581   5.505   1.403  0.6864  0.7460  1.1917
 7744TIP3    H144723   5.595   5.494   1.497  1.2106  0.2193  1.0622
 7744TIP3    H244724   5.553   5.418   1.374  1.8879  0.5197  0.6405
 7745TIP3   OH244725   0.753   5.058  13.828  0.0900 -0.0004  0.6086
 7745TIP3    H144726   0.737   5.152  13.822 -1.4152 -0.3191 -1.0752
 7745TIP3    H244727   0.837   5.045  13.784  0.3720  0.5711  0.9765
 7746TIP3   OH244728   4.637   1.017  14.274 -0.0414 -0.5128  0.4560
 7746TIP3    H144729   4.556   0.993  14.320  0.5637 -0.0612  1.7960
 7746TIP3    H244730   4.670   1.094  14.320  0.5775  0.0054 -0.7862
 7747TIP3   OH244731   5.708   5.370  11.432  0.1416  0.1773 -0.1412
 7747TIP3    H144732   5.699   5.464  11.423 -1.6704  0.1200  0.6808
 7747TIP3    H244733   5.724   5.338  11.343  1.8346  1.3220 -0.2875
 7748TIP3   OH244734   0.323   3.424  14.730  0.3450 -0.6014  0.2819
 7748TIP3    H144735   0.379   3.399  14.657  0.6942  2.4482 -0.6170
 7748TIP3    H244736   0.383   3.462  14.795 -0.2942 -0.5715  0.8669
 7749TIP3   OH244737   1.019   3.461   2.529  0.3248 -0.0025 -0.3828
 7749TIP3    H144738   0.946   3.408   2.497  1.4745 -2.8787  1.3506
 7749TIP3    H244739   0.997   3.480   2.621  0.0425  2.5377 -0.8823
 7750TIP3   OH244740   4.808   1.478   1.741 -0.0076  0.4649  0.1379
 7750TIP3    H144741   4.822   1.497   1.648  0.1704  0.1057  0.0869
 7750TIP3    H244742   4.866   1.404   1.758 -0.3293  0.2849  0.4417
 7751TIP3   OH244743   5.422   5.469   0.806 -0.3814  0.0161 -0.2048
 7751TIP3    H144744   5.449   5.560   0.820 -1.7277  0.0870  2.8454
 7751TIP3    H244745   5.503   5.421   0.791  0.5178  1.4931 -0.2256
 7752TIP3   OH244746   3.491   0.996   1.916  0.0893 -0.1098  1.1567
 7752TIP3    H144747   3.545   0.979   1.838 -1.7026  1.5500 -0.5589
 7752TIP3    H244748   3.511   1.086   1.940 -1.0687  0.1678  1.1506
 7753TIP3   OH244749   5.256   2.242  13.789 -0.1547 -0.3053  0.0633
 7753TIP3    H144750   5.274   2.331  13.818 -0.7445 -0.5502  1.2386
 7753TIP3    H244751   5.276   2.188  13.865  0.5910 -1.2378 -0.7620
 7754TIP3   OH244752   5.078   3.167   4.636 -0.5108  0.0942 -0.1796
 7754TIP3    H144753   5.033   3.217   4.704 -0.1210 -1.2582  1.1451
 7754TIP3    H244754   5.167   3.203   4.636 -0.6046  0.3294 -0.2199
 7755TIP3   OH244755   3.968   5.002   3.591 -0.5314 -0.1876 -0.2637
 7755TIP3    H144756   3.994   5.094   3.587  2.5365 -0.8981  0.6129
 7755TIP3    H244757   3.974   4.972   3.500  0.6300  0.0005 -0.2699
 7756TIP3   OH244758   1.375   2.375  11.139  0.0483  0.3613 -0.2788
 7756TIP3    H144759   1.450   2.327  11.102 -0.6881 -0.3267 -0.9092
 7756TIP3    H244760   1.400   2.392  11.230  1.2319  0.6955 -0.6474
 7757TIP3   OH244761   2.373   4.134   1.184  0.3458  0.2874 -0.1623
 7757TIP3    H144762   2.399   4.222   1.156  1.1304  0.3751  0.7716
 7757TIP3    H244763   2.320   4.150   1.262 -0.2623 -0.0344 -0.5054
 7758TIP3   OH244764   0.948   0.514   0.688 -0.4470 -0.2794 -0.4528
 7758TIP3    H144765   1.035   0.481   0.709 -0.7737 -0.0530  1.4404
 7758TIP3    H244766   0.955   0.609   0.696 -1.0629 -0.3055  0.7163
 7759TIP3   OH244767   0.423   4.085  11.707 -0.1124 -0.1338  0.1130
 7759TIP3    H144768   0.513   4.115  11.692  1.0164 -2.9721  0.5285
 7759TIP3    H244769   0.398   4.126  11.790 -0.2129  2.6642 -1.2236
 7760TIP3   OH244770   0.846   3.937   0.263 -0.3144 -0.1293 -0.4108
 7760TIP3    H144771   0.922   3.932   0.204  0.0170  0.8602 -0.0884
 7760TIP3    H244772   0.859   4.018   0.312 -0.6272 -0.8761  0.9708
 7761TIP3   OH244773   0.793   0.364   6.100  0.5215  0.7930 -0.3645
 7761TIP3    H144774   0.776   0.432   6.034  0.2465  1.6902  0.6130
 7761TIP3    H244775   0.726   0.378   6.166 -0.9920 -1.8653 -1.1821
 7762TIP3   OH244776   6.581   3.755  15.510  0.1959 -0.0018 -0.4547
 7762TIP3    H144777   6.624   3.670  15.521 -0.9431 -0.5102  0.2774
 7762TIP3    H244778   6.550   3.754  15.419 -0.7460 -0.8487 -0.1475
 7763TIP3   OH244779   2.294   3.807   6.258 -0.6436 -0.0971 -0.0443
 7763TIP3    H144780   2.273   3.828   6.349 -0.0563  0.5348 -0.0472
 7763TIP3    H244781   2.323   3.716   6.261  1.6947  0.5895  0.8236
 7764TIP3   OH244782   1.011   5.555   5.799 -0.2731 -0.3960  0.4001
 7764TIP3    H144783   1.106   5.553   5.798 -0.2714 -0.2463 -1.0506
 7764TIP3    H244784   0.988   5.637   5.842  0.3105  1.2225 -2.1928
 7765TIP3   OH244785   2.144   0.146   1.559  0.3402  0.2765  0.3183
 7765TIP3    H144786   2.158   0.197   1.479  0.6112  0.2498  0.3466
 7765TIP3    H244787   2.184   0.198   1.628 -2.1622  1.5669  0.8807
 7766TIP3   OH244788   5.500   2.704   5.202  0.7831 -0.3103  0.1361
 7766TIP3    H144789   5.429   2.768   5.196  1.2464  0.0915 -1.3436
 7766TIP3    H244790   5.460   2.620   5.179  0.7656 -0.0895 -0.6564
 7767TIP3   OH244791   5.192   5.100  17.193 -0.0222  0.4235 -0.4455
 7767TIP3    H144792   5.257   5.169  17.199 -0.2081  0.9463 -3.0291
 7767TIP3    H244793   5.238   5.029  17.148 -0.0898 -0.8594  1.4065
 7768TIP3   OH244794   1.611   4.599   4.471  0.3984 -0.0669 -0.0935
 7768TIP3    H144795   1.529   4.627   4.431  0.7914 -1.4416 -1.9910
 7768TIP3    H244796   1.614   4.645   4.555 -1.6256  1.0782 -0.5939
 7769TIP3   OH244797   6.368   2.849  16.200  0.1227 -0.5409 -0.0586
 7769TIP3    H144798   6.370   2.910  16.126  0.6764 -0.5838 -0.0884
 7769TIP3    H244799   6.424   2.891  16.266 -0.4264 -0.4680  0.3624
 7770TIP3   OH244800   5.583   4.300  14.029  0.0820  0.1228 -0.0957
 7770TIP3    H144801   5.539   4.368  14.080 -2.9045 -0.7353 -1.3232
 7770TIP3    H244802   5.573   4.327  13.938 -0.9057 -1.7347 -0.5969
 7771TIP3   OH244803   5.075   0.462   5.221  0.0486  0.4564 -0.1301
 7771TIP3    H144804   5.055   0.494   5.133  1.0719 -0.6721 -0.8040
 7771TIP3    H244805   5.162   0.497   5.240 -0.0496  0.4642  0.3301
 7772TIP3   OH244806   0.586   1.436  16.418 -0.0965 -0.4286 -0.5417
 7772TIP3    H144807   0.677   1.429  16.387 -0.3446  1.0753 -1.7588
 7772TIP3    H244808   0.544   1.357  16.386  0.8260 -1.2837  0.2784
 7773TIP3   OH244809   0.098   4.982   4.436 -0.1163 -0.0126  0.3737
 7773TIP3    H144810   0.185   4.967   4.399 -0.0898 -1.8837  1.0626
 7773TIP3    H244811   0.106   4.953   4.527 -1.3498  0.1415  0.5452
 7774TIP3   OH244812   2.919   1.907  15.029 -0.1646  0.7393  0.4632
 7774TIP3    H144813   2.871   1.825  15.033  1.6236 -0.4496 -0.7220
 7774TIP3    H244814   2.950   1.912  14.939 -1.5454  3.5604  0.0325
 7775TIP3   OH244815   2.309   1.314   5.438  0.2757  0.7609 -0.5173
 7775TIP3    H144816   2.398   1.323   5.473  0.2677  3.5995 -0.9205
 7775TIP3    H244817   2.297   1.392   5.384 -2.7480  0.9438  0.2133
 7776TIP3   OH244818   4.026   5.331   4.110 -0.1769  0.3695 -0.3403
 7776TIP3    H144819   4.054   5.240   4.101 -1.4948 -0.2184  0.9878
 7776TIP3    H244820   4.048   5.354   4.200 -0.3792  1.1876 -0.4911
 7777TIP3   OH244821   6.498   4.537   1.841  0.1764  0.9767  0.7409
 7777TIP3    H144822   6.537   4.450   1.846 -3.4320 -0.7751  3.6915
 7777TIP3    H244823   6.483   4.551   1.748 -0.3043 -2.2455  0.2053
 7778TIP3   OH244824   5.044   6.158   1.001  0.3265  0.8238  0.3223
 7778TIP3    H144825   5.080   6.209   1.073 -1.6978 -2.2636  3.8309
 7778TIP3    H244826   5.075   6.069   1.016 -1.8276 -0.3297 -1.4176
 7779TIP3   OH244827   1.074   5.650  15.217 -0.3757 -0.4748  0.2921
 7779TIP3    H144828   1.091   5.742  15.198 -1.5355  0.3786  2.9402
 7779TIP3    H244829   0.988   5.650  15.260  0.1698 -2.6198  1.5381
 7780TIP3   OH244830   0.998   2.606   4.808  0.1642 -0.0268  0.2923
 7780TIP3    H144831   1.045   2.572   4.884 -0.0694  1.3501  1.0921
 7780TIP3    H244832   1.061   2.601   4.737  0.5122 -0.9940  0.6391
 7781TIP3   OH244833   1.724   3.104  11.608 -0.0125  0.0281  0.3006
 7781TIP3    H144834   1.699   3.071  11.694  0.2026 -0.6832  0.0948
 7781TIP3    H244835   1.765   3.188  11.625  0.4380 -0.3158  0.9390
 7782TIP3   OH244836   3.794   3.923  14.469  0.4071  0.6364 -1.0838
 7782TIP3    H144837   3.808   3.926  14.564 -2.6727 -0.7817 -0.4545
 7782TIP3    H244838   3.837   3.843  14.440 -0.6418 -0.2080 -0.3938
 7783TIP3   OH244839   1.124   5.497  14.850 -0.3707  0.6000 -0.1064
 7783TIP3    H144840   1.185   5.569  14.836  0.6050 -0.0215  0.7428
 7783TIP3    H244841   1.145   5.465  14.938 -0.8981 -0.5980 -0.3940
 7784TIP3   OH244842   3.394   5.442  15.553  0.3141 -0.8856  0.8732
 7784TIP3    H144843   3.483   5.431  15.521  0.4553 -0.2829  1.0494
 7784TIP3    H244844   3.338   5.422  15.478  0.6497  2.0249 -0.2685
 7785TIP3   OH244845   3.170   3.837   4.961 -0.0896 -0.1267 -0.2245
 7785TIP3    H144846   3.108   3.785   4.911 -0.9253 -0.1790  0.8260
 7785TIP3    H244847   3.183   3.789   5.042  0.3233  0.5319  0.1155
 7786TIP3   OH244848   3.859   1.721  12.625  0.2773 -0.9230  0.4268
 7786TIP3    H144849   3.884   1.635  12.593  1.3757 -0.4806  0.0754
 7786TIP3    H244850   3.870   1.779  12.550 -0.4463 -0.4669  0.6600
 7787TIP3   OH244851   5.471   1.503  13.041 -0.0296 -0.1169 -0.2933
 7787TIP3    H144852   5.450   1.592  13.015  0.7604  0.5308  1.1547
 7787TIP3    H244853   5.566   1.496  13.029 -0.1952 -1.0659 -1.2169
 7788TIP3   OH244854   6.332   0.904   3.095  0.0434  0.0294 -0.3095
 7788TIP3    H144855   6.269   0.867   3.032 -0.7252  0.2098  0.3325
 7788TIP3    H244856   6.314   0.998   3.093 -0.1227  0.0177  0.3076
 7789TIP3   OH244857   5.799   2.928   5.791  0.0252 -0.3524 -0.0826
 7789TIP3    H144858   5.746   2.861   5.748 -1.1382  0.2495  0.3754
 7789TIP3    H244859   5.742   3.004   5.797  1.6942  1.1121 -1.6402
 7790TIP3   OH244860   1.890   1.546  13.430  0.2745  0.4693  0.1875
 7790TIP3    H144861   1.804   1.572  13.396  1.0597 -0.0381 -2.3191
 7790TIP3    H244862   1.925   1.626  13.469 -0.1769  1.4137 -1.2910
 7791TIP3   OH244863   1.943   3.898  10.998  0.1917  1.0261  0.0570
 7791TIP3    H144864   1.976   3.808  10.997 -2.1749  0.0697  0.6941
 7791TIP3    H244865   1.965   3.932  10.912  1.4705 -0.0023 -0.0644
 7792TIP3   OH244866   0.846   5.846  11.175 -0.5952 -0.0330 -0.1635
 7792TIP3    H144867   0.928   5.853  11.126 -0.3326  0.5337  0.3400
 7792TIP3    H244868   0.815   5.758  11.157 -0.2024 -0.0308 -0.8763
 7793TIP3   OH244869   3.455   4.240  10.989 -0.3187  0.6426  0.1288
 7793TIP3    H144870   3.429   4.233  10.897  2.0677  0.5929 -0.5941
 7793TIP3    H244871   3.538   4.286  10.987  0.0476  0.1569  2.2405
 7794TIP3   OH244872   3.602   6.800  16.545  0.2874 -0.6054 -0.8408
 7794TIP3    H144873   3.659   6.761  16.611 -0.9317 -0.1597  0.5350
 7794TIP3    H244874   3.554   6.726  16.509 -2.4594 -0.5424  2.1906
 7795TIP3   OH244875   1.919   1.331  13.744 -0.3788  0.1941  0.0683
 7795TIP3    H144876   1.859   1.334  13.670 -1.1460  2.9205  0.6840
 7795TIP3    H244877   1.988   1.394  13.721  1.1922 -1.3770  0.2722
 7796TIP3   OH244878   4.806   4.181   2.612 -0.5906 -0.0394  0.1587
 7796TIP3    H144879   4.837   4.237   2.541 -0.9519 -0.3628 -0.2598
 7796TIP3    H244880   4.885   4.146   2.652 -0.3356  1.1397  0.7405
 7797TIP3   OH244881   1.335   3.204  11.974  0.5285  0.6174  0.2254
 7797TIP3    H144882   1.365   3.129  12.025  0.8849  0.7275  0.1832
 7797TIP3    H244883   1.250   3.177  11.939 -0.0279  0.7915  1.3976
 7798TIP3   OH244884   4.295   5.226  13.321 -0.0645 -0.3452 -0.0138
 7798TIP3    H144885   4.238   5.300  13.302  0.3344 -0.8395 -3.8649
 7798TIP3    H244886   4.383   5.263  13.320  0.0457 -0.6105 -0.4750
 7799TIP3   OH244887   4.035   4.918  13.682 -0.5462  0.3376  0.0952
 7799TIP3    H144888   3.950   4.877  13.698 -1.2595  0.5827 -2.5398
 7799TIP3    H244889   4.076   4.863  13.615  0.9379  0.8212  0.5541
 7800TIP3   OH244890   1.707   5.709   1.822 -0.0095  0.3767 -0.1092
 7800TIP3    H144891   1.687   5.781   1.882  1.9933  1.4364 -0.6181
 7800TIP3    H244892   1.704   5.631   1.877  1.8198  1.3166  1.4697
 7801TIP3   OH244893   0.677   3.325  12.989 -0.1659 -0.0384  0.3919
 7801TIP3    H144894   0.683   3.241  13.033 -0.8961 -1.1315 -1.4853
 7801TIP3    H244895   0.620   3.309  12.914  2.1280  1.3296 -1.7933
 7802TIP3   OH244896   3.566   1.569   2.471 -0.1745 -0.5392 -0.0878
 7802TIP3    H144897   3.609   1.565   2.385 -1.1518 -1.4391 -0.5531
 7802TIP3    H244898   3.588   1.486   2.513  1.8905  0.6455  1.3717
 7803TIP3   OH244899   2.400   3.408  16.939 -0.5335 -0.4142 -0.2217
 7803TIP3    H144900   2.494   3.393  16.930 -0.4204 -0.9725  1.5157
 7803TIP3    H244901   2.391   3.503  16.947 -0.2033 -0.3071 -1.0206
 7804TIP3   OH244902   4.706   0.513   1.510  0.6444  0.5900  0.7526
 7804TIP3    H144903   4.797   0.484   1.516  0.8494  1.2210  0.8207
 7804TIP3    H244904   4.660   0.461   1.575  1.7170  3.1235  3.7740
 7805TIP3   OH244905   6.262   5.230   2.196  0.1371  0.0434 -0.4627
 7805TIP3    H144906   6.325   5.290   2.237  0.6649 -1.8067  1.6085
 7805TIP3    H244907   6.311   5.187   2.126  0.1938  0.8850 -0.9578
 7806TIP3   OH244908   0.592   2.511   3.784  0.1520 -0.8441  0.0809
 7806TIP3    H144909   0.557   2.476   3.702 -0.3501 -1.2806  0.4709
 7806TIP3    H244910   0.613   2.433   3.836 -0.8232 -0.5879  0.8992
 7807TIP3   OH244911   6.552   4.062  11.557 -0.3566  0.2847  0.1244
 7807TIP3    H144912   6.494   4.132  11.589 -1.4917 -0.3160 -0.5464
 7807TIP3    H244913   6.584   4.095  11.472  0.6993  0.8210  0.7083
 7808TIP3   OH244914   6.352   1.968  14.261  0.2691 -0.1422  0.3423
 7808TIP3    H144915   6.400   1.892  14.295 -0.7914 -0.0458  2.1602
 7808TIP3    H244916   6.260   1.946  14.273 -0.1110  0.6752 -0.8779
 7809TIP3   OH244917   0.739   2.188  16.840  0.8346 -0.3460 -0.0166
 7809TIP3    H144918   0.670   2.123  16.849 -0.5040  1.1010  0.8722
 7809TIP3    H244919   0.776   2.195  16.928  0.6184  0.4243  0.0210
 7810TIP3   OH244920   4.038   0.975   3.202  0.1112 -0.2419  0.3674
 7810TIP3    H144921   4.087   0.928   3.135 -1.3455 -3.3855  1.3009
 7810TIP3    H244922   3.957   1.002   3.158 -0.2254 -1.0460  0.4811
 7811TIP3   OH244923   2.464   4.197   3.709 -0.8435  0.4127  0.3138
 7811TIP3    H144924   2.473   4.251   3.787  1.8209  1.1582 -0.4017
 7811TIP3    H244925   2.500   4.251   3.638 -0.2209 -1.4190 -0.8459
 7812TIP3   OH244926   3.829   0.118   0.921 -0.1822  0.3114 -0.0366
 7812TIP3    H144927   3.901   0.149   0.976 -0.8823 -1.2757  1.8811
 7812TIP3    H244928   3.750   0.136   0.972 -1.0584  0.8000 -1.5124
 7813TIP3   OH244929   2.548   6.163  15.170 -0.1656  0.2526  0.1466
 7813TIP3    H144930   2.589   6.171  15.256  0.5991  0.9804 -0.2734
 7813TIP3    H244931   2.610   6.110  15.119 -0.0352  0.8192 -0.2995
 7814TIP3   OH244932   3.518   2.374  11.363 -0.1172 -0.2430 -0.2175
 7814TIP3    H144933   3.482   2.291  11.332 -0.8741 -0.9972  2.4014
 7814TIP3    H244934   3.568   2.350  11.441 -0.5167  1.7867  0.7262
 7815TIP3   OH244935   1.125   0.320   2.203  0.3836  0.5944 -0.5142
 7815TIP3    H144936   1.051   0.354   2.154  0.2957  1.6367  0.2906
 7815TIP3    H244937   1.200   0.372   2.173  1.1375 -1.4012 -2.3768
 7816TIP3   OH244938   2.250   4.363  13.226 -0.2438  0.2500 -0.6821
 7816TIP3    H144939   2.341   4.383  13.207 -0.5508  1.9408 -0.5324
 7816TIP3    H244940   2.248   4.343  13.319  0.2105 -1.4573 -1.0080
 7817TIP3   OH244941   2.297   1.954   4.728 -0.5825 -0.5413  0.0961
 7817TIP3    H144942   2.297   1.874   4.781 -1.5387 -0.5067  0.1612
 7817TIP3    H244943   2.237   2.013   4.773 -1.8222 -0.6947 -1.3004
 7818TIP3   OH244944   4.854   5.589  16.524 -0.7162 -0.3455 -0.4067
 7818TIP3    H144945   4.860   5.524  16.594  1.5375  0.0644 -0.1250
 7818TIP3    H244946   4.760   5.603  16.512 -1.2056 -0.7966  2.2026
 7819TIP3   OH244947   4.276   3.458   3.227 -0.1885 -0.2292  0.6370
 7819TIP3    H144948   4.344   3.393   3.246 -0.3634 -0.2452  1.2167
 7819TIP3    H244949   4.196   3.420   3.265 -0.6038 -0.3879 -0.3559
 7820TIP3   OH244950   1.533   1.474  13.887 -0.0254  0.6224 -0.6768
 7820TIP3    H144951   1.475   1.549  13.874 -2.8676 -1.1892  0.3786
 7820TIP3    H244952   1.535   1.460  13.981  0.5757 -0.5073 -0.8327
 7821TIP3   OH244953   6.462   6.783   0.136  0.4047  0.5984 -0.7384
 7821TIP3    H144954   6.469   6.710   0.075 -0.9179 -0.3247  0.1397
 7821TIP3    H244955   6.539   6.836   0.119  0.6501 -0.2206 -2.4127
 7822TIP3   OH244956   6.676   1.568  13.745  0.4288 -0.0152  0.0550
 7822TIP3    H144957   6.686   1.596  13.654 -0.2342 -0.6371 -0.2233
 7822TIP3    H244958   6.714   1.639  13.797 -0.6160  1.0698 -0.6389
 7823TIP3   OH244959   5.851   2.845  11.235 -0.6474 -0.1074 -0.4347
 7823TIP3    H144960   5.779   2.848  11.172 -0.2505 -1.3823 -0.9871
 7823TIP3    H244961   5.811   2.808  11.314 -0.3452 -2.1997 -1.1913
 7824TIP3   OH244962   5.661   0.059   3.016 -0.3954  0.6761  0.2882
 7824TIP3    H144963   5.742   0.062   2.965 -0.9018 -2.5691 -0.8932
 7824TIP3    H244964   5.691   0.060   3.107  0.9398  0.2587 -0.1228
 7825TIP3   OH244965   2.370   5.652  15.115 -0.4470  0.1279  0.2595
 7825TIP3    H144966   2.386   5.738  15.155 -1.6999  2.0112 -2.8485
 7825TIP3    H244967   2.278   5.635  15.131 -0.4535 -0.1144 -0.0369
 7826TIP3   OH244968   1.956   1.584  16.102 -0.2083 -0.0457  0.0022
 7826TIP3    H144969   1.937   1.501  16.056  0.7572  0.3895 -1.2539
 7826TIP3    H244970   2.003   1.636  16.037  0.1157  1.0949  1.1250
 7827TIP3   OH244971   2.932   3.806   2.131  0.0725 -0.4582 -0.1470
 7827TIP3    H144972   2.924   3.871   2.061  1.4276 -1.3957 -1.2281
 7827TIP3    H244973   3.017   3.824   2.170 -1.4495  1.3199  2.6719
 7828TIP3   OH244974   2.994   5.851   0.101 -0.0891 -0.3060 -0.0880
 7828TIP3    H144975   3.055   5.778   0.110 -0.3889 -0.4934  0.5269
 7828TIP3    H244976   3.046   5.929   0.120  0.1657 -0.3885 -0.4567
 7829TIP3   OH244977   1.651   0.351  10.002 -0.4233 -0.0804  0.5561
 7829TIP3    H144978   1.568   0.338   9.956 -1.0086  1.4116  1.1148
 7829TIP3    H244979   1.625   0.366  10.093  0.5147 -0.2061  0.8545
 7830TIP3   OH244980   1.997   4.075   5.513  0.0348  0.6172  0.1451
 7830TIP3    H144981   1.997   4.032   5.427 -0.9359  0.8495  0.0157
 7830TIP3    H244982   1.945   4.016   5.569  0.9032  0.3212  0.6554
 7831TIP3   OH244983   4.102   1.698  12.358  0.2503 -0.3885  0.1475
 7831TIP3    H144984   4.025   1.655  12.320  0.5746 -0.1023 -0.8492
 7831TIP3    H244985   4.105   1.784  12.315  0.4143  0.0942  1.1011
 7832TIP3   OH244986   2.883   2.290   0.236 -0.3798 -0.1539 -0.5253
 7832TIP3    H144987   2.930   2.225   0.288 -0.7184  1.6996  2.3904
 7832TIP3    H244988   2.926   2.373   0.258 -0.4169  0.7530 -3.5260
 7833TIP3   OH244989   5.330   6.125  11.327 -0.6306  0.6968  0.0063
 7833TIP3    H144990   5.281   6.150  11.249 -1.8634  1.4273  0.9653
 7833TIP3    H244991   5.288   6.045  11.357 -0.2196  0.4681 -0.0164
 7834TIP3   OH244992   1.501   6.707   5.163 -0.8148  0.2356 -0.7780
 7834TIP3    H144993   1.546   6.654   5.097 -0.2468 -0.7997  0.4038
 7834TIP3    H244994   1.461   6.643   5.222 -0.3750  1.1245  0.5108
 7835TIP3   OH244995   0.355   0.295   5.948  0.0053 -0.0415 -0.1871
 7835TIP3    H144996   0.322   0.374   5.905  2.0271  0.8618 -0.2208
 7835TIP3    H244997   0.345   0.314   6.042  3.1926  1.6747 -0.0506
 7836TIP3   OH244998   1.600   2.852  14.631 -0.3325 -0.4341  0.1114
 7836TIP3    H144999   1.588   2.789  14.559  1.2496  1.8112 -2.3149
 7836TIP3    H245000   1.511   2.869  14.663 -1.1743 -1.1521 -1.6818
 7837TIP3   OH245001   4.729   5.403  16.744 -0.3549  0.1982 -0.2364
 7837TIP3    H145002   4.712   5.392  16.837  2.9469  2.7686  0.8649
 7837TIP3    H245003   4.694   5.489  16.722  0.5178  0.4264 -0.8254
 7838TIP3   OH245004   0.485   1.148   1.703  0.4610 -0.1232 -0.5913
 7838TIP3    H145005   0.473   1.154   1.797 -0.1452 -0.8079 -0.6179
 7838TIP3    H245006   0.575   1.178   1.688 -0.0726  1.9064 -0.0276
 7839TIP3   OH245007   3.278   4.929  12.028 -0.5672 -0.5718  0.0432
 7839TIP3    H145008   3.186   4.907  12.012 -0.6526 -0.4803  0.4149
 7839TIP3    H245009   3.324   4.894  11.951 -0.8396 -1.0902  0.1139
 7840TIP3   OH245010   5.402   2.379   2.310  0.6635 -0.4067  0.2479
 7840TIP3    H145011   5.325   2.432   2.330 -0.5162 -2.0056  0.1253
 7840TIP3    H245012   5.406   2.377   2.215 -0.0288 -1.5058  0.2251
 7841TIP3   OH245013   6.510   0.709  13.464 -0.5834  0.1117 -0.1809
 7841TIP3    H145014   6.531   0.649  13.393  1.3454  0.7332 -0.2038
 7841TIP3    H245015   6.416   0.727  13.454 -0.1993  0.9612 -3.2106
 7842TIP3   OH245016   0.100   0.782  16.756 -0.1297 -0.3865 -0.5893
 7842TIP3    H145017   0.101   0.744  16.844  0.1216 -0.7013 -0.7260
 7842TIP3    H245018   0.182   0.752  16.716 -0.4253 -0.5689 -1.0689
 7843TIP3   OH245019   2.251   3.379  12.501 -0.2963 -0.6594 -0.0807
 7843TIP3    H145020   2.253   3.389  12.406  2.3395  0.2003 -0.0289
 7843TIP3    H245021   2.200   3.454  12.532  0.2791  0.0443 -0.7755
 7844TIP3   OH245022   6.010   0.259  16.349  0.1972 -0.2942 -0.0316
 7844TIP3    H145023   6.050   0.343  16.372 -1.1204 -0.1332  1.9109
 7844TIP3    H245024   6.059   0.230  16.272  3.4065  0.2922  1.6064
 7845TIP3   OH245025   2.550   1.234  12.198  0.3886 -0.5381  0.0954
 7845TIP3    H145026   2.635   1.269  12.173 -0.9085  1.7893 -1.3523
 7845TIP3    H245027   2.488   1.303  12.177 -1.9819 -2.4632  0.3218
 7846TIP3   OH245028   2.094   6.284   1.116  0.2141  0.3325 -0.1261
 7846TIP3    H145029   2.133   6.212   1.166 -1.1444 -0.7778 -0.6157
 7846TIP3    H245030   2.112   6.262   1.024 -0.7284  0.2768 -0.3114
 7847TIP3   OH245031   0.430   3.923  13.406  0.2478  0.0498  0.4792
 7847TIP3    H145032   0.471   3.956  13.486  0.1511 -1.1791  1.0555
 7847TIP3    H245033   0.498   3.869  13.365  0.0557  0.0957  0.0952
 7848TIP3   OH245034   3.939   1.480  16.136 -0.1828 -0.7682  1.0718
 7848TIP3    H145035   3.922   1.551  16.073  2.9927  0.0947  0.9749
 7848TIP3    H245036   3.989   1.416  16.086 -0.0679 -1.4247  2.0167
 7849TIP3   OH245037   6.298   5.562   0.271 -0.0196 -0.1786 -0.0957
 7849TIP3    H145038   6.381   5.518   0.253  0.6028  0.8242  0.2424
 7849TIP3    H245039   6.313   5.610   0.352 -0.8721  0.1714 -0.1372
 7850TIP3   OH245040   0.445   1.000  16.617  0.1970 -0.1049  0.4638
 7850TIP3    H145041   0.397   0.976  16.697  0.3428 -0.1177  0.5497
 7850TIP3    H245042   0.410   1.086  16.593 -0.8537 -0.7258 -0.2655
 7851TIP3   OH245043   5.549   1.367  14.886 -0.0602 -0.1274  0.5425
 7851TIP3    H145044   5.595   1.443  14.921 -0.4459  0.1744  0.4088
 7851TIP3    H245045   5.608   1.330  14.821 -0.1059  0.4064  0.1897
 7852TIP3   OH245046   5.366   4.642   2.715 -0.4111 -0.3430  0.4313
 7852TIP3    H145047   5.351   4.621   2.623  0.1424 -0.9797  0.4803
 7852TIP3    H245048   5.308   4.582   2.763 -3.2855  2.2187  0.4689
 7853TIP3   OH245049   1.424   2.269  15.433  0.4612  0.2484 -0.0765
 7853TIP3    H145050   1.511   2.231  15.447  0.6277  0.5305 -0.3266
 7853TIP3    H245051   1.428   2.305  15.345 -0.4344 -1.1602 -0.7370
 7854TIP3   OH245052   3.275   6.358   4.070 -0.1114  0.2919  0.2890
 7854TIP3    H145053   3.225   6.280   4.094 -1.5460  0.8472 -0.7307
 7854TIP3    H245054   3.326   6.332   3.994 -0.9665  0.4547 -0.3581
 7855TIP3   OH245055   4.195   3.137   6.833 -0.0207 -0.0786 -0.1179
 7855TIP3    H145056   4.238   3.216   6.802  1.4101 -0.5417  0.5678
 7855TIP3    H245057   4.196   3.078   6.758 -1.9124  0.8152 -0.9130
 7856TIP3   OH245058   6.712   4.892  16.268 -0.2152  0.0004  0.4923
 7856TIP3    H145059   6.629   4.905  16.312 -0.0631  0.0738  0.7580
 7856TIP3    H245060   6.702   4.937  16.184  0.5094  2.3926  1.6220
 7857TIP3   OH245061   6.266   6.235   2.674  0.3994 -0.4517  0.0878
 7857TIP3    H145062   6.355   6.243   2.707  0.5026 -0.1369 -0.2589
 7857TIP3    H245063   6.219   6.308   2.715  0.5327 -0.0481 -0.4637
 7858TIP3   OH245064   4.375   2.316   5.444  0.4110 -0.8725 -0.2006
 7858TIP3    H145065   4.285   2.341   5.426 -0.1565 -0.9186  2.1981
 7858TIP3    H245066   4.373   2.220   5.450  0.7415 -0.9139 -0.7116
 7859TIP3   OH245067   4.956   1.097  13.708 -0.1819  0.0584  0.2814
 7859TIP3    H145068   4.973   1.068  13.619 -2.8465 -2.5983  0.4589
 7859TIP3    H245069   4.909   1.180  13.698  0.0341  0.0699 -0.7564
 7860TIP3   OH245070   1.810   2.124  15.969 -0.6410 -0.3464 -0.0384
 7860TIP3    H145071   1.737   2.069  15.942 -0.1274 -0.7759 -0.5744
 7860TIP3    H245072   1.882   2.063  15.984  0.2163  0.2207 -1.5645
 7861TIP3   OH245073   3.693   5.565   4.315  0.8415 -0.6325 -0.2579
 7861TIP3    H145074   3.643   5.612   4.382  0.8927 -2.0700  0.8432
 7861TIP3    H245075   3.674   5.473   4.332 -0.3049 -1.0401 -3.1590
 7862TIP3   OH245076   4.769   4.917   2.854 -0.0302  0.1208 -0.1204
 7862TIP3    H145077   4.735   4.838   2.813  1.8290  0.0052 -1.5914
 7862TIP3    H245078   4.744   4.988   2.794  2.5206 -0.0200 -1.4732
 7863TIP3   OH245079   0.391   4.552   0.598  0.4346 -0.2464 -0.6188
 7863TIP3    H145080   0.310   4.523   0.641  0.4814  0.9611  0.3211
 7863TIP3    H245081   0.361   4.598   0.519 -0.0103  2.4144  0.9816
 7864TIP3   OH245082   3.670   2.360  10.171  0.2388 -0.2438  0.3790
 7864TIP3    H145083   3.722   2.440  10.181 -1.0376  0.5699  0.8163
 7864TIP3    H245084   3.584   2.391  10.144  0.1550 -1.6062 -1.0931
 7865TIP3   OH245085   5.347   1.773   4.176  0.2445 -0.0711 -0.1228
 7865TIP3    H145086   5.378   1.830   4.106 -1.2554 -0.1085 -0.8596
 7865TIP3    H245087   5.408   1.699   4.175  1.8600  1.1982  0.4573
 7866TIP3   OH245088   0.718   0.378   2.988 -0.2782 -0.7289 -0.1266
 7866TIP3    H145089   0.623   0.382   2.995 -0.2395  0.4370 -0.1693
 7866TIP3    H245090   0.743   0.307   3.047 -1.3749 -3.0422 -2.2297
 7867TIP3   OH245091   4.603   0.287  13.276 -0.0807  0.3279  0.2345
 7867TIP3    H145092   4.581   0.355  13.212 -0.6345 -0.7726 -0.7911
 7867TIP3    H245093   4.574   0.322  13.360  0.1164  1.5580 -0.1908
 7868TIP3   OH245094   4.829   2.803  16.403 -0.6842  0.0784  0.4969
 7868TIP3    H145095   4.779   2.850  16.469 -1.3642 -1.3431  1.0428
 7868TIP3    H245096   4.775   2.809  16.324 -1.5402 -1.0517  0.9655
 7869TIP3   OH245097   5.736   0.502   4.231  0.3055  0.3425 -0.4191
 7869TIP3    H145098   5.683   0.455   4.296  1.8240  0.0443  0.6492
 7869TIP3    H245099   5.707   0.593   4.238 -2.2292 -0.2218 -2.0687
 7870TIP3   OH245100   5.050   3.335   0.184  0.3749  0.4579  0.0115
 7870TIP3    H145101   5.113   3.294   0.244  1.1355  1.7405  0.1297
 7870TIP3    H245102   5.092   3.416   0.157 -1.1548  1.2720 -0.0576
 7871TIP3   OH245103   5.341   5.209   4.129  0.0841  0.1145 -0.0034
 7871TIP3    H145104   5.247   5.201   4.138 -0.1060  2.1693  0.2921
 7871TIP3    H245105   5.355   5.299   4.100  1.9394 -0.2397 -0.3542
 7872TIP3   OH245106   3.447   2.471  13.698  0.4495 -0.1785 -0.4327
 7872TIP3    H145107   3.529   2.449  13.742  0.6688 -2.1418 -1.7173
 7872TIP3    H245108   3.379   2.431  13.751  0.3650  0.6752  0.1310
 7873TIP3   OH245109   1.017   2.776  16.079 -0.3123  0.4982 -0.0677
 7873TIP3    H145110   0.943   2.795  16.021  1.4807  0.4135 -2.5169
 7873TIP3    H245111   0.997   2.823  16.159 -2.7650  0.9010 -0.8271
 7874TIP3   OH245112   0.681   2.398  15.518 -0.2450  0.2481 -0.3074
 7874TIP3    H145113   0.699   2.308  15.545 -1.1617 -0.3218 -1.5115
 7874TIP3    H245114   0.709   2.451  15.592  0.6463 -0.9999  0.2830
 7875TIP3   OH245115   2.967   2.624  12.319  0.4822 -0.0069  0.2767
 7875TIP3    H145116   2.883   2.652  12.355 -0.4231 -2.4515  0.2760
 7875TIP3    H245117   2.998   2.698  12.268 -1.4108  1.1456  0.7133
 7876TIP3   OH245118   1.794   0.673  11.191  0.5458 -0.2869 -1.2658
 7876TIP3    H145119   1.786   0.769  11.191 -1.7230 -0.4267 -0.6242
 7876TIP3    H245120   1.847   0.654  11.114 -1.7154  1.3355 -3.3864
 7877TIP3   OH245121   2.792   5.784  12.690 -0.1963  0.5936 -0.3574
 7877TIP3    H145122   2.782   5.801  12.784 -3.4766 -1.2033 -0.2532
 7877TIP3    H245123   2.827   5.695  12.686 -0.6528  0.4367 -0.8403
 7878TIP3   OH245124   1.114   0.559   0.346 -0.5761  0.2204  0.0241
 7878TIP3    H145125   1.103   0.465   0.357 -0.7350  0.3167  0.7271
 7878TIP3    H245126   1.038   0.598   0.389 -0.1832  0.6934  0.3030
 7879TIP3   OH245127   6.051   2.683  14.621 -0.5039 -0.0026 -0.3956
 7879TIP3    H145128   6.128   2.731  14.651  0.0417 -0.3862 -1.1337
 7879TIP3    H245129   5.980   2.713  14.677  0.6257 -1.3238  1.8374
 7880TIP3   OH245130   4.473   1.974  11.258 -0.6545 -0.3968 -0.3236
 7880TIP3    H145131   4.474   2.042  11.325  2.1885  0.1024 -0.7648
 7880TIP3    H245132   4.428   2.015  11.183  1.3059  1.2388 -0.7135
 7881TIP3   OH245133   1.052   3.160   2.237  0.2938 -0.2093 -0.4670
 7881TIP3    H145134   0.992   3.208   2.179 -0.3742  1.8910  1.8000
 7881TIP3    H245135   1.138   3.196   2.218 -0.0272  1.0162  0.3131
 7882TIP3   OH245136   3.416   2.788   4.461 -0.1702  0.1161 -0.5669
 7882TIP3    H145137   3.478   2.861   4.461  0.0624 -0.0700 -1.3969
 7882TIP3    H245138   3.394   2.776   4.368 -1.9302  0.5854 -0.2460
 7883TIP3   OH245139   4.036   2.492   0.147  0.1470  0.3008 -0.2570
 7883TIP3    H145140   4.082   2.562   0.194  1.9207 -1.3038  0.4942
 7883TIP3    H245141   4.015   2.530   0.062 -0.1222  2.1588  0.5712
 7884TIP3   OH245142   2.892   2.278   1.997 -0.0506  0.5049 -0.3818
 7884TIP3    H145143   2.878   2.321   2.081 -1.7298  2.1317 -1.4266
 7884TIP3    H245144   2.987   2.278   1.986  0.1254  1.5198  0.8755
 7885TIP3   OH245145   3.338   6.779   3.282  0.0445 -0.2311  0.4461
 7885TIP3    H145146   3.412   6.739   3.328  0.8086  0.4882 -0.1202
 7885TIP3    H245147   3.261   6.733   3.316  0.8400 -1.9642  0.0550
 7886TIP3   OH245148   5.374   0.744  14.041  0.5131  0.5167  0.3518
 7886TIP3    H145149   5.283   0.771  14.053 -0.1159 -0.6294 -1.5112
 7886TIP3    H245150   5.373   0.649  14.047  1.1230  0.2928 -2.1451
 7887TIP3   OH245151   0.880   3.439   4.122  0.4629 -0.2631  0.0817
 7887TIP3    H145152   0.826   3.424   4.200  2.7368 -0.6148  1.6958
 7887TIP3    H245153   0.826   3.409   4.049 -1.1816 -1.3507  1.6670
 7888TIP3   OH245154   1.816   5.090  13.482 -0.0308 -0.1745 -0.4027
 7888TIP3    H145155   1.757   5.024  13.444 -0.6924  1.1802 -1.8349
 7888TIP3    H245156   1.873   5.115  13.410  0.9829  0.0076  0.4424
 7889TIP3   OH245157   5.749   1.396  13.333  0.1232  0.0484  0.1868
 7889TIP3    H145158   5.687   1.342  13.284  1.1033  1.7707 -3.2502
 7889TIP3    H245159   5.705   1.481  13.342  0.3385  0.0372  1.5996
 7890TIP3   OH245160   3.148   3.946  15.300  0.5079 -0.1168  0.6057
 7890TIP3    H145161   3.095   3.877  15.340 -0.8899 -0.2086 -1.2829
 7890TIP3    H245162   3.089   4.021  15.294  1.3949  0.6158  0.7682
 7891TIP3   OH245163   1.151   2.297  14.036  0.2297  0.8769 -0.6650
 7891TIP3    H145164   1.242   2.279  14.059  0.1499  0.1892 -0.8707
 7891TIP3    H245165   1.140   2.259  13.949 -0.6186 -0.2772 -0.0814
 7892TIP3   OH245166   0.460   6.788   0.719  0.3621  0.6625  0.1628
 7892TIP3    H145167   0.518   6.819   0.788 -0.7974  1.1412  0.9422
 7892TIP3    H245168   0.392   6.738   0.764 -1.2816  2.2615 -0.4153
 7893TIP3   OH245169   1.691   5.940  10.609 -0.6273  0.4817  0.3726
 7893TIP3    H145170   1.750   6.001  10.564 -2.1433  2.1375  0.5097
 7893TIP3    H245171   1.608   5.948  10.561 -1.2113 -0.5504  1.1756
 7894TIP3   OH245172   3.435   1.455  12.682  0.1861 -0.1574  0.4691
 7894TIP3    H145173   3.510   1.510  12.705 -1.2639  1.4428  1.6516
 7894TIP3    H245174   3.360   1.515  12.681 -1.2025 -1.8034 -0.0072
 7895TIP3   OH245175   0.687   3.239  16.806  0.1280 -0.1249  0.8207
 7895TIP3    H145176   0.636   3.216  16.884 -1.2504 -1.0948 -0.3192
 7895TIP3    H245177   0.623   3.278  16.747  1.4641  2.1233  0.7524
 7896TIP3   OH245178   1.409   1.983   0.054  0.0731  0.5547 -0.1908
 7896TIP3    H145179   1.415   2.039   0.131  1.3639  1.3045 -0.8075
 7896TIP3    H245180   1.500   1.969   0.027 -0.3421  0.1565 -1.4739
 7897TIP3   OH245181   2.540   2.842  14.089  0.5897 -0.1291 -0.1052
 7897TIP3    H145182   2.549   2.749  14.066  0.8270 -0.6495  1.8746
 7897TIP3    H245183   2.629   2.876  14.088  0.4951  0.1134 -0.9050
 7898TIP3   OH245184   1.283   6.455   1.180 -0.1170  0.3350  0.1305
 7898TIP3    H145185   1.276   6.488   1.090  2.2534  0.7164  0.0215
 7898TIP3    H245186   1.362   6.401   1.179 -0.6504 -0.5241  1.7506
 7899TIP3   OH245187   0.947   0.792  15.616 -0.2670  0.9302  0.0208
 7899TIP3    H145188   0.909   0.791  15.704  0.2714  3.9012  0.3843
 7899TIP3    H245189   0.889   0.736  15.564 -0.7752 -0.6371  2.1569
 7900TIP3   OH245190   5.807   3.080  15.581  0.3281  0.6118 -0.4406
 7900TIP3    H145191   5.721   3.107  15.612  0.4026  0.4741 -0.1109
 7900TIP3    H245192   5.864   3.088  15.657  0.4948  0.1889 -0.5155
 7901TIP3   OH245193   5.638   2.286  12.011 -0.3420 -0.8707  0.1085
 7901TIP3    H145194   5.544   2.289  11.992 -0.0839  1.5010 -1.1656
 7901TIP3    H245195   5.680   2.284  11.925  0.8160 -2.1844  0.6623
 7902TIP3   OH245196   5.624   4.426  12.332 -0.1926  0.2511 -0.0106
 7902TIP3    H145197   5.659   4.379  12.256 -4.0236 -0.0737 -1.7969
 7902TIP3    H245198   5.602   4.357  12.395 -1.2340  0.0463 -0.5745
 7903TIP3   OH245199   3.300   4.490   3.321  0.0064  0.3628 -0.9330
 7903TIP3    H145200   3.316   4.539   3.401 -0.7993 -1.7933  0.6507
 7903TIP3    H245201   3.207   4.503   3.303 -0.3278 -0.9081 -0.2219
 7904TIP3   OH245202   3.372   3.019   6.134  0.0103 -0.3111 -0.1289
 7904TIP3    H145203   3.317   3.081   6.181 -0.3673  0.0712 -1.0541
 7904TIP3    H245204   3.435   2.988   6.200  1.5185  2.5390 -0.0691
 7905TIP3   OH245205   6.652   5.158   3.349 -0.0462  0.3513 -0.6549
 7905TIP3    H145206   6.611   5.178   3.265  1.7963 -2.4931 -2.3879
 7905TIP3    H245207   6.614   5.075   3.375 -0.7477  1.2922  1.5308
 7906TIP3   OH245208   3.135   6.591   3.319 -0.1528 -0.3357  0.2123
 7906TIP3    H145209   3.084   6.619   3.243 -2.7984 -0.7591  1.7107
 7906TIP3    H245210   3.179   6.511   3.291 -0.3756 -0.0175 -1.0976
 7907TIP3   OH245211   2.385   2.535  11.470 -0.3611  0.5853  0.5365
 7907TIP3    H145212   2.381   2.556  11.563 -1.2646  0.5266  0.5254
 7907TIP3    H245213   2.415   2.615  11.427  2.7345 -0.1566  1.1032
 7908TIP3   OH245214   4.767   2.994   4.171 -0.3968  0.1566  0.3441
 7908TIP3    H145215   4.832   3.020   4.236 -0.4671  0.3483  0.3392
 7908TIP3    H245216   4.818   2.964   4.096 -0.3002  1.1965 -0.0230
 7909TIP3   OH245217   4.508   3.314  16.564 -0.1888 -0.1843 -0.0239
 7909TIP3    H145218   4.553   3.319  16.648  0.8044  0.7055 -0.5797
 7909TIP3    H245219   4.504   3.404  16.533 -0.4304 -0.5073 -0.9893
 7910TIP3   OH245220   6.550   6.508  13.409  0.0823  0.1644  0.0326
 7910TIP3    H145221   6.500   6.469  13.481 -0.1467 -0.8478 -0.6619
 7910TIP3    H245222   6.583   6.591  13.446  0.2842 -0.4995  1.4232
 7911TIP3   OH245223   1.589   5.348   1.035 -0.2116  0.2978  0.3367
 7911TIP3    H145224   1.543   5.291   0.973  1.1795  0.3089 -0.7570
 7911TIP3    H245225   1.531   5.423   1.046 -0.5489  0.2488 -0.9061
 7912TIP3   OH245226   3.274   3.380   1.337  0.4203  0.1006 -0.0342
 7912TIP3    H145227   3.324   3.314   1.384  0.0153 -0.4790 -0.3905
 7912TIP3    H245228   3.220   3.422   1.404 -0.9583 -1.4553 -0.0908
 7913TIP3   OH245229   4.623   3.301   1.622  0.2347  0.0037  0.1721
 7913TIP3    H145230   4.598   3.235   1.557 -0.4510  0.4165  0.0037
 7913TIP3    H245231   4.647   3.250   1.700 -0.4352 -0.4455  0.0960
 7914TIP3   OH245232   5.195   0.057   3.975  0.1817  0.0416 -0.0311
 7914TIP3    H145233   5.144   0.036   4.052 -0.8621 -1.9162 -1.1883
 7914TIP3    H245234   5.133   0.097   3.915  0.8735  1.0911 -0.0777
 7915TIP3   OH245235   6.288   0.978   3.431  0.2216  0.1336 -0.2949
 7915TIP3    H145236   6.356   0.912   3.414  2.4658  1.9060  1.2623
 7915TIP3    H245237   6.336   1.060   3.442 -2.1600  1.4508  1.1894
 7916TIP3   OH245238   4.792   1.102   0.646 -0.2001 -0.0909  1.0016
 7916TIP3    H145239   4.772   1.060   0.729 -0.8397 -1.2307  0.2954
 7916TIP3    H245240   4.706   1.116   0.605  0.1429 -0.1287  0.2537
 7917TIP3   OH245241   2.500   6.123   0.962 -0.3303 -0.3732  0.3162
 7917TIP3    H145242   2.508   6.162   1.050  0.1697 -0.0441  0.1282
 7917TIP3    H245243   2.498   6.029   0.978 -0.8106 -0.3032  0.7209
 7918TIP3   OH245244   6.318   6.186   5.076 -0.1688 -0.5712 -0.2552
 7918TIP3    H145245   6.346   6.126   5.006  0.9006  1.3582 -1.5968
 7918TIP3    H245246   6.248   6.238   5.036  0.9431  1.0412 -0.2021
 7919TIP3   OH245247   1.340   1.697   0.120  0.2320  0.4566 -0.3995
 7919TIP3    H145248   1.246   1.678   0.111 -0.1650  2.0032  0.0499
 7919TIP3    H245249   1.344   1.763   0.190  1.4135  2.1634 -1.9865
 7920TIP3   OH245250   3.643   0.243   1.808 -0.2001  0.1439 -0.4925
 7920TIP3    H145251   3.549   0.259   1.815 -0.5893 -0.2507 -3.6716
 7920TIP3    H245252   3.652   0.148   1.817 -0.3909 -0.0561 -2.1712
 7921TIP3   OH245253   1.273   2.273  12.109  0.1187 -0.1104  0.6135
 7921TIP3    H145254   1.301   2.215  12.180  0.1541 -0.3546  0.4034
 7921TIP3    H245255   1.257   2.357  12.151 -0.0720 -0.3104  0.9449
 7922TIP3   OH245256   1.434   2.089  11.655 -0.2000 -0.1694  0.1815
 7922TIP3    H145257   1.370   2.059  11.719 -0.2635  0.8875  0.6270
 7922TIP3    H245258   1.457   2.010  11.605 -3.1142 -0.3251 -1.1398
 7923TIP3   OH245259   6.146   3.500   0.180  0.6426 -0.1038  0.0147
 7923TIP3    H145260   6.093   3.480   0.103  0.2983  0.8226  0.0103
 7923TIP3    H245261   6.165   3.414   0.218 -3.4004 -0.4626  1.7505
 7924TIP3   OH245262   4.892   3.691  14.458 -0.1377  0.0284 -0.4475
 7924TIP3    H145263   4.833   3.731  14.394  1.8918  5.1593  0.4176
 7924TIP3    H245264   4.976   3.687  14.414  0.5279  0.3344  0.7517
 7925TIP3   OH245265   4.511   1.508  12.836 -0.2314  0.2419 -0.3110
 7925TIP3    H145266   4.437   1.540  12.887 -0.2595 -1.6536  0.9623
 7925TIP3    H245267   4.517   1.415  12.859  1.1027 -0.1934 -2.1745
 7926TIP3   OH245268   1.484   5.134   3.279  0.1299 -0.7283  0.6701
 7926TIP3    H145269   1.457   5.187   3.355  0.7808 -0.2726  0.5903
 7926TIP3    H245270   1.580   5.131   3.285  0.3311  0.7498 -1.0654
 7927TIP3   OH245271   6.554   3.915  15.754 -0.0680 -0.0760 -0.3760
 7927TIP3    H145272   6.562   3.993  15.698 -0.9699  0.2303 -0.0994
 7927TIP3    H245273   6.568   3.841  15.694  2.6648  0.2818 -0.3229
 7928TIP3   OH245274   6.028   6.375   1.979 -0.1123 -0.0725 -0.2071
 7928TIP3    H145275   6.046   6.457   2.024  0.0808  0.2163 -0.7938
 7928TIP3    H245276   5.933   6.366   1.982 -0.2631  0.8847 -1.3334
 7929TIP3   OH245277   3.494   1.819  11.578  0.0717 -0.1934 -0.1188
 7929TIP3    H145278   3.459   1.730  11.569 -2.1354  0.6951 -1.2644
 7929TIP3    H245279   3.439   1.859  11.645  0.3731  0.6061 -0.3447
 7930TIP3   OH245280   5.754   0.697   4.620 -0.0762 -0.0557  0.7165
 7930TIP3    H145281   5.664   0.685   4.591  0.3227  0.1353 -0.6767
 7930TIP3    H245282   5.808   0.664   4.547  0.9749  0.2870  1.3124
 7931TIP3   OH245283   3.654   0.893   4.836 -0.1244  0.0457 -0.5130
 7931TIP3    H145284   3.698   0.820   4.793 -0.7350 -1.2310  0.9641
 7931TIP3    H245285   3.561   0.873   4.829 -0.4367  1.6588 -1.7297
 7932TIP3   OH245286   5.253   4.841  16.167 -0.0844  0.4752 -0.3439
 7932TIP3    H145287   5.301   4.859  16.086  0.5189 -0.1667 -0.1416
 7932TIP3    H245288   5.265   4.919  16.221  0.3903  0.4860 -0.4621
 7933TIP3   OH245289   2.991   4.626   4.673 -0.1596 -0.1848 -0.8455
 7933TIP3    H145290   2.916   4.616   4.615  0.5917  0.2487 -1.9261
 7933TIP3    H245291   3.022   4.537   4.688 -0.6878 -0.3392 -0.6552
 7934TIP3   OH245292   5.553   5.219  16.175 -0.0047 -0.0922 -0.2445
 7934TIP3    H145293   5.579   5.250  16.088 -0.0564 -0.7430 -0.5013
 7934TIP3    H245294   5.584   5.287  16.235  0.5689  0.0728 -0.7125
 7935TIP3   OH245295   3.457   0.894  12.176 -0.9774 -0.4254  0.2193
 7935TIP3    H145296   3.463   0.890  12.272 -1.4369 -1.6639  0.2178
 7935TIP3    H245297   3.365   0.874  12.158 -0.6880 -1.1401 -0.5131
 7936TIP3   OH245298   3.677   1.068   2.796  0.1064 -0.4643  0.5233
 7936TIP3    H145299   3.583   1.088   2.794  0.2041  0.1770  1.5418
 7936TIP3    H245300   3.691   1.012   2.720 -0.4795  2.2163 -1.7504
 7937TIP3   OH245301   0.504   3.049   6.541 -0.2276 -0.1879 -0.5782
 7937TIP3    H145302   0.425   3.006   6.572  0.0677  0.6132  1.4189
 7937TIP3    H245303   0.494   3.141   6.566  0.6292  0.2602 -1.7559
 7938TIP3   OH245304   2.496   1.760   3.804 -0.0315 -0.3480 -0.4117
 7938TIP3    H145305   2.424   1.813   3.838 -0.2796 -0.5149 -0.6783
 7938TIP3    H245306   2.513   1.796   3.717 -0.7765 -1.2520 -0.9486
 7939TIP3   OH245307   5.868   4.518  11.792 -0.2534  0.3027  0.4103
 7939TIP3    H145308   5.866   4.540  11.699  0.1918  1.2386  0.6170
 7939TIP3    H245309   5.776   4.499  11.814 -0.4232  0.4899 -0.1192
 7940TIP3   OH245310   6.785   5.388  16.973  0.2483 -0.1227  0.8049
 7940TIP3    H145311   6.777   5.430  16.888  2.2661 -0.9594  0.1397
 7940TIP3    H245312   6.712   5.326  16.977  0.0573  0.0225 -0.2449
 7941TIP3   OH245313   1.952   2.559  14.229  0.8285 -0.1685 -0.6561
 7941TIP3    H145314   2.046   2.574  14.237  1.2118 -2.5445  0.2438
 7941TIP3    H245315   1.919   2.570  14.318 -0.1811  2.7330 -1.3033
 7942TIP3   OH245316   1.823   3.060  12.347 -0.3740 -0.4862  0.0833
 7942TIP3    H145317   1.894   3.037  12.408  0.1972 -0.7527 -0.6643
 7942TIP3    H245318   1.856   3.136  12.299 -0.0272 -1.3908 -1.1753
 7943TIP3   OH245319   5.367   2.306  12.277 -0.6759  0.1145 -0.3214
 7943TIP3    H145320   5.389   2.318  12.185 -0.7478 -0.4586 -0.4227
 7943TIP3    H245321   5.283   2.259  12.275 -0.5449 -0.1423  0.0275
 7944TIP3   OH245322   6.597   4.300   5.316  0.1725  0.2172 -0.3548
 7944TIP3    H145323   6.538   4.372   5.341 -1.3891 -0.0421 -2.8935
 7944TIP3    H245324   6.540   4.223   5.312  1.1174 -0.4675 -0.9297
 7945TIP3   OH245325   3.181   2.956   2.511  0.5203 -0.3967  0.5452
 7945TIP3    H145326   3.235   3.002   2.446 -0.1180  1.5395  1.3242
 7945TIP3    H245327   3.094   2.955   2.473  0.2512  0.2935  1.1137
 7946TIP3   OH245328   3.714   5.776  10.830  0.1064  0.0089  0.1120
 7946TIP3    H145329   3.662   5.808  10.904 -1.0835  0.6723 -0.9647
 7946TIP3    H245330   3.715   5.849  10.768  1.7769 -0.2414 -0.1979
 7947TIP3   OH245331   4.777   5.986   5.055  0.4684  0.8341 -0.6947
 7947TIP3    H145332   4.771   5.898   5.017 -1.6165  0.9710 -0.8120
 7947TIP3    H245333   4.787   5.972   5.149  0.1313  0.4594 -0.7123
 7948TIP3   OH245334   5.309   5.508  17.049  0.8103 -0.4108 -0.3540
 7948TIP3    H145335   5.310   5.567  16.974 -1.4729 -0.8112 -0.7515
 7948TIP3    H245336   5.256   5.554  17.115 -0.2925 -1.6253 -0.3613
 7949TIP3   OH245337   6.552   0.364  16.975 -0.2280  0.4525  0.0071
 7949TIP3    H145338   6.511   0.284  17.007 -0.5733  0.4399 -0.4631
 7949TIP3    H245339   6.594   0.339  16.892  1.7100  0.1850  0.9965
 7950TIP3   OH245340   1.949   3.699  15.245  0.4239 -0.0298  0.0027
 7950TIP3    H145341   1.930   3.671  15.155 -0.8616 -0.1750  0.3041
 7950TIP3    H245342   1.875   3.753  15.270  1.8466  1.9146  0.2132
 7951TIP3   OH245343   4.821   2.719  16.064 -0.0017  0.6091 -1.0547
 7951TIP3    H145344   4.740   2.674  16.041 -1.0201  1.8326 -0.0196
 7951TIP3    H245345   4.880   2.650  16.093 -0.9996 -0.1992 -0.9091
 7952TIP3   OH245346   3.432   0.793   4.505  0.4172 -0.7069  0.4766
 7952TIP3    H145347   3.371   0.803   4.432  0.8020 -0.6222  0.1612
 7952TIP3    H245348   3.515   0.828   4.472  1.1181 -2.4352  0.2673
 7953TIP3   OH245349   0.730   4.093  15.064  0.8366  0.3105 -0.4482
 7953TIP3    H145350   0.656   4.154  15.063  0.8590  0.3677  0.5978
 7953TIP3    H245351   0.753   4.084  15.156  1.7723 -0.1564 -0.7125
 7954TIP3   OH245352   1.641   2.656  13.702  0.2679  0.1186  0.6179
 7954TIP3    H145353   1.601   2.629  13.619  1.1782  1.5922 -0.3495
 7954TIP3    H245354   1.594   2.606  13.769  0.2430 -1.9714 -0.8407
 7955TIP3   OH245355   2.377   1.804  13.376 -0.1109  0.1897  0.5141
 7955TIP3    H145356   2.469   1.824  13.360  0.0943 -1.5197 -0.8018
 7955TIP3    H245357   2.371   1.709  13.367 -2.3833  0.4289 -1.8072
 7956TIP3   OH245358   6.621   3.755   0.424 -0.1958  0.2114  0.4737
 7956TIP3    H145359   6.651   3.758   0.333 -0.9807  1.3880  0.2289
 7956TIP3    H245360   6.526   3.752   0.418 -0.2510  0.1325  1.2623
 7957TIP3   OH245361   1.185   4.186   3.400 -0.3625 -0.7689  0.1279
 7957TIP3    H145362   1.131   4.230   3.334  2.2463  0.0450 -1.5948
 7957TIP3    H245363   1.164   4.231   3.482 -1.7406 -0.0182 -0.6012
 7958TIP3   OH245364   2.510   1.666  11.791 -0.6353 -0.5297 -0.5664
 7958TIP3    H145365   2.526   1.754  11.825 -1.3701 -0.2137 -1.0211
 7958TIP3    H245366   2.551   1.607  11.855 -1.2327  0.0881  0.4028
 7959TIP3   OH245367   2.491   0.267  11.195 -0.6366  0.0277  0.2190
 7959TIP3    H145368   2.521   0.180  11.220 -1.1955  0.0026  0.8518
 7959TIP3    H245369   2.422   0.287  11.258  1.4002  2.1311  2.0043
 7960TIP3   OH245370   0.337   5.445  15.079 -0.2863 -0.4034  0.1066
 7960TIP3    H145371   0.272   5.475  15.016 -0.3111  2.3637  1.3008
 7960TIP3    H245372   0.286   5.401  15.148 -0.6830  0.0021  0.0729
 7961TIP3   OH245373   4.827   5.063   5.249 -0.8180 -0.0020  0.2586
 7961TIP3    H145374   4.736   5.033   5.255 -1.1115  0.1253 -2.3334
 7961TIP3    H245375   4.850   5.089   5.338 -3.0400 -0.8170  1.1359
 7962TIP3   OH245376   0.645   1.590  14.991 -0.0357 -0.0464 -0.3618
 7962TIP3    H145377   0.710   1.565  15.057 -1.3258 -1.3428  0.4662
 7962TIP3    H245378   0.566   1.609  15.040 -0.8885 -0.5445 -1.4823
 7963TIP3   OH245379   4.509   0.933   0.270  0.1427  0.2381  0.4334
 7963TIP3    H145380   4.419   0.901   0.274  0.1947  0.2084  2.1173
 7963TIP3    H245381   4.550   0.880   0.202 -0.8995 -0.3156  0.2079
 7964TIP3   OH245382   0.750   6.326  11.595  0.5603  0.4702 -0.5603
 7964TIP3    H145383   0.661   6.350  11.568  0.1308 -0.8315 -0.3808
 7964TIP3    H245384   0.740   6.294  11.685  1.4092  1.3873 -0.1217
 7965TIP3   OH245385   5.883   1.286   3.770 -0.0791 -0.6342  0.1627
 7965TIP3    H145386   5.891   1.342   3.847  0.6982  0.6185 -0.7998
 7965TIP3    H245387   5.896   1.197   3.804  0.3070 -0.0992  1.4722
 7966TIP3   OH245388   4.513   1.881  16.659 -0.9298 -0.2093 -0.0688
 7966TIP3    H145389   4.511   1.796  16.615 -0.5787 -0.9604  1.2967
 7966TIP3    H245390   4.554   1.940  16.595 -0.2083 -1.3070 -0.6515
 7967TIP3   OH245391   0.918   4.415  15.000 -0.6182 -0.4265 -0.1615
 7967TIP3    H145392   0.875   4.401  14.916 -0.6749 -1.5273  0.0436
 7967TIP3    H245393   0.846   4.427  15.062 -0.5826  0.0335 -0.2073
 7968TIP3   OH245394   2.321   0.020   2.870  0.1211  0.3431 -0.2748
 7968TIP3    H145395   2.369   0.030   2.788  1.2001  0.6163  0.3694
 7968TIP3    H245396   2.269  -0.059   2.858  1.9360 -0.8965 -0.4546
 7969TIP3   OH245397   3.911   1.625  11.119  0.2623  0.1221  0.1766
 7969TIP3    H145398   3.965   1.579  11.054  1.7656 -1.7761  2.5919
 7969TIP3    H245399   3.973   1.682  11.165 -0.8153  1.5878 -0.1217
 7970TIP3   OH245400   4.746   6.108   0.115  0.6651 -0.1361 -0.0951
 7970TIP3    H145401   4.725   6.153   0.196 -2.6365 -0.6783 -0.5424
 7970TIP3    H245402   4.721   6.169   0.046  0.7225 -0.7910 -0.7138
 7971TIP3   OH245403   1.432   3.137  13.357  0.3148  0.2471 -0.0949
 7971TIP3    H145404   1.497   3.138  13.287  1.7067 -0.8244  1.1182
 7971TIP3    H245405   1.374   3.065  13.335  1.3598 -0.7612  0.3407
 7972TIP3   OH245406   5.415   1.860   5.842  0.0443  0.0716 -0.0874
 7972TIP3    H145407   5.477   1.802   5.885 -0.6405  0.5696  1.6428
 7972TIP3    H245408   5.370   1.905   5.913 -1.3818  0.6957 -1.3183
 7973TIP3   OH245409   4.688   5.269   5.823 -0.4849 -0.4157  0.1253
 7973TIP3    H145410   4.646   5.320   5.892 -1.7352 -0.1366 -0.8150
 7973TIP3    H245411   4.676   5.321   5.743  0.6077 -0.9050 -0.3788
 7974TIP3   OH245412   3.026   1.378  16.054 -0.1296  0.0446 -0.4564
 7974TIP3    H145413   2.994   1.460  16.016 -1.9568 -0.0662  0.7071
 7974TIP3    H245414   3.045   1.322  15.979 -2.7071  0.1693 -1.2867
 7975TIP3   OH245415   3.987   6.115   0.243 -0.1114  0.0415  0.1608
 7975TIP3    H145416   4.026   6.103   0.330 -1.6319 -0.3193  0.8190
 7975TIP3    H245417   3.962   6.207   0.241  1.9482  0.6347 -0.7994
 7976TIP3   OH245418   6.289   0.926   2.389 -0.6530  0.4819  0.9503
 7976TIP3    H145419   6.225   0.907   2.458  0.9617  1.9642  2.9805
 7976TIP3    H245420   6.370   0.886   2.420 -0.3159 -0.6776 -1.1961
 7977TIP3   OH245421   6.765   0.047  15.212 -0.1381  0.1278  0.0841
 7977TIP3    H145422   6.809  -0.003  15.143 -0.0213  0.2756  0.0502
 7977TIP3    H245423   6.752  -0.016  15.283  1.1755  0.3424  0.5559
 7978TIP3   OH245424   6.410   4.422  12.469  0.2912  0.1833 -0.3985
 7978TIP3    H145425   6.330   4.417  12.522 -0.2487  0.3235 -1.1752
 7978TIP3    H245426   6.481   4.424  12.533 -0.2628 -1.1228  0.2885
 7979TIP3   OH245427   4.337   4.247  15.431  0.0226  0.0077 -0.3314
 7979TIP3    H145428   4.431   4.259  15.434 -0.0400  0.4474 -0.0567
 7979TIP3    H245429   4.315   4.206  15.514  0.2075 -1.9266 -1.1689
 7980TIP3   OH245430   1.724   1.665  17.059  0.0368 -0.5147  0.5870
 7980TIP3    H145431   1.722   1.726  16.985 -1.3615 -0.3960  0.6931
 7980TIP3    H245432   1.641   1.616  17.052 -0.5843  0.1473  2.5895
 7981TIP3   OH245433   0.974   5.411   0.688  0.1430  0.2486  0.3831
 7981TIP3    H145434   0.918   5.488   0.677  0.5460  0.3926 -0.7103
 7981TIP3    H245435   0.963   5.361   0.608 -0.0087 -0.7811  1.0288
 7982TIP3   OH245436   6.337   0.248   3.752 -0.0525 -0.7620 -0.0924
 7982TIP3    H145437   6.415   0.295   3.782  0.5313 -1.8667  0.1600
 7982TIP3    H245438   6.272   0.317   3.737  0.8520  0.1412  0.0451
 7983TIP3   OH245439   5.734   1.614  14.925 -0.2222  0.3025  0.0499
 7983TIP3    H145440   5.793   1.689  14.928 -0.2757  0.3339  2.6025
 7983TIP3    H245441   5.792   1.538  14.936 -0.2700  0.0200 -1.5278
 7984TIP3   OH245442   5.904   4.596  15.973 -0.1045 -0.6501  0.0738
 7984TIP3    H145443   5.938   4.645  15.899 -0.5292  2.5754  1.8646
 7984TIP3    H245444   5.980   4.581  16.030 -0.0089 -2.0753 -0.3666
 7985TIP3   OH245445   3.702   1.334   1.081 -0.0113  0.4013 -0.0628
 7985TIP3    H145446   3.759   1.337   1.004  0.5529 -1.1836  0.2675
 7985TIP3    H245447   3.618   1.368   1.050 -0.2654 -1.6326 -1.8276
 7986TIP3   OH245448   3.558   5.606  14.337 -0.1770  0.1942 -0.1624
 7986TIP3    H145449   3.476   5.613  14.288  0.8805 -1.1984 -2.2835
 7986TIP3    H245450   3.626   5.624  14.273  1.3135 -2.4643  0.5192
 7987TIP3   OH245451   6.118   1.908  15.730  0.1629 -0.1013  0.0478
 7987TIP3    H145452   6.203   1.907  15.774 -1.1779 -1.7869  2.8785
 7987TIP3    H245453   6.140   1.912  15.637  3.3849 -1.4936  0.5786
 7988TIP3   OH245454   5.569   1.794   1.264 -0.4735 -0.1274 -0.3941
 7988TIP3    H145455   5.652   1.746   1.270 -0.2965  0.2670  0.4972
 7988TIP3    H245456   5.518   1.745   1.200  0.0370 -1.0068 -0.1500
 7989TIP3   OH245457   4.006   3.191  13.692  0.2835 -0.6880 -0.0056
 7989TIP3    H145458   3.934   3.203  13.631  1.8917 -3.0832 -2.5800
 7989TIP3    H245459   4.046   3.278  13.699 -1.9287  0.3672  0.4060
 7990TIP3   OH245460   4.935   4.859   5.910 -0.2171  0.2055 -0.3262
 7990TIP3    H145461   4.943   4.856   5.815  0.4772 -0.7028 -0.2619
 7990TIP3    H245462   4.909   4.949   5.930 -0.2663  0.4291 -1.3653
 7991TIP3   OH245463   4.710   5.030   2.467  0.1383 -0.0275 -0.1151
 7991TIP3    H145464   4.787   4.983   2.499  1.1979  0.8835 -1.2373
 7991TIP3    H245465   4.739   5.121   2.461 -0.0612 -0.0661 -3.2466
 7992TIP3   OH245466   6.084   4.260   4.060 -0.3040  0.8718 -0.8039
 7992TIP3    H145467   6.099   4.324   4.129  2.5392 -0.9115  0.3988
 7992TIP3    H245468   6.031   4.192   4.102  2.3754 -0.7738  0.1354
 7993TIP3   OH245469   5.304   4.751   6.118  0.6022 -0.2176 -0.0255
 7993TIP3    H145470   5.365   4.809   6.165 -1.1745  0.7855  1.1369
 7993TIP3    H245471   5.297   4.674   6.175  0.4181 -0.1306  0.0683
 7994TIP3   OH245472   4.016   0.519   2.016  0.2809 -0.0728 -0.2277
 7994TIP3    H145473   4.096   0.569   2.029  0.1607  0.2514 -0.6814
 7994TIP3    H245474   4.020   0.448   2.080  0.5516  0.4044  0.2897
 7995TIP3   OH245475   2.674   6.524   6.244  0.0136 -0.0533 -0.0334
 7995TIP3    H145476   2.706   6.606   6.282 -0.9874  0.1312  0.4334
 7995TIP3    H245477   2.603   6.496   6.302 -0.7884 -0.3639 -1.1302
 7996TIP3   OH245478   5.032   1.445  14.870 -0.6525  0.8207  0.5566
 7996TIP3    H145479   4.938   1.432  14.874 -0.9638  2.7548  0.6982
 7996TIP3    H245480   5.044   1.506  14.797  0.7024 -0.7533 -0.6283
 7997TIP3   OH245481   3.512   5.547  12.718 -0.2328 -0.2621  0.5114
 7997TIP3    H145482   3.455   5.471  12.732 -1.0831  0.2035 -0.2779
 7997TIP3    H245483   3.453   5.616  12.686  0.6710  0.4462  0.3132
 7998TIP3   OH245484   1.186   2.349   1.948  0.3007 -0.1921  0.1430
 7998TIP3    H145485   1.126   2.408   1.993  1.3737  0.0497  1.3357
 7998TIP3    H245486   1.218   2.290   2.017  0.2632 -1.3257 -0.7645
 7999TIP3   OH245487   1.345   4.484  10.984 -0.0923 -0.2568 -0.9528
 7999TIP3    H145488   1.336   4.540  11.061  0.6424 -0.2627 -0.8550
 7999TIP3    H245489   1.393   4.538  10.922  0.0779 -0.5650 -1.0895
 8000TIP3   OH245490   0.526   5.372  13.852  0.2472  0.0402  0.0847
 8000TIP3    H145491   0.590   5.440  13.832 -0.3240  0.8540  0.9408
 8000TIP3    H245492   0.503   5.386  13.943  0.2042 -1.3923  0.3219
 8001TIP3   OH245493   1.398   2.117   1.543 -0.0663 -0.3179 -0.3436
 8001TIP3    H145494   1.368   2.026   1.533 -0.4694 -0.1202 -1.0129
 8001TIP3    H245495   1.335   2.168   1.493  0.5102  0.2754 -0.4730
 8002TIP3   OH245496   4.049   6.745  12.860 -0.6294 -0.0207 -0.4496
 8002TIP3    H145497   4.031   6.839  12.858  0.6771  0.2346 -2.3560
 8002TIP3    H245498   3.972   6.705  12.821 -0.7778  0.3260 -0.5129
 8003TIP3   OH245499   0.399   1.703   1.340  0.0624 -0.2692 -0.2579
 8003TIP3    H145500   0.472   1.765   1.331  1.1827 -1.6096 -0.7309
 8003TIP3    H245501   0.345   1.740   1.411  1.2861  0.6750  0.2162
 8004TIP3   OH245502   5.661   5.514   3.254  0.1150  0.4730 -0.1189
 8004TIP3    H145503   5.608   5.434   3.249 -0.2551  0.7218 -0.1996
 8004TIP3    H245504   5.650   5.544   3.344  1.4376 -0.3652  0.3488
 8005TIP3   OH245505   3.759   0.662   4.737  0.5270 -1.1937  0.2026
 8005TIP3    H145506   3.834   0.690   4.685 -0.7424  1.6598 -0.2839
 8005TIP3    H245507   3.722   0.587   4.689  1.6769 -1.1438 -0.7945
 8006TIP3   OH245508   4.507   1.846   5.199 -0.5774  0.4775 -0.2812
 8006TIP3    H145509   4.529   1.872   5.109  0.4992 -1.2278 -0.5553
 8006TIP3    H245510   4.422   1.801   5.190  0.8780 -2.3885 -1.0434
 8007TIP3   OH245511   0.547   0.973   5.555 -0.2173 -1.0873  0.3710
 8007TIP3    H145512   0.498   1.025   5.619 -0.2603 -2.5134  1.5425
 8007TIP3    H245513   0.481   0.917   5.514  0.0908 -1.4266  0.3390
 8008TIP3   OH245514   5.778   6.615   0.849  0.2048  0.2259  0.1430
 8008TIP3    H145515   5.716   6.602   0.777 -0.4365 -0.2335  0.7637
 8008TIP3    H245516   5.738   6.570   0.923  0.5285  1.2564  0.9634
 8009TIP3   OH245517   3.728   4.259  12.637  0.2495  0.0631 -0.2141
 8009TIP3    H145518   3.808   4.299  12.602  0.0893 -0.4376 -1.1642
 8009TIP3    H245519   3.709   4.187  12.578 -1.5576  0.8705 -0.6920
 8010TIP3   OH245520   3.173   3.234   6.218 -0.3294 -0.0428  0.2485
 8010TIP3    H145521   3.105   3.301   6.227 -1.3931 -1.0063 -0.3984
 8010TIP3    H245522   3.146   3.165   6.279 -0.3629 -0.7758 -0.5816
 8011TIP3   OH245523   3.462   4.579   2.392  0.7020 -0.2491 -0.4876
 8011TIP3    H145524   3.529   4.518   2.361 -0.3917 -1.7981  0.0539
 8011TIP3    H245525   3.415   4.530   2.461 -1.4301  0.4829 -1.3291
 8012TIP3   OH245526   2.593   6.455  14.142  0.4913  0.2059  0.0946
 8012TIP3    H145527   2.616   6.548  14.144 -0.4652  0.4660 -0.6660
 8012TIP3    H245528   2.575   6.433  14.234  0.1983  0.9100  0.2106
 8013TIP3   OH245529   0.825   6.384  11.228 -0.2059 -0.1663 -0.4363
 8013TIP3    H145530   0.865   6.467  11.199 -0.9473  0.4235  0.1717
 8013TIP3    H245531   0.739   6.410  11.261  0.5642 -0.7426  2.2793
 8014TIP3   OH245532   6.148   4.118   0.403 -0.2501 -0.6146 -0.4001
 8014TIP3    H145533   6.137   4.093   0.495 -0.9883  1.3903  0.1050
 8014TIP3    H245534   6.060   4.115   0.367 -0.2847  0.5612 -0.4692
 8015TIP3   OH245535   3.472   6.139  16.490  0.8422  0.0436  0.3631
 8015TIP3    H145536   3.413   6.186  16.548  0.1881 -0.1643 -0.1228
 8015TIP3    H245537   3.463   6.047  16.515 -0.2623 -0.1812 -0.7568
 8016TIP3   OH245538   2.962   1.133   2.228  0.1076  0.1135 -0.2582
 8016TIP3    H145539   2.967   1.038   2.241  0.0693 -0.4184 -3.2983
 8016TIP3    H245540   2.871   1.156   2.248 -0.0576 -0.6278 -0.1444
 8017TIP3   OH245541   5.014   5.587  15.213 -0.5843  0.2470 -0.4371
 8017TIP3    H145542   4.943   5.578  15.276  0.2060 -0.7866  0.3517
 8017TIP3    H245543   5.024   5.682  15.200 -2.6246  0.3971 -1.2185
 8018TIP3   OH245544   3.997   0.916  14.589 -0.4231 -0.0001  0.0502
 8018TIP3    H145545   4.039   0.830  14.584  1.8610  1.0369  0.0906
 8018TIP3    H245546   4.003   0.941  14.681 -1.8364 -0.1253  0.1933
 8019TIP3   OH245547   1.549   1.869  14.978 -0.2279 -0.5032 -0.0661
 8019TIP3    H145548   1.486   1.801  15.001 -0.5565  0.1928  1.1925
 8019TIP3    H245549   1.527   1.943  15.035  2.0525 -0.4283  0.8319
 8020TIP3   OH245550   5.438   2.615  16.817 -0.1615  0.2437  0.2912
 8020TIP3    H145551   5.503   2.646  16.754  0.5066  0.2748  0.9832
 8020TIP3    H245552   5.388   2.549  16.769  0.4595  0.1315 -0.2151
 8021TIP3   OH245553   1.057   4.454   5.299 -0.0810  0.6819 -0.2541
 8021TIP3    H145554   1.072   4.363   5.326  1.3466  1.3187  1.2486
 8021TIP3    H245555   1.015   4.446   5.213 -0.5446 -1.3945  0.1039
 8022TIP3   OH245556   0.451   1.667  12.529 -0.2014 -0.0057  0.1490
 8022TIP3    H145557   0.393   1.625  12.467  0.2375 -1.1455  0.4962
 8022TIP3    H245558   0.398   1.738  12.567 -0.8765 -0.1066 -0.5878
 8023TIP3   OH245559   2.270   3.074   1.690  0.3122 -0.3787 -0.0062
 8023TIP3    H145560   2.193   3.132   1.685  0.3889 -0.1452  1.1615
 8023TIP3    H245561   2.344   3.130   1.666 -0.0401 -1.0827 -3.0654
 8024TIP3   OH245562   2.350   5.483  12.733 -0.1632  0.0381 -0.0694
 8024TIP3    H145563   2.347   5.488  12.637  0.4772  0.4731 -0.0763
 8024TIP3    H245564   2.408   5.554  12.758  0.0273 -0.3536  0.6140
 8025TIP3   OH245565   1.402   5.380  14.976 -0.2581  0.0666 -0.0424
 8025TIP3    H145566   1.450   5.462  14.984 -2.2058  1.2770 -0.1716
 8025TIP3    H245567   1.336   5.384  15.044 -1.0921 -0.8761 -0.7752
 8026TIP3   OH245568   6.770   2.294   4.465  0.0385 -0.0005 -0.4518
 8026TIP3    H145569   6.791   2.264   4.376  1.3905  0.5480 -0.3409
 8026TIP3    H245570   6.846   2.267   4.517 -0.3682  0.4307  0.3737
 8027TIP3   OH245571   2.159   4.427   5.371  0.6631 -0.0264 -0.1185
 8027TIP3    H145572   2.090   4.388   5.318  0.5066  0.3875 -0.2220
 8027TIP3    H245573   2.190   4.355   5.426  0.4258 -0.3130 -0.3545
 8028TIP3   OH245574   5.758   6.073  11.686 -0.1849 -0.4231 -0.0521
 8028TIP3    H145575   5.850   6.053  11.703  0.0170  1.2355  0.9506
 8028TIP3    H245576   5.759   6.158  11.643 -1.2880 -0.0512  0.6104
 8029TIP3   OH245577   0.931   5.604   5.448 -0.4016 -0.1740  0.2560
 8029TIP3    H145578   0.873   5.635   5.518  1.1744  0.2261  1.4730
 8029TIP3    H245579   0.908   5.657   5.372 -2.2310 -0.6846  0.4272
 8030TIP3   OH245580   3.197   1.722   1.975 -0.4881 -0.4062  0.0628
 8030TIP3    H145581   3.148   1.656   2.024 -1.8766  0.9545  0.6249
 8030TIP3    H245582   3.149   1.804   1.991  0.1420  0.4396 -1.9976
 8031TIP3   OH245583   3.454   2.086  12.928  0.6098  0.6284  0.2647
 8031TIP3    H145584   3.427   2.088  13.020 -0.5289  1.0720 -0.0662
 8031TIP3    H245585   3.504   2.167  12.917  1.4382  0.1881  0.6815
 8032TIP3   OH245586   2.262   4.177  11.251 -0.4150 -0.5277 -0.7620
 8032TIP3    H145587   2.297   4.265  11.235  0.4274 -0.6277  0.3681
 8032TIP3    H245588   2.191   4.167  11.188 -0.2709  0.8199 -1.1644
 8033TIP3   OH245589   5.405   2.677  12.855 -0.6235  0.2224 -0.2432
 8033TIP3    H145590   5.343   2.667  12.927 -0.1351  0.0461  0.1585
 8033TIP3    H245591   5.394   2.766  12.824 -0.2878  0.5520  0.5664
 8034TIP3   OH245592   4.372   1.061   3.254  0.4340 -0.3253 -0.2497
 8034TIP3    H145593   4.295   1.021   3.295  0.8625 -0.9845 -0.0664
 8034TIP3    H245594   4.347   1.072   3.162 -0.7815  1.7883  0.2607
 8035TIP3   OH245595   4.365   0.479  13.450 -0.2366  0.5305  0.0056
 8035TIP3    H145596   4.313   0.405  13.419  1.0886 -0.2988 -0.3358
 8035TIP3    H245597   4.425   0.441  13.515  0.7246  1.2046 -0.4602
 8036TIP3   OH245598   0.985   0.491  15.000  0.1848 -0.6997 -0.4145
 8036TIP3    H145599   1.003   0.499  14.906 -2.2612  1.4235 -0.8180
 8036TIP3    H245600   1.062   0.528  15.043  1.4564 -1.9396 -1.5020
 8037TIP3   OH245601   5.302   4.006  17.098  0.0054 -0.4300  0.2581
 8037TIP3    H145602   5.331   3.921  17.064  3.4433  0.0707  1.6088
 8037TIP3    H245603   5.228   4.030  17.041  0.9158 -2.8537 -2.1726
 8038TIP3   OH245604   6.560   1.390   4.958  0.1883 -0.8163 -0.3356
 8038TIP3    H145605   6.526   1.383   4.869 -0.5345 -2.6517  0.0359
 8038TIP3    H245606   6.647   1.428   4.948  0.3563 -1.5297 -1.8815
 8039TIP3   OH245607   5.728   5.239  14.666 -0.2785  0.4650 -0.1551
 8039TIP3    H145608   5.665   5.197  14.608 -0.0161  0.5648 -0.5153
 8039TIP3    H245609   5.790   5.170  14.689  0.2778  0.7026 -0.9223
 8040TIP3   OH245610   5.687   6.734   3.472 -0.2347  0.2633 -0.2970
 8040TIP3    H145611   5.723   6.646   3.480  0.4143  0.5345 -0.1702
 8040TIP3    H245612   5.727   6.769   3.392 -0.9460  0.2312 -0.6719
 8041TIP3   OH245613   4.585   6.383  16.820  0.4285 -0.0210  0.0276
 8041TIP3    H145614   4.637   6.432  16.884  0.3099  0.3379 -0.1467
 8041TIP3    H245615   4.496   6.382  16.856  0.0802  1.2715 -0.7124
 8042TIP3   OH245616   4.892   1.963   2.838  0.3033 -0.3230  0.2068
 8042TIP3    H145617   4.882   1.868   2.830 -1.5419 -0.3635  2.1574
 8042TIP3    H245618   4.805   1.994   2.862  1.1913  1.7051  0.9860
 8043TIP3   OH245619   3.057   6.426   5.929 -0.5582  0.3557  0.3639
 8043TIP3    H145620   3.034   6.410   6.020 -1.6517  0.2693  0.0797
 8043TIP3    H245621   2.974   6.446   5.885 -0.2383 -0.7827 -0.8542
 8044TIP3   OH245622   1.958   4.436   1.010 -0.0264  0.6556 -0.1360
 8044TIP3    H145623   1.882   4.490   0.989  0.4076  2.1734  1.8274
 8044TIP3    H245624   1.949   4.420   1.104  1.8754  0.5475  0.0514
 8045TIP3   OH245625   2.128   4.874   2.537  0.3563 -0.2733  0.5018
 8045TIP3    H145626   2.084   4.792   2.559 -1.4852  0.2310 -0.9708
 8045TIP3    H245627   2.162   4.859   2.448 -0.6529  0.7676 -0.0796
 8046TIP3   OH245628   4.344   3.926   4.029  0.5676  0.3012  0.0744
 8046TIP3    H145629   4.345   3.896   4.120  0.5864 -0.0014 -0.0249
 8046TIP3    H245630   4.274   3.991   4.026 -1.0017 -1.3099 -0.2070
 8047TIP3   OH245631   4.433   6.693   3.237  0.4386  0.4287  0.0099
 8047TIP3    H145632   4.401   6.684   3.327 -0.1537 -1.6527 -0.3547
 8047TIP3    H245633   4.409   6.611   3.195  0.3641  1.5068 -2.1844
 8048TIP3   OH245634   2.432   4.859   5.796 -0.2033 -0.0901 -0.6366
 8048TIP3    H145635   2.401   4.851   5.706 -1.8499 -1.0059 -0.0241
 8048TIP3    H245636   2.410   4.775   5.837  0.3347  0.3765  0.6780
 8049TIP3   OH245637   5.773   2.925  16.773  0.4501  0.4933  0.2271
 8049TIP3    H145638   5.695   2.978  16.752  1.6038  1.9417 -0.6181
 8049TIP3    H245639   5.819   2.916  16.690  1.4888  0.1812  0.8170
 8050TIP3   OH245640   5.686   4.659  10.625  0.3059 -0.0143  0.0130
 8050TIP3    H145641   5.599   4.636  10.657 -0.0521  1.5809  0.2704
 8050TIP3    H245642   5.728   4.574  10.606 -1.1748 -0.8111  0.1644
 8051TIP3   OH245643   4.756   4.539  14.576  0.3623  0.7279 -0.0318
 8051TIP3    H145644   4.823   4.508  14.637  0.0827  0.5855  0.2040
 8051TIP3    H245645   4.758   4.635  14.585 -0.6042  0.6482  1.1964
 8052TIP3   OH245646   1.090   6.112   5.420 -0.5376  0.0167  0.1218
 8052TIP3    H145647   1.093   6.154   5.505  2.5654  2.1393 -0.8664
 8052TIP3    H245648   1.166   6.053   5.420 -0.2174  0.3972 -1.3186
 8053TIP3   OH245649   3.336   0.122  11.358  0.2849  0.1472  0.0077
 8053TIP3    H145650   3.410   0.131  11.298  0.7126  0.8637  0.6137
 8053TIP3    H245651   3.306   0.212  11.373  1.7058  0.3118  2.6644
 8054TIP3   OH245652   2.649   6.718  14.153  0.0748  0.1088  0.7543
 8054TIP3    H145653   2.673   6.730  14.062 -0.0709 -0.4266  0.6356
 8054TIP3    H245654   2.601   6.797  14.177 -0.6503 -0.1139  0.0978
 8055TIP3   OH245655   0.032   2.995  14.694 -0.3511 -0.2378  0.0371
 8055TIP3    H145656  -0.060   3.001  14.668  0.2535  1.0075 -2.1109
 8055TIP3    H245657   0.067   2.923  14.642 -0.0926 -0.7508  0.8966
 8056TIP3   OH245658   1.460   0.306   3.772 -0.5481 -0.1836 -0.3076
 8056TIP3    H145659   1.381   0.351   3.800  0.6020  2.0057 -0.3556
 8056TIP3    H245660   1.489   0.354   3.694  0.8868 -0.8247 -0.2100
 8057TIP3   OH245661   2.085   3.096   0.759  0.7301 -0.0865 -0.3182
 8057TIP3    H145662   2.168   3.054   0.738 -0.6974 -3.4268  0.1579
 8057TIP3    H245663   2.035   3.093   0.678  0.2773 -0.0794 -0.0396
 8058TIP3   OH245664   3.423   6.629  12.796  0.0293  0.2559  0.9121
 8058TIP3    H145665   3.468   6.558  12.751  0.7200  0.7860  0.7383
 8058TIP3    H245666   3.391   6.589  12.877 -0.2774 -0.4359  0.4564
 8059TIP3   OH245667   6.547   5.821  14.017 -0.3111 -0.0757 -0.0011
 8059TIP3    H145668   6.563   5.852  14.107  1.2071 -0.3294 -0.1572
 8059TIP3    H245669   6.456   5.844  14.000 -0.8966 -0.7999  1.9106
 8060TIP3   OH245670   4.254   5.341  14.617  0.1694  0.0210  0.0171
 8060TIP3    H145671   4.282   5.410  14.678 -1.1641  2.1748 -1.6409
 8060TIP3    H245672   4.256   5.383  14.531 -0.1829 -2.2309 -1.1718
 8061TIP3   OH245673   0.407   6.696   5.330 -0.2912  0.2546 -0.3509
 8061TIP3    H145674   0.464   6.756   5.280  0.0069  0.3923  0.1471
 8061TIP3    H245675   0.424   6.610   5.291 -0.6832  0.4813 -1.0371
 8062TIP3   OH245676   5.868   6.338  13.064 -0.6163 -0.1701 -0.1605
 8062TIP3    H145677   5.882   6.293  12.981 -1.8676 -1.1109  0.1087
 8062TIP3    H245678   5.869   6.431  13.041 -0.3475 -0.4009 -1.1262
 8063TIP3   OH245679   3.713   6.474  16.924  0.1179 -0.0355 -0.2240
 8063TIP3    H145680   3.736   6.536  16.854 -0.0764 -0.0353 -0.2873
 8063TIP3    H245681   3.671   6.402  16.879  0.7698 -0.4380 -0.2037
 8064TIP3   OH245682   4.163   5.445   2.928  0.1434 -0.3566 -0.4966
 8064TIP3    H145683   4.113   5.515   2.887 -0.5466 -0.2390  0.4892
 8064TIP3    H245684   4.254   5.474   2.924 -0.1761  0.8343  0.2957
 8065TIP3   OH245685   6.549   3.826   3.239 -0.1396  0.1592 -0.4380
 8065TIP3    H145686   6.565   3.819   3.333 -0.1694 -1.2813 -0.5217
 8065TIP3    H245687   6.456   3.808   3.229 -0.0091 -0.3493 -0.7930
 8066TIP3   OH245688   6.199   6.394   0.735 -0.1352  0.0344  0.0973
 8066TIP3    H145689   6.246   6.470   0.699  0.3827 -0.0822  0.5085
 8066TIP3    H245690   6.191   6.414   0.828 -0.2042 -0.3114  0.1643
 8067TIP3   OH245691   6.498   6.085   2.974 -0.2870 -0.8317  0.1512
 8067TIP3    H145692   6.561   6.131   2.918 -0.7260  0.0646  0.3741
 8067TIP3    H245693   6.460   6.018   2.918  2.2872 -2.7866  0.5140
 8068TIP3   OH245694   6.227   1.884   3.762  0.2053  0.3830  0.7268
 8068TIP3    H145695   6.138   1.883   3.797  0.1784  0.8794  0.6786
 8068TIP3    H245696   6.247   1.977   3.749  0.4692  0.2441  0.0733
 8069TIP3   OH245697   3.184   2.525   6.248  0.2063  0.2780  0.1906
 8069TIP3    H145698   3.250   2.515   6.317 -0.0230 -0.2639  0.3372
 8069TIP3    H245699   3.134   2.603   6.273 -1.1317 -0.9851  1.7228
 8070TIP3   OH245700   6.630   5.343  12.348 -0.4773 -0.1079 -0.2006
 8070TIP3    H145701   6.591   5.416  12.301 -1.4531 -1.0838 -0.9550
 8070TIP3    H245702   6.585   5.341  12.432 -1.9778 -1.0755 -0.9710
 8071TIP3   OH245703   1.421   6.021  12.293 -0.2374 -0.2871 -0.2354
 8071TIP3    H145704   1.455   6.091  12.237 -1.2167  0.9376  0.6262
 8071TIP3    H245705   1.433   5.941  12.242  0.3043  0.5885 -1.5351
 8072TIP3   OH245706   5.001   0.835  15.084 -0.1362  0.3667  0.3617
 8072TIP3    H145707   4.971   0.832  15.175 -2.3555  1.2682 -0.2742
 8072TIP3    H245708   5.058   0.912  15.080 -0.9888  1.0407  0.7598
 8073TIP3   OH245709   5.266   0.047  15.174  0.1605  0.2123  0.3645
 8073TIP3    H145710   5.291   0.023  15.085  0.2712  1.5434  0.0163
 8073TIP3    H245711   5.259  -0.037  15.221  2.3538 -0.3968 -0.2875
 8074TIP3   OH245712   5.211   6.249   0.190 -0.1812 -0.1006 -0.2057
 8074TIP3    H145713   5.289   6.196   0.208 -1.3689 -1.3874  1.3698
 8074TIP3    H245714   5.235   6.337   0.220  0.6951 -0.4680  0.2059
 8075TIP3   OH245715   4.794   2.012  11.441  0.2007 -0.1533  0.2854
 8075TIP3    H145716   4.830   1.967  11.365 -1.2779 -1.0430  0.0835
 8075TIP3    H245717   4.729   2.072  11.406 -0.1248 -0.1947  0.8024
 8076TIP3   OH245718   0.852   4.545  12.088  0.0163 -1.0756 -0.2161
 8076TIP3    H145719   0.787   4.563  12.021  1.3260  1.8608 -0.8707
 8076TIP3    H245720   0.808   4.565  12.171 -0.4718 -0.9950 -0.4931
 8077TIP3   OH245721   2.035   5.100   2.391  0.2331 -0.0646  0.3241
 8077TIP3    H145722   1.941   5.082   2.392  0.1665  0.2672  0.1204
 8077TIP3    H245723   2.075   5.023   2.432  0.0167 -1.0991 -1.3025
 8078TIP3   OH245724   2.513   1.831   0.784 -0.2038 -0.0662 -0.3002
 8078TIP3    H145725   2.603   1.806   0.764  0.7787  2.0880  1.0413
 8078TIP3    H245726   2.463   1.805   0.707  1.8602  0.2472 -1.8266
 8079TIP3   OH245727   3.467   2.424  16.282 -0.6412  0.3079 -0.8905
 8079TIP3    H145728   3.503   2.337  16.292 -2.0101 -0.2717 -0.7346
 8079TIP3    H245729   3.387   2.424  16.335  0.5016  2.4004  0.9955
 8080TIP3   OH245730   5.131   6.131   4.066 -0.3586  0.5381 -0.4600
 8080TIP3    H145731   5.222   6.156   4.082 -0.3025 -0.0238  0.0993
 8080TIP3    H245732   5.134   6.038   4.043 -0.8177  0.4508 -0.1919
 8081TIP3   OH245733   0.169   2.666   4.129  0.5915 -0.0517  0.4530
 8081TIP3    H145734   0.259   2.638   4.111  0.0849 -1.9850  0.7491
 8081TIP3    H245735   0.166   2.673   4.224  0.9401  1.9678  0.3568
 8082TIP3   OH245736   2.349   3.370   6.392 -0.0365 -0.1609 -0.0316
 8082TIP3    H145737   2.285   3.313   6.433 -1.2513  1.1625 -0.0295
 8082TIP3    H245738   2.305   3.404   6.314  0.3407  1.3883  0.3944
 8083TIP3   OH245739   1.107   5.893   4.785  0.5289  0.2358  0.0633
 8083TIP3    H145740   1.098   5.900   4.690 -0.5039 -1.3876 -0.0013
 8083TIP3    H245741   1.171   5.822   4.798  1.7510  1.3900  0.6086
 8084TIP3   OH245742   2.698   5.250  16.904 -0.0829 -0.2088 -0.9492
 8084TIP3    H145743   2.709   5.275  16.812  0.1516  1.3823 -0.5142
 8084TIP3    H245744   2.656   5.165  16.900 -0.4402  0.0047 -2.5346
 8085TIP3   OH245745   2.728   0.827  11.565  0.4734 -0.0036 -0.2217
 8085TIP3    H145746   2.727   0.903  11.507 -2.8860  0.2411 -0.0210
 8085TIP3    H245747   2.654   0.841  11.624 -0.0620 -3.2156  0.0428
 8086TIP3   OH245748   5.168   4.946  11.300 -0.1487 -0.0605  0.0169
 8086TIP3    H145749   5.192   5.008  11.369  1.9892 -2.4839  1.6202
 8086TIP3    H245750   5.091   4.901  11.333  0.8774 -1.2230  0.9317
 8087TIP3   OH245751   3.904   0.417   3.165 -0.2046  0.0951 -0.4065
 8087TIP3    H145752   3.867   0.398   3.251 -0.1369  0.5804 -0.2710
 8087TIP3    H245753   3.867   0.349   3.108  1.0113 -1.2455  0.3241
 8088TIP3   OH245754   2.708   2.301  11.879  0.3645  0.2284 -0.0580
 8088TIP3    H145755   2.751   2.216  11.886 -1.1003 -0.6398 -1.0751
 8088TIP3    H245756   2.618   2.280  11.855  0.4987  2.1201 -2.6049
 8089TIP3   OH245757   3.092   6.584   2.326  0.1115  0.6935 -0.5872
 8089TIP3    H145758   3.152   6.657   2.339 -0.0446  0.6883  0.2242
 8089TIP3    H245759   3.013   6.610   2.374  0.1537 -0.1225 -0.0652
 8090TIP3   OH245760   6.132   0.048   4.647  0.5896 -0.1083 -0.2154
 8090TIP3    H145761   6.121   0.132   4.603  1.6321 -0.2615 -0.7918
 8090TIP3    H245762   6.223   0.048   4.677  0.2818 -0.5811  0.7379
 8091TIP3   OH245763   4.062   2.557   4.780 -0.5225 -0.7861 -0.2647
 8091TIP3    H145764   4.128   2.566   4.848 -0.2748 -2.0426 -0.3043
 8091TIP3    H245765   4.099   2.493   4.719 -0.8732  0.1004 -1.4231
 8092TIP3   OH245766   1.459   6.136   2.740  0.2156  0.6198  0.0889
 8092TIP3    H145767   1.529   6.088   2.696 -0.4521  0.7852 -1.2164
 8092TIP3    H245768   1.380   6.086   2.721 -0.2908  1.4814 -0.1234
 8093TIP3   OH245769   0.827   0.691   4.528  0.8176 -0.2594 -0.0349
 8093TIP3    H145770   0.851   0.682   4.436 -1.3405 -1.6689 -0.5610
 8093TIP3    H245771   0.863   0.612   4.570  0.5352 -0.3740 -0.0031
 8094TIP3   OH245772   2.101   3.639  16.288  0.7669  0.4327  0.7947
 8094TIP3    H145773   2.029   3.673  16.341 -1.8735 -0.0682 -2.1544
 8094TIP3    H245774   2.159   3.715  16.276 -1.3032  2.0113  0.1505
 8095TIP3   OH245775   6.764   1.284  13.638 -0.0759  0.1573  0.2663
 8095TIP3    H145776   6.749   1.249  13.726 -0.7314  0.9216  0.4722
 8095TIP3    H245777   6.812   1.366  13.653  0.2653  0.0324 -0.1256
 8096TIP3   OH245778   4.029   6.723   5.606  0.0581 -0.3260 -0.3495
 8096TIP3    H145779   3.934   6.735   5.614  0.2806  1.6481 -0.3353
 8096TIP3    H245780   4.065   6.811   5.612  2.0282 -1.1613  1.1512
 8097TIP3   OH245781   2.829   5.837   4.178 -0.2222  0.3333 -0.4497
 8097TIP3    H145782   2.799   5.915   4.132 -0.6908  1.1005  1.0725
 8097TIP3    H245783   2.880   5.871   4.251 -0.0955 -0.7983  0.0069
 8098TIP3   OH245784   1.595   5.588  14.979  0.6697 -0.6908 -0.1836
 8098TIP3    H145785   1.674   5.619  14.935 -0.3883  1.2528 -0.8550
 8098TIP3    H245786   1.603   5.618  15.069  0.8832 -0.8711 -0.1429
 8099TIP3   OH245787   1.375   0.182  13.236  0.0430  0.1297 -0.2933
 8099TIP3    H145788   1.371   0.115  13.305 -1.9316 -0.9752 -1.3665
 8099TIP3    H245789   1.319   0.147  13.166  1.2106  1.6424 -2.0721
 8100TIP3   OH245790   3.276   0.465  14.095  0.2720  0.2455  0.7373
 8100TIP3    H145791   3.260   0.456  14.189 -0.7761 -1.9664  0.4146
 8100TIP3    H245792   3.352   0.410  14.078  0.5068  0.7046  0.2816
 8101TIP3   OH245793   3.395   3.928   0.323 -0.0228 -0.2762 -0.0230
 8101TIP3    H145794   3.391   3.963   0.234  0.3033 -0.5849 -0.1597
 8101TIP3    H245795   3.310   3.950   0.361 -0.7153 -1.3744 -0.8666
 8102TIP3   OH245796   3.258   1.296  15.760 -0.0395  0.4848  0.4786
 8102TIP3    H145797   3.169   1.264  15.770 -0.2666  0.8907 -0.1336
 8102TIP3    H245798   3.310   1.219  15.739 -0.6389  0.5259 -1.3502
 8103TIP3   OH245799   0.055   3.667  13.654  0.1989  0.3535  0.4036
 8103TIP3    H145800  -0.022   3.610  13.657 -1.1324  1.8893 -1.7286
 8103TIP3    H245801   0.027   3.748  13.695  1.1346  0.4937  0.7922
 8104TIP3   OH245802   0.177   3.274  13.913  0.0362 -0.2952  0.1185
 8104TIP3    H145803   0.180   3.193  13.963 -1.1221 -0.7719 -0.5365
 8104TIP3    H245804   0.102   3.322  13.950  0.4622  0.3009  0.2289
 8105TIP3   OH245805   6.225   4.695   0.366 -0.6635  0.3137 -0.3404
 8105TIP3    H145806   6.263   4.783   0.367 -0.5486  0.3458 -2.6694
 8105TIP3    H245807   6.207   4.677   0.274 -2.7242 -1.2621  0.2822
 8106TIP3   OH245808   0.308   2.649  14.616  0.0538 -0.0466  0.1718
 8106TIP3    H145809   0.393   2.648  14.573  0.8819 -0.9695  1.7282
 8106TIP3    H245810   0.293   2.558  14.641 -0.8837  0.2810  0.8668
 8107TIP3   OH245811   1.998   2.846   3.262  0.0618 -0.0289  0.4677
 8107TIP3    H145812   2.030   2.881   3.346  1.6828 -1.4136  0.4639
 8107TIP3    H245813   1.939   2.775   3.287  1.2605 -1.0553  0.4718
 8108TIP3   OH245814   4.016   0.681   1.670 -0.5364  0.3674 -0.2319
 8108TIP3    H145815   4.042   0.610   1.728 -0.3868  2.1297  2.0060
 8108TIP3    H245816   4.096   0.707   1.625 -0.5694 -0.7549 -0.9706
 8109TIP3   OH245817   3.935   4.417   4.419 -0.0633  0.1724  0.1671
 8109TIP3    H145818   3.839   4.418   4.411 -0.3232 -2.9769  1.3784
 8109TIP3    H245819   3.954   4.480   4.488 -1.4715 -0.2723  1.0030
 8110TIP3   OH245820   4.553   2.877   5.430 -0.2075  0.4997 -0.0280
 8110TIP3    H145821   4.585   2.967   5.432  0.3674  0.2951  0.2700
 8110TIP3    H245822   4.568   2.849   5.340  0.5860  0.3694  0.1314
 8111TIP3   OH245823   4.467   1.631  12.339 -0.9870  0.6694  0.1732
 8111TIP3    H145824   4.447   1.578  12.262 -0.9126 -0.5468  0.9730
 8111TIP3    H245825   4.532   1.695  12.308  0.0445 -0.6439 -0.4802
 8112TIP3   OH245826   6.120   2.540  13.900  0.2357  0.5643  0.4096
 8112TIP3    H145827   6.164   2.479  13.841 -1.2729  0.2642 -0.4648
 8112TIP3    H245828   6.154   2.626  13.874 -0.7735  0.4979 -1.3189
 8113TIP3   OH245829   2.920   6.130   5.445 -0.3370 -0.5826  0.0364
 8113TIP3    H145830   2.974   6.053   5.460 -0.5242 -1.0194 -1.4380
 8113TIP3    H245831   2.978   6.204   5.461  0.3881 -1.0435 -0.4239
 8114TIP3   OH245832   4.023   6.210   4.337 -0.2786  0.3446  0.0748
 8114TIP3    H145833   4.112   6.245   4.329  0.0374 -0.4284  0.1549
 8114TIP3    H245834   3.967   6.286   4.323  0.3453  0.3997 -2.6666
 8115TIP3   OH245835   0.631   5.132   5.126 -0.4555  0.0855  0.5148
 8115TIP3    H145836   0.565   5.067   5.104  0.4889 -0.7173 -0.0065
 8115TIP3    H245837   0.675   5.150   5.043  0.4063  0.1252  0.9703
 8116TIP3   OH245838   4.365   6.326   4.698  0.1438  0.2617 -0.5887
 8116TIP3    H145839   4.452   6.295   4.671  0.5168 -0.2111  1.0084
 8116TIP3    H245840   4.306   6.257   4.669  0.4131  0.1786 -0.9495
 8117TIP3   OH245841   0.246   4.217   4.852  0.1010  0.4603  0.3159
 8117TIP3    H145842   0.313   4.233   4.786 -1.3963  1.1165 -1.1126
 8117TIP3    H245843   0.225   4.304   4.886  0.9450  0.1172  1.8078
 8118TIP3   OH245844   1.447   4.614   1.862 -0.1056  0.1111  0.3049
 8118TIP3    H145845   1.490   4.697   1.883 -0.7121  0.8645 -1.3077
 8118TIP3    H245846   1.387   4.599   1.935 -2.3616  2.7908 -0.8019
 8119TIP3   OH245847   4.738   6.528  12.953  0.0590  0.7359  0.1052
 8119TIP3    H145848   4.708   6.437  12.952  1.7483  0.0043  3.2761
 8119TIP3    H245849   4.667   6.576  12.994 -0.2639  0.6050 -0.2928
 8120TIP3   OH245850   1.709   1.206  16.510 -0.3341 -0.0011  0.5040
 8120TIP3    H145851   1.788   1.260  16.511 -0.5325  0.2910  0.4019
 8120TIP3    H245852   1.675   1.211  16.600  0.3277 -0.9686  0.8321
 8121TIP3   OH245853   3.764   1.287   0.783 -0.4812 -0.4337 -0.3493
 8121TIP3    H145854   3.844   1.306   0.735 -0.2420  0.2784  0.2930
 8121TIP3    H245855   3.773   1.197   0.812  0.8469  0.1143  1.0869
 8122TIP3   OH245856   0.371   3.860   6.032 -0.1661  0.1666  1.3010
 8122TIP3    H145857   0.404   3.908   5.956 -1.8427 -1.4363 -0.5563
 8122TIP3    H245858   0.277   3.879   6.034 -0.7972 -2.4328  0.8247
 8123TIP3   OH245859   3.289   4.340   2.663 -0.3434  0.8829 -0.7483
 8123TIP3    H145860   3.243   4.271   2.614  1.7992 -1.2392  0.0367
 8123TIP3    H245861   3.289   4.415   2.604 -1.1861 -0.3661 -2.4286
 8124TIP3   OH245862   3.027   2.449   1.003  0.0339 -0.0829  0.6957
 8124TIP3    H145863   3.096   2.468   0.939 -0.2024 -1.1819  0.0838
 8124TIP3    H245864   2.979   2.376   0.964 -0.8607  0.0207  1.5843
 8125TIP3   OH245865   6.552   5.805  14.305 -0.2873 -0.2302 -0.4366
 8125TIP3    H145866   6.577   5.851  14.385  1.7254 -0.4381 -0.8973
 8125TIP3    H245867   6.603   5.724  14.307 -1.1559 -0.8266 -1.3379
 8126TIP3   OH245868   4.775   3.860   2.128 -0.0612  0.5316  0.4722
 8126TIP3    H145869   4.744   3.890   2.043  0.8329 -1.0984 -0.4732
 8126TIP3    H245870   4.787   3.766   2.118  0.7295  0.4010  2.1963
 8127TIP3   OH245871   3.302   2.906   0.505 -0.3239  0.6171 -0.5204
 8127TIP3    H145872   3.294   2.864   0.591  0.5248  0.8419 -0.3211
 8127TIP3    H245873   3.352   2.986   0.523  1.9474 -0.4803 -1.5504
 8128TIP3   OH245874   2.491   0.878  16.839  0.1721  0.1186  0.2278
 8128TIP3    H145875   2.547   0.954  16.822  0.8122 -0.2701  0.5743
 8128TIP3    H245876   2.469   0.844  16.752  0.3194  0.3807  0.0868
 8129TIP3   OH245877   5.700   4.381  10.536  0.5859 -0.6574  0.4195
 8129TIP3    H145878   5.663   4.319  10.473  1.5306 -0.2361 -0.5789
 8129TIP3    H245879   5.763   4.329  10.586  0.4856 -0.7891  0.4104
 8130TIP3   OH245880   5.286   4.372   4.683  0.6455 -0.2230  0.2014
 8130TIP3    H145881   5.334   4.451   4.656  0.0301  0.4723  1.0789
 8130TIP3    H245882   5.353   4.305   4.693  0.9127 -0.8235 -3.8040
 8131TIP3   OH245883   4.504   4.322   1.707 -0.0765  0.2909 -0.4678
 8131TIP3    H145884   4.497   4.386   1.636  0.2874  2.8144  1.6037
 8131TIP3    H245885   4.414   4.304   1.733 -0.1467  1.5622  0.2266
 8132TIP3   OH245886   1.490   5.115  10.951  0.6619  0.6588  0.3525
 8132TIP3    H145887   1.506   5.118  10.856  0.3191  3.5133  0.2888
 8132TIP3    H245888   1.419   5.052  10.962  1.3319 -0.4180 -1.1530
 8133TIP3   OH245889   5.360   5.833   5.958  0.0838  0.5656 -0.0501
 8133TIP3    H145890   5.392   5.908   5.908  0.5386  0.3859 -0.0321
 8133TIP3    H245891   5.432   5.770   5.956  0.3903  0.8192  1.3833
 8134TIP3   OH245892   1.089   0.574  14.752 -1.0587 -0.1291 -0.4835
 8134TIP3    H145893   1.070   0.496  14.699 -1.8264  0.7522 -1.5427
 8134TIP3    H245894   1.149   0.625  14.698  0.2225 -0.4055  0.6187
 8135TIP3   OH245895   1.939   5.626  17.157 -0.1802  0.0338 -0.0109
 8135TIP3    H145896   1.898   5.587  17.234 -0.1336  0.4858  0.2446
 8135TIP3    H245897   1.936   5.557  17.090 -0.9956 -0.0643  0.1250
 8136TIP3   OH245898   6.814   3.899   3.108  0.4894  0.5776  0.4771
 8136TIP3    H145899   6.775   3.985   3.119 -0.3235  0.2427  0.3269
 8136TIP3    H245900   6.757   3.840   3.158 -0.0388 -0.1287 -0.8800
 8137TIP3   OH245901   1.482   1.067   1.044 -0.5360 -0.4422 -0.5172
 8137TIP3    H145902   1.414   1.000   1.056 -1.5019  0.5192 -0.4408
 8137TIP3    H245903   1.467   1.130   1.115  0.9138 -0.5764 -0.0565
 8138TIP3   OH245904   3.691   6.585   4.472 -0.4598  0.0126  0.6262
 8138TIP3    H145905   3.640   6.660   4.503 -1.3298 -0.1637 -0.3442
 8138TIP3    H245906   3.681   6.519   4.541 -0.0135  0.6242  1.2978
 8139TIP3   OH245907   3.271   0.496  14.380  0.1543  0.2355 -0.1013
 8139TIP3    H145908   3.199   0.559  14.381  0.1960  0.2994 -0.7612
 8139TIP3    H245909   3.272   0.459  14.468 -0.2610  0.7155  0.1066
 8140TIP3   OH245910   5.001   1.068  15.480  0.4990 -0.2215 -0.3768
 8140TIP3    H145911   5.011   1.152  15.435  0.0850 -0.5998 -1.1930
 8140TIP3    H245912   5.084   1.056  15.527 -0.0041  1.3546  1.0244
 8141TIP3   OH245913   1.045   5.321   0.414 -0.2248  0.6092 -0.6311
 8141TIP3    H145914   1.076   5.400   0.370 -0.3696  0.4229 -1.0743
 8141TIP3    H245915   0.998   5.272   0.346  0.7699 -0.3635 -0.6373
 8142TIP3   OH245916   1.416   6.406   1.753  0.3153 -0.2792 -0.1140
 8142TIP3    H145917   1.430   6.500   1.751  1.1337 -0.3523  1.2913
 8142TIP3    H245918   1.399   6.385   1.845  0.7381 -1.5782 -0.3042
 8143TIP3   OH245919   0.555   4.379   4.236 -0.1452  0.0727  0.0360
 8143TIP3    H145920   0.638   4.408   4.200 -1.3417  0.9985 -2.1243
 8143TIP3    H245921   0.558   4.406   4.328  2.0016 -0.1127  0.0539
 8144TIP3   OH245922   2.085   5.766  12.705  0.0700  0.6318 -0.1463
 8144TIP3    H145923   2.022   5.709  12.748  0.7206  0.4163  0.5305
 8144TIP3    H245924   2.119   5.714  12.633 -0.7642  0.8711 -0.7302
 8145TIP3   OH245925   2.549   5.293   0.747  0.1174 -0.2551  0.2719
 8145TIP3    H145926   2.529   5.324   0.659 -2.0770 -0.7868  0.5212
 8145TIP3    H245927   2.634   5.248   0.739 -0.4671 -1.0947 -1.7678
 8146TIP3   OH245928   5.221   3.404  13.005  0.4052  0.0072  0.6709
 8146TIP3    H145929   5.181   3.492  13.000 -0.5911 -0.4816 -0.3510
 8146TIP3    H245930   5.177   3.363  13.079 -0.2658 -0.1683  0.1816
 8147TIP3   OH245931   0.896   4.357  13.322 -0.1669 -0.5156  0.1276
 8147TIP3    H145932   0.937   4.443  13.322 -0.0859 -0.5532  0.5504
 8147TIP3    H245933   0.948   4.306  13.260 -1.1900  0.1938 -1.3713
 8148TIP3   OH245934   2.848   6.319  11.676  0.0234 -0.0683  0.0135
 8148TIP3    H145935   2.919   6.256  11.685  2.8215  2.5133 -1.8194
 8148TIP3    H245936   2.812   6.303  11.588  1.8206  1.6679 -1.1438
 8149TIP3   OH245937   2.262   6.053  15.107 -0.6511 -0.2708 -0.2515
 8149TIP3    H145938   2.330   6.120  15.117  0.9299 -1.9814  1.4076
 8149TIP3    H245939   2.198   6.074  15.174 -0.3587 -0.1815  0.0035
 8150TIP3   OH245940   4.425   3.446   1.542  0.0353 -0.0190  0.6382
 8150TIP3    H145941   4.452   3.476   1.455 -1.8906 -1.6594 -0.6138
 8150TIP3    H245942   4.502   3.404   1.578  0.3447 -1.0982 -1.1513
 8151TIP3   OH245943   4.197   0.881   3.493 -0.6176  0.2179  0.4650
 8151TIP3    H145944   4.156   0.806   3.536 -1.1351 -0.8535 -1.7501
 8151TIP3    H245945   4.288   0.853   3.478 -0.1127  1.0444  1.8430
 8152TIP3   OH245946   4.274   2.154  11.799 -1.0880  0.3778 -0.6895
 8152TIP3    H145947   4.193   2.124  11.840 -1.1073 -0.5300 -1.3646
 8152TIP3    H245948   4.324   2.193  11.870 -0.7864 -1.8483  0.4092
 8153TIP3   OH245949   6.339   0.541   1.441  0.9407 -0.1416 -0.0754
 8153TIP3    H145950   6.282   0.605   1.399 -0.5919 -0.4605  1.4243
 8153TIP3    H245951   6.350   0.472   1.376 -0.5906 -0.1716 -0.3390
 8154TIP3   OH245952   3.836   2.049  15.660  0.2268 -0.0141  0.0394
 8154TIP3    H145953   3.893   1.982  15.698 -0.9398 -1.1628 -0.1588
 8154TIP3    H245954   3.755   2.043  15.711  0.0809  1.2465 -0.0069
 8155TIP3   OH245955   5.950   3.490   3.680  0.4897 -0.0279  0.3528
 8155TIP3    H145956   5.986   3.410   3.718 -1.6513 -1.5242 -0.4984
 8155TIP3    H245957   5.860   3.466   3.655  0.8300  1.6075 -3.0829
 8156TIP3   OH245958   0.780   6.553  16.881 -0.5490  0.1231  0.0413
 8156TIP3    H145959   0.726   6.579  16.956  0.1080 -0.3729  0.6927
 8156TIP3    H245960   0.738   6.474  16.847  0.1043 -0.6296  0.9366
 8157TIP3   OH245961   2.355   1.749  12.506 -0.2729 -0.2304  0.3114
 8157TIP3    H145962   2.436   1.698  12.505 -0.4520 -0.5222  0.2796
 8157TIP3    H245963   2.331   1.754  12.598 -0.8427 -1.1709  0.2325
 8158TIP3   OH245964   4.461   0.955   6.384 -0.2147 -0.2698  0.4521
 8158TIP3    H145965   4.396   0.927   6.447 -0.5306  0.7702  0.6157
 8158TIP3    H245966   4.424   1.035   6.345  0.2757 -0.5081 -0.5553
 8159TIP3   OH245967   6.583   4.905   1.359  0.7915 -0.1771  0.0040
 8159TIP3    H145968   6.630   4.899   1.276  0.1485 -0.6507 -0.3388
 8159TIP3    H245969   6.500   4.861   1.342  1.0734 -1.2117  1.2084
 8160TIP3   OH245970   5.291   1.297  14.780 -0.1677 -0.3983 -0.2920
 8160TIP3    H145971   5.241   1.378  14.771 -1.2676 -0.7256  1.9885
 8160TIP3    H245972   5.353   1.314  14.851  1.3867 -0.7782 -1.4950
 8161TIP3   OH245973   5.819   1.221  12.991 -0.3027  0.4755  0.5678
 8161TIP3    H145974   5.902   1.234  13.037 -0.5500  0.8291  0.9213
 8161TIP3    H245975   5.843   1.175  12.910  0.2437  0.6341  0.6377
 8162TIP3   OH245976   4.565   3.516   3.935  0.4817  0.4014 -0.6061
 8162TIP3    H145977   4.546   3.606   3.908  1.3537  0.4869 -0.9759
 8162TIP3    H245978   4.479   3.476   3.949  0.0673  1.0486 -1.2553
 8163TIP3   OH245979   4.087   3.079   1.620 -0.4498 -0.0043 -0.3303
 8163TIP3    H145980   4.043   3.162   1.602 -0.5442  0.4548  1.7674
 8163TIP3    H245981   4.028   3.012   1.584 -1.1854  0.7572 -0.5570
 8164TIP3   OH245982   0.236   0.893   1.159 -0.0063  0.3448  0.3338
 8164TIP3    H145983   0.299   0.897   1.087 -1.0029  0.5643 -0.5617
 8164TIP3    H245984   0.202   0.803   1.156 -1.2935  0.8165 -0.6255
 8165TIP3   OH245985   0.994   2.172   2.255 -0.4842  0.5040 -0.6137
 8165TIP3    H145986   1.044   2.112   2.199  0.3430  0.7149 -0.1078
 8165TIP3    H245987   1.060   2.224   2.300 -1.1604  0.6827  0.1853
 8166TIP3   OH245988   2.976   0.249   4.145 -0.2257 -0.0499 -0.1356
 8166TIP3    H145989   2.933   0.335   4.143  0.8704  0.5439  0.6502
 8166TIP3    H245990   3.067   0.268   4.121 -0.6288 -1.4718 -3.3615
 8167TIP3   OH245991   4.003   6.382  15.732  0.2787  0.2787 -0.1536
 8167TIP3    H145992   4.093   6.376  15.765 -0.4782 -0.0491  1.9704
 8167TIP3    H245993   3.962   6.449  15.786 -0.8442  0.2439 -0.9360
 8168TIP3   OH245994   2.260   1.508   5.253  0.2809 -0.0687 -0.3004
 8168TIP3    H145995   2.228   1.598   5.250 -0.1132 -0.1830  0.2336
 8168TIP3    H245996   2.297   1.492   5.167  1.5801  1.0542  0.0123
 8169TIP3   OH245997   0.087   5.907  12.636 -0.6528  0.0947 -0.4449
 8169TIP3    H145998   0.059   5.825  12.596 -1.5634  0.6377 -0.9385
 8169TIP3    H245999   0.008   5.960  12.641  0.3589  1.9953 -2.6707
 8170TIP3   OH246000   1.791   4.240  13.138  0.1127  0.7802  0.1740
 8170TIP3    H146001   1.783   4.168  13.076 -0.2513  0.9543  0.0106
 8170TIP3    H246002   1.876   4.279  13.120  1.1937 -0.7843  1.5544
 8171TIP3   OH246003   2.440   3.695   3.636 -0.2616 -0.3657  0.3714
 8171TIP3    H146004   2.471   3.646   3.559  0.8106 -1.2607  1.3369
 8171TIP3    H246005   2.380   3.760   3.600  0.2541 -0.7240 -1.2330
 8172TIP3   OH246006   0.678   2.328   5.057  0.0902  0.0246 -0.5426
 8172TIP3    H146007   0.663   2.338   5.151 -1.2963 -0.3085 -0.7036
 8172TIP3    H246008   0.752   2.385   5.038 -0.1883  0.7939  0.5883
 8173TIP3   OH246009   4.049   1.127  13.339 -0.1833 -0.3970 -0.2082
 8173TIP3    H146010   4.069   1.075  13.261  1.1273 -0.4336  0.1231
 8173TIP3    H246011   4.103   1.206  13.329 -1.2817  0.3742 -0.1442
 8174TIP3   OH246012   4.310   4.360   2.891 -0.4639 -0.2182  0.4280
 8174TIP3    H146013   4.328   4.366   2.798 -1.2661  0.0504  0.2789
 8174TIP3    H246014   4.360   4.431   2.931  1.9041 -1.8535  0.5423
 8175TIP3   OH246015   3.138   3.131   2.092  0.3593 -0.1404 -0.0770
 8175TIP3    H146016   3.165   3.086   2.012  1.9834  0.6013  0.0093
 8175TIP3    H246017   3.154   3.224   2.074  0.0638  0.1056  0.8544
 8176TIP3   OH246018   0.698   1.088  15.241  0.5121  0.1932 -0.3373
 8176TIP3    H146019   0.765   1.120  15.302  1.0714  1.0544 -1.3639
 8176TIP3    H246020   0.619   1.136  15.265  1.1543  1.8418 -1.3597
 8177TIP3   OH246021   3.748   2.302  12.069 -0.4356 -0.0798  0.1857
 8177TIP3    H146022   3.804   2.379  12.064 -1.4774  0.7093  0.2205
 8177TIP3    H246023   3.808   2.228  12.062  0.4958  0.7329 -0.9038
 8178TIP3   OH246024   3.833   0.726   2.014  0.7156 -0.1045  0.2476
 8178TIP3    H146025   3.781   0.683   1.946  1.2727 -0.5054  0.0671
 8178TIP3    H246026   3.887   0.656   2.050 -1.6641 -0.6252  3.1976
 8179TIP3   OH246027   0.282   5.408  13.343 -0.0328 -0.4758 -0.0371
 8179TIP3    H146028   0.266   5.481  13.404 -0.6464 -1.9974  1.7269
 8179TIP3    H246029   0.376   5.412  13.325 -0.4457  2.3499 -2.2059
 8180TIP3   OH246030   0.576   1.444   3.561 -0.6335 -1.0714  0.2016
 8180TIP3    H146031   0.624   1.503   3.503  1.2086 -1.3067  1.4214
 8180TIP3    H246032   0.503   1.497   3.594  0.2445  0.1187  0.2789
 8181TIP3   OH246033   0.367   4.571  11.116 -0.0891 -0.4503 -0.0776
 8181TIP3    H146034   0.351   4.477  11.125 -0.6372 -0.3472  0.0445
 8181TIP3    H246035   0.314   4.597  11.041 -1.4056  0.1029  1.0062
 8182TIP3   OH246036   4.379   3.698   2.589  0.9522  0.0920  0.2515
 8182TIP3    H146037   4.319   3.624   2.596 -0.7745  0.9002 -3.4745
 8182TIP3    H246038   4.464   3.659   2.572  0.0715 -1.1415 -1.6233
 8183TIP3   OH246039   6.309   3.508  11.262  0.4268 -1.0095 -0.0079
 8183TIP3    H146040   6.399   3.502  11.293  0.0371  1.9551  2.1500
 8183TIP3    H246041   6.315   3.558  11.180  0.7012  0.1072  0.6753
 8184TIP3   OH246042   0.048   1.338  11.535  0.0263  0.4562 -0.0925
 8184TIP3    H146043   0.026   1.312  11.624  0.0316  1.3699  0.1816
 8184TIP3    H246044   0.004   1.273  11.480 -1.6059  1.0061  0.5101
 8185TIP3   OH246045   3.622   5.021  15.298 -0.1051 -0.7255  0.2908
 8185TIP3    H146046   3.563   4.945  15.302 -0.9139 -0.0905  0.7951
 8185TIP3    H246047   3.678   5.012  15.375 -1.6181  0.2861  1.5647
 8186TIP3   OH246048   0.115   4.906   0.133 -0.7992 -0.9726  0.5284
 8186TIP3    H146049   0.108   4.997   0.161  1.7947 -0.5001 -0.0368
 8186TIP3    H246050   0.156   4.861   0.206 -1.3723 -1.5293  0.5143
 8187TIP3   OH246051   0.320   2.230  16.624 -0.3512 -0.0833  0.0858
 8187TIP3    H146052   0.285   2.317  16.605  0.1155  0.3429  1.1284
 8187TIP3    H246053   0.415   2.239  16.612 -0.0068  0.2373  2.5694
 8188TIP3   OH246054   4.996   4.465   4.592 -0.1124 -0.4138 -0.2728
 8188TIP3    H146055   4.992   4.559   4.610 -0.7736 -0.5160  0.1519
 8188TIP3    H246056   5.004   4.425   4.678  0.4088 -0.7384 -0.4703
 8189TIP3   OH246057   6.373   4.887   5.073  0.1644 -0.1888  0.2216
 8189TIP3    H146058   6.295   4.888   5.017  0.3422 -4.0816 -0.3325
 8189TIP3    H246059   6.445   4.867   5.014  0.6718 -2.2486  1.4424
 8190TIP3   OH246060   5.896   2.657   0.764 -0.1643  0.0469  0.3309
 8190TIP3    H146061   5.812   2.611   0.764  0.0929 -0.4249 -0.1388
 8190TIP3    H246062   5.961   2.590   0.785  0.1345  0.3458  0.3707
 8191TIP3   OH246063   4.947   6.732   5.892 -0.8245 -0.1447  0.0849
 8191TIP3    H146064   4.904   6.816   5.902  0.0827  0.3215  0.1761
 8191TIP3    H246065   5.027   6.752   5.842 -0.2063 -0.8179  0.7888
 8192TIP3   OH246066   1.130   2.224  14.474  0.5053  0.3498 -0.4094
 8192TIP3    H146067   1.120   2.293  14.408 -2.9222 -1.8122 -2.3960
 8192TIP3    H246068   1.163   2.149  14.426  1.6146 -0.2491  1.1976
 8193TIP3   OH246069   5.337   1.422  11.094 -0.0882  0.0371  0.5270
 8193TIP3    H146070   5.402   1.355  11.117  0.5421  1.4801  3.2716
 8193TIP3    H246071   5.367   1.501  11.138 -3.0426  1.0849  0.8738
 8194TIP3   OH246072   1.756   4.192   5.404  0.0471  0.2486 -0.3159
 8194TIP3    H146073   1.817   4.138   5.454 -0.6708 -1.1868 -0.9279
 8194TIP3    H246074   1.786   4.282   5.419  1.3798 -0.3117  0.6082
 8195TIP3   OH246075   4.763   0.331  16.218  0.0349 -0.3687  0.1848
 8195TIP3    H146076   4.856   0.337  16.198 -0.0355  0.0195 -0.0298
 8195TIP3    H246077   4.719   0.350  16.135 -0.2336 -0.9207  0.1948
 8196TIP3   OH246078   2.694   0.637  12.588  0.0410  0.3016 -0.0843
 8196TIP3    H146079   2.772   0.589  12.561 -0.4466 -0.7554  0.3548
 8196TIP3    H246080   2.726   0.725  12.608  0.9511  0.1638 -0.8605
 8197TIP3   OH246081   0.217   0.546  15.032 -0.4050  0.2813 -0.3479
 8197TIP3    H146082   0.150   0.612  15.049  2.0511  2.1851  3.3048
 8197TIP3    H246083   0.177   0.464  15.060 -2.6190  0.4791 -2.5326
 8198TIP3   OH246084   3.634   5.026  10.987  0.4558 -0.3225  0.1697
 8198TIP3    H146085   3.579   5.098  10.957  1.5656 -0.3280 -2.1290
 8198TIP3    H246086   3.724   5.058  10.978  0.9230 -1.3148  1.0265
 8199TIP3   OH246087   2.445   0.655   1.933  0.0463  0.1907 -0.4147
 8199TIP3    H146088   2.438   0.588   2.002  0.0430  0.3914 -0.2206
 8199TIP3    H246089   2.458   0.737   1.980  0.5031  0.2675 -0.6683
 8200TIP3   OH246090   5.348   2.430   4.721  0.9003 -0.0216  0.1099
 8200TIP3    H146091   5.364   2.523   4.707 -1.4085  0.2542 -1.1723
 8200TIP3    H246092   5.434   2.389   4.712  1.8570  1.8960  0.0469
 8201TIP3   OH246093   3.523   3.571   2.051 -0.3639 -0.1224 -0.4545
 8201TIP3    H146094   3.570   3.547   2.131 -1.5429  1.2980  0.7187
 8201TIP3    H246095   3.519   3.490   2.000 -2.5545 -2.0367  2.4434
 8202TIP3   OH246096   6.515   5.756  12.367  0.3667 -0.1871 -0.4183
 8202TIP3    H146097   6.456   5.746  12.442  1.1942 -0.7781  0.1692
 8202TIP3    H246098   6.471   5.820  12.311 -0.7979 -0.5648  0.0301
 8203TIP3   OH246099   4.813   6.588   4.426  0.0184  0.2466  0.2483
 8203TIP3    H146100   4.848   6.675   4.444 -0.1039  0.5752 -1.0140
 8203TIP3    H246101   4.783   6.593   4.335 -0.6082 -0.9100  0.3783
 8204TIP3   OH246102   4.190   0.268  17.101  0.2945  0.2028 -0.6563
 8204TIP3    H146103   4.177   0.342  17.042 -1.2510  0.7995  0.3662
 8204TIP3    H246104   4.131   0.285  17.174  1.4550 -0.9894  0.6179
 8205TIP3   OH246105   6.638   3.206   6.300  0.1891 -0.5235 -0.2081
 8205TIP3    H146106   6.622   3.212   6.394 -1.0664 -1.5189 -0.3199
 8205TIP3    H246107   6.710   3.143   6.292  1.0153  0.3572  0.1101
 8206TIP3   OH246108   5.009   5.345   4.640 -0.6182  0.0105  0.1499
 8206TIP3    H146109   5.049   5.276   4.588  0.3069  0.7719 -0.1937
 8206TIP3    H246110   5.026   5.321   4.731  1.0394  0.5199  0.0078
 8207TIP3   OH246111   4.746   6.453  10.409  0.2115  0.5880 -0.2612
 8207TIP3    H146112   4.657   6.451  10.373  0.1511  2.0878 -0.2306
 8207TIP3    H246113   4.754   6.539  10.450  1.4309  0.1864  0.3973
 8208TIP3   OH246114   0.097   6.473  16.324  0.4008 -0.0842 -0.1838
 8208TIP3    H146115   0.072   6.424  16.246  1.9113 -0.8083 -0.2564
 8208TIP3    H246116   0.191   6.489  16.313  0.0094  2.8739 -0.1561
 8209TIP3   OH246117   3.530   5.249   2.008  0.0042 -0.1309 -0.0832
 8209TIP3    H146118   3.496   5.167   1.972 -2.0766  1.2623 -1.4698
 8209TIP3    H246119   3.478   5.318   1.967  2.9094  2.0769 -0.4172
 8210TIP3   OH246120   1.138   1.140   0.725  0.6227 -0.5558  0.3566
 8210TIP3    H146121   1.076   1.141   0.797 -1.0094  1.5484 -0.9644
 8210TIP3    H246122   1.155   1.047   0.709 -0.2564 -1.1023  2.3132
 8211TIP3   OH246123   2.984   6.536   4.444 -0.1057  0.2715  0.4914
 8211TIP3    H146124   3.018   6.619   4.410  1.7921 -0.1000  1.3863
 8211TIP3    H246125   2.935   6.498   4.370  0.9358  1.1114 -0.6675
 8212TIP3   OH246126   4.664   1.299   3.860  0.4630 -0.2747  0.0969
 8212TIP3    H146127   4.600   1.315   3.790  1.6008 -2.9184 -1.7017
 8212TIP3    H246128   4.616   1.317   3.941 -2.0784 -0.6727 -1.2115
 8213TIP3   OH246129   3.094   4.811  14.231  0.1491 -0.0663 -0.3593
 8213TIP3    H146130   3.130   4.874  14.169  0.8151  1.4827  1.5323
 8213TIP3    H246131   3.128   4.726  14.201 -1.1235  0.2769 -3.2153
 8214TIP3   OH246132   5.805   4.970   2.082 -0.2708 -0.1810  0.1875
 8214TIP3    H146133   5.828   4.879   2.101  0.1084  0.0078  0.6657
 8214TIP3    H246134   5.887   5.018   2.096 -0.7742  0.4077  1.1729
 8215TIP3   OH246135   1.584   3.464  15.932 -0.3656 -0.6944 -0.0844
 8215TIP3    H146136   1.570   3.434  16.022 -2.0485 -0.6995 -0.3127
 8215TIP3    H246137   1.604   3.557  15.940 -4.2714  0.2758  0.1672
 8216TIP3   OH246138   0.766   3.443   5.493 -0.5252 -0.3151 -0.4334
 8216TIP3    H146139   0.791   3.388   5.567 -1.2828 -0.1765 -0.0697
 8216TIP3    H246140   0.689   3.491   5.523  1.4964  2.8184  0.1878
 8217TIP3   OH246141   1.323   5.185  15.261  0.0081 -0.0520  0.4376
 8217TIP3    H146142   1.375   5.250  15.307 -1.1230 -0.4624  2.4116
 8217TIP3    H246143   1.321   5.109  15.320 -1.1898 -0.7559 -0.4545
 8218TIP3   OH246144   0.889   2.245  15.946  0.1176  0.5487 -0.3627
 8218TIP3    H146145   0.799   2.227  15.971  0.7351 -2.3387  0.1034
 8218TIP3    H246146   0.908   2.330  15.985 -1.4547 -0.1615  2.2086
 8219TIP3   OH246147   1.040   6.653   4.914  0.4947 -0.6000  0.6038
 8219TIP3    H146148   1.092   6.578   4.945  2.3777  1.4103  2.6950
 8219TIP3    H246149   1.012   6.697   4.994  1.4629  2.2038 -0.4749
 8220TIP3   OH246150   2.164   4.575  10.966 -0.0191 -0.1935 -0.2138
 8220TIP3    H146151   2.097   4.575  11.034 -0.7718 -0.1018 -0.9341
 8220TIP3    H246152   2.124   4.528  10.893  1.0939 -1.0622 -0.2994
 8221TIP3   OH246153   3.295   4.095   3.940 -0.8181  0.2659 -0.6556
 8221TIP3    H146154   3.375   4.066   3.984 -0.0388  0.3785 -1.9499
 8221TIP3    H246155   3.313   4.082   3.847 -3.1184 -1.8040 -0.9209
 8222TIP3   OH246156   6.693   1.025  15.397 -0.5093 -0.0785 -0.2300
 8222TIP3    H146157   6.615   1.051  15.349  0.2384  2.0100 -0.3956
 8222TIP3    H246158   6.752   0.990  15.329 -0.7384 -0.2867 -0.3226
 8223TIP3   OH246159   1.913   1.751   1.776 -0.9333  0.5453  0.4893
 8223TIP3    H146160   1.967   1.706   1.841  0.6890  2.2990  0.4205
 8223TIP3    H246161   1.823   1.740   1.808 -0.6465 -2.5395  0.5477
 8224TIP3   OH246162   2.762   3.981  17.066  0.0001  0.3447 -0.6886
 8224TIP3    H146163   2.805   4.031  17.135 -1.1275  0.1582  0.1753
 8224TIP3    H246164   2.791   3.891  17.080 -1.3238  0.0631  0.4638
 8225TIP3   OH246165   4.715   4.521   4.824 -0.1648 -0.3469  0.1849
 8225TIP3    H146166   4.802   4.480   4.826  0.6158  1.2418  1.4459
 8225TIP3    H246167   4.687   4.521   4.915 -1.2438 -0.3226 -0.1388
 8226TIP3   OH246168   0.893   4.057   3.104  0.3660 -0.1232 -0.1418
 8226TIP3    H146169   0.805   4.086   3.129  0.2524  2.1460 -2.6778
 8226TIP3    H246170   0.939   4.046   3.187 -1.9097 -0.0976  1.2093
 8227TIP3   OH246171   1.861   1.955   0.238  0.1360  0.1698  0.1068
 8227TIP3    H146172   1.903   1.875   0.270 -0.4844 -0.3588 -0.3729
 8227TIP3    H246173   1.916   1.982   0.165 -0.2840 -0.4796 -0.4703
 8228TIP3   OH246174   5.037   5.041  14.604  0.4182  0.6003  0.4294
 8228TIP3    H146175   5.003   5.094  14.532  1.6319 -0.8364 -1.3241
 8228TIP3    H246176   5.076   5.104  14.664  0.3265  1.8141 -0.7246
 8229TIP3   OH246177   5.436   2.997   5.462 -0.6005 -0.1594  0.0318
 8229TIP3    H146178   5.477   3.020   5.378 -0.2074 -2.0385 -0.3208
 8229TIP3    H246179   5.342   3.002   5.444 -0.5228 -1.3465 -0.7720
 8230TIP3   OH246180   1.521   0.621   0.102 -0.3233 -0.4313  0.8489
 8230TIP3    H146181   1.612   0.605   0.128  0.0065  0.9101  0.5621
 8230TIP3    H246182   1.473   0.627   0.185 -0.3373 -1.9931  0.9915
 8231TIP3   OH246183   6.591   2.612  10.691 -0.0375 -0.0465  0.0277
 8231TIP3    H146184   6.626   2.697  10.718 -0.6499  0.7896 -1.6111
 8231TIP3    H246185   6.593   2.616  10.595 -3.3140 -0.4484 -0.1521
 8232TIP3   OH246186   0.630   4.836  14.652  0.3599 -0.4859  0.1659
 8232TIP3    H146187   0.545   4.802  14.624 -0.2168 -1.6187  2.9131
 8232TIP3    H246188   0.609   4.914  14.702  1.1902  0.5742 -1.0865
 8233TIP3   OH246189   0.442   1.970   5.209 -0.2463  0.0410  0.0395
 8233TIP3    H146190   0.394   2.023   5.272 -3.3037 -0.9934 -1.2662
 8233TIP3    H246191   0.504   1.919   5.263  0.6601  2.5886  1.6048
 8234TIP3   OH246192   5.933   2.406  10.717  1.0351 -0.3692  0.6540
 8234TIP3    H146193   5.916   2.324  10.671 -0.3614 -0.8841  1.9654
 8234TIP3    H246194   5.907   2.475  10.655  0.9159 -0.9669  0.0355
 8235TIP3   OH246195   3.210   1.923   1.347  0.2596 -0.1183 -0.0428
 8235TIP3    H146196   3.267   1.993   1.315 -0.2352 -0.2994 -1.3797
 8235TIP3    H246197   3.127   1.937   1.302 -0.5013 -0.3597  1.2466
 8236TIP3   OH246198   2.660   4.965   3.070  0.0367  0.2649  0.5025
 8236TIP3    H146199   2.729   4.921   3.119  1.2165  2.2137  0.7072
 8236TIP3    H246200   2.592   4.984   3.135 -0.2616 -0.7341  0.5069
 8237TIP3   OH246201   5.083   4.648  13.997 -0.8784  0.5694  0.3420
 8237TIP3    H146202   5.054   4.651  13.906  1.1889 -1.5271 -0.4891
 8237TIP3    H246203   5.050   4.564  14.030  0.0736  0.3844  0.8591
 8238TIP3   OH246204   3.134   0.463   1.274  0.4908 -0.0249  0.2023
 8238TIP3    H146205   3.039   0.477   1.277  0.5489  0.2527  1.6752
 8238TIP3    H246206   3.162   0.504   1.192 -0.6361  0.0265 -0.1754
 8239TIP3   OH246207   4.584   1.293   4.131  0.4890 -0.3489 -0.0589
 8239TIP3    H146208   4.531   1.364   4.165  0.0002 -0.0729 -1.3393
 8239TIP3    H246209   4.524   1.218   4.126 -0.3010  0.3446 -2.9189
 8240TIP3   OH246210   3.272   5.612   6.237 -0.0575 -0.1680 -0.2609
 8240TIP3    H146211   3.278   5.548   6.308  0.9628  1.1205  0.8545
 8240TIP3    H246212   3.271   5.697   6.281 -2.2791  0.6194 -1.6622
 8241TIP3   OH246213   6.644   6.308   1.085  0.0081  0.2513 -0.1451
 8241TIP3    H146214   6.617   6.386   1.036  2.4300  0.5994 -1.0723
 8241TIP3    H246215   6.589   6.238   1.051 -1.1425  1.2608 -0.4238
 8242TIP3   OH246216   5.684   4.781   5.220  0.0781  0.4504  0.2946
 8242TIP3    H146217   5.779   4.792   5.227  0.1671 -0.3397  0.4179
 8242TIP3    H246218   5.656   4.848   5.158  0.8807 -0.0779 -0.6578
 8243TIP3   OH246219   5.606   6.659   0.624  0.2103  0.2710  0.1798
 8243TIP3    H146220   5.538   6.705   0.673 -1.2371  1.0659 -2.3668
 8243TIP3    H246221   5.669   6.727   0.600  0.1532  0.1862 -0.2278
 8244TIP3   OH246222   3.863   4.533   4.936 -0.2194  0.2825 -0.2880
 8244TIP3    H146223   3.858   4.444   4.903 -3.1875  0.3213 -0.2034
 8244TIP3    H246224   3.874   4.587   4.858  1.4338 -0.1028 -0.3508
 8245TIP3   OH246225   1.472   0.841  15.091  0.7732 -0.3305 -0.2879
 8245TIP3    H146226   1.526   0.882  15.023 -0.0290  2.2796  0.5400
 8245TIP3    H246227   1.524   0.849  15.171 -0.2251  0.9849  0.2633
 8246TIP3   OH246228   6.553   4.639  12.891  0.7381  0.0817 -0.0608
 8246TIP3    H146229   6.548   4.660  12.797  2.2302 -3.3117 -1.0486
 8246TIP3    H246230   6.636   4.676  12.919 -0.7168  3.1022  0.6341
 8247TIP3   OH246231   1.203   2.310   5.959  0.6531  0.2463 -0.5457
 8247TIP3    H146232   1.228   2.344   6.045  0.9099 -1.9619  0.2967
 8247TIP3    H246233   1.107   2.313   5.959  0.6633  0.9602 -0.5223
 8248TIP3   OH246234   5.680   3.305   3.170 -0.0160 -0.5784  0.9470
 8248TIP3    H146235   5.754   3.358   3.141  0.8716 -1.7066  1.0754
 8248TIP3    H246236   5.675   3.234   3.106 -1.3407 -0.2461  0.6380
 8249TIP3   OH246237   0.400   2.740   1.246  0.1108 -0.2313  0.1250
 8249TIP3    H146238   0.454   2.801   1.295 -0.3903 -0.3799  0.8928
 8249TIP3    H246239   0.377   2.787   1.166  1.6300 -0.2947 -0.3789
 8250TIP3   OH246240   2.302   4.338   2.967  0.3511 -0.0167 -0.1490
 8250TIP3    H146241   2.363   4.412   2.970  0.6638 -0.2604 -0.3237
 8250TIP3    H246242   2.353   4.264   3.000  0.2471 -0.2913 -0.6017
 8251TIP3   OH246243   1.859   3.988   3.185  0.0493 -0.3497 -0.1165
 8251TIP3    H146244   1.854   4.069   3.235 -0.2286 -1.8408  2.4412
 8251TIP3    H246245   1.773   3.979   3.143 -0.5947 -0.2314  1.1435
 8252TIP3   OH246246   3.941   0.007  13.797 -0.2354  0.0009  0.4444
 8252TIP3    H146247   3.989  -0.003  13.715  0.1863 -0.9227  0.7928
 8252TIP3    H246248   3.854  -0.028  13.777 -0.2782  0.1981  0.2713
 8253TIP3   OH246249   2.895   4.484   2.000 -0.4218 -0.3993 -0.3289
 8253TIP3    H146250   2.967   4.451   1.946  0.5090  0.9993 -0.0251
 8253TIP3    H246251   2.831   4.517   1.937  0.3449  0.5945 -0.6145
 8254TIP3   OH246252   4.981   3.883  11.691  0.0696 -0.1759  0.1046
 8254TIP3    H146253   5.023   3.833  11.761 -1.1887  0.6315  1.4649
 8254TIP3    H246254   4.952   3.816  11.629  2.1833 -0.8329 -0.2531
 8255TIP3   OH246255   3.700   5.047   1.373 -0.5753 -0.4019  0.2384
 8255TIP3    H146256   3.691   5.134   1.334  1.0224  0.3316  1.3801
 8255TIP3    H246257   3.610   5.020   1.392 -1.0742  1.4618  0.8019
 8256TIP3   OH246258   4.333   5.336  16.245  0.3627  0.6031 -0.1821
 8256TIP3    H146259   4.262   5.395  16.271  1.0364  1.0498  0.7151
 8256TIP3    H246260   4.380   5.383  16.177  0.4605  0.7952  0.0156
 8257TIP3   OH246261   2.126   3.550  15.935 -0.2547 -0.3360 -0.3001
 8257TIP3    H146262   2.183   3.475  15.956  0.9486  0.4917 -0.5103
 8257TIP3    H246263   2.120   3.550  15.840  1.1754  0.8152 -0.4273
 8258TIP3   OH246264   3.966   2.047  13.074 -0.0476 -0.3030 -0.4278
 8258TIP3    H146265   4.042   2.053  13.132  0.0635 -0.8135 -0.5228
 8258TIP3    H246266   3.914   1.975  13.109 -0.7025  0.3077 -0.1163
 8259TIP3   OH246267   6.475   1.592  15.431  0.0132  0.5620  0.6325
 8259TIP3    H146268   6.569   1.584  15.415  0.0582  0.7907  0.7792
 8259TIP3    H246269   6.441   1.634  15.352 -0.1221 -0.4138  0.1495
 8260TIP3   OH246270   4.356   3.077   2.997  0.1038 -0.3276 -0.1101
 8260TIP3    H146271   4.340   2.985   2.977  0.3160 -1.3357  3.5849
 8260TIP3    H246272   4.393   3.076   3.085  0.4404  3.3207 -0.0519
 8261TIP3   OH246273   2.778   0.163  10.986  0.6575  0.5255  0.7602
 8261TIP3    H146274   2.731   0.237  11.025  1.5743  1.5202  0.0668
 8261TIP3    H246275   2.752   0.165  10.894 -1.3591 -1.6849  1.2182
 8262TIP3   OH246276   1.223   4.069   6.468 -0.6676 -0.3272 -0.1685
 8262TIP3    H146277   1.223   4.053   6.373 -1.3726 -0.9589 -0.0687
 8262TIP3    H246278   1.232   3.982   6.507  0.2466 -0.0154  0.3506
 8263TIP3   OH246279   4.891   5.811  12.849 -0.1594 -0.3559 -0.2229
 8263TIP3    H146280   4.982   5.784  12.864 -0.3300 -3.4107 -3.3244
 8263TIP3    H246281   4.897   5.882  12.786  0.0866 -0.5486 -0.4180
 8264TIP3   OH246282   6.225   0.165  14.207 -0.0207  0.3118 -0.6073
 8264TIP3    H146283   6.173   0.221  14.150 -0.2967  0.8831  0.1932
 8264TIP3    H246284   6.227   0.080  14.161 -1.5943  0.2885 -0.7035
 8265TIP3   OH246285   3.726   1.345   3.028  0.4866 -0.0676  0.1752
 8265TIP3    H146286   3.758   1.383   2.946 -0.9171 -0.6719 -0.6867
 8265TIP3    H246287   3.713   1.420   3.085  3.9921  0.1953  0.8661
 8266TIP3   OH246288   2.606   2.550   3.476  0.6017  0.1600 -0.4152
 8266TIP3    H146289   2.611   2.538   3.571  2.3595  0.0196 -0.4870
 8266TIP3    H246290   2.630   2.642   3.462 -0.1171  0.3052 -0.6922
 8267TIP3   OH246291   1.123   4.296   3.656  0.0509 -0.4448  0.4035
 8267TIP3    H146292   1.213   4.309   3.684  0.9218  1.0973 -2.6035
 8267TIP3    H246293   1.108   4.202   3.666  1.3084 -0.4800  2.6423
 8268TIP3   OH246294   3.811   1.707   1.956  0.2893 -0.2492 -0.4828
 8268TIP3    H146295   3.799   1.696   2.050  0.8631 -0.3819 -0.4266
 8268TIP3    H246296   3.839   1.798   1.946 -1.5123  0.3212 -0.6894
 8269TIP3   OH246297   6.186   2.443   3.456 -0.3420  0.7479  0.2993
 8269TIP3    H146298   6.140   2.445   3.372 -0.0362 -2.0175 -0.0496
 8269TIP3    H246299   6.278   2.454   3.433 -0.2200 -0.3724  0.1786
 8270TIP3   OH246300   5.681   1.620  16.869  0.6259  0.2663 -0.5126
 8270TIP3    H146301   5.601   1.593  16.823 -0.8997 -0.9536  2.5917
 8270TIP3    H246302   5.752   1.590  16.812 -1.0854 -3.2351 -1.0813
 8271TIP3   OH246303   1.051   5.319  12.121  0.5848 -0.4489  0.2087
 8271TIP3    H146304   0.986   5.357  12.062 -0.7607 -2.1986  0.4936
 8271TIP3    H246305   1.122   5.383  12.122 -1.4108  1.9043  0.4526
 8272TIP3   OH246306   5.570   0.303   6.299  0.3221  0.4427  0.5175
 8272TIP3    H146307   5.654   0.265   6.324  0.0485  1.9408  4.4714
 8272TIP3    H246308   5.579   0.396   6.319 -1.9073  0.8692 -0.1579
 8273TIP3   OH246309   1.734   0.456  12.855  0.1633  0.1006  0.7069
 8273TIP3    H146310   1.724   0.413  12.940 -0.8228  0.8546  0.9914
 8273TIP3    H246311   1.729   0.549  12.875  1.7923  0.3665  0.0386
 8274TIP3   OH246312   0.314   3.764  13.696 -0.5818  0.3386  0.2361
 8274TIP3    H146313   0.226   3.763  13.659 -1.5308  2.3713  2.1952
 8274TIP3    H246314   0.333   3.857  13.710  2.3298  0.0323 -1.0416
 8275TIP3   OH246315   2.222   6.673   4.360 -0.0708  0.0549 -0.1004
 8275TIP3    H146316   2.251   6.732   4.290  0.3770  0.2612  0.2523
 8275TIP3    H246317   2.150   6.720   4.403 -2.0922 -1.1251 -1.9817
 8276TIP3   OH246318   3.316   0.906  15.241 -0.2659 -0.1817  0.7244
 8276TIP3    H146319   3.231   0.939  15.273 -1.3707 -2.3753  0.2537
 8276TIP3    H246320   3.380   0.946  15.300 -1.9165 -1.2366  3.4778
 8277TIP3   OH246321   5.673   1.083  15.150  0.2997  0.1263 -0.5262
 8277TIP3    H146322   5.736   1.108  15.218  0.4103 -2.2555  0.3491
 8277TIP3    H246323   5.726   1.065  15.073  0.9099 -2.6353  0.4260
 8278TIP3   OH246324   6.321   3.781   0.444 -0.1228 -0.4058  0.4271
 8278TIP3    H146325   6.332   3.803   0.537  0.2035 -1.0186  0.5400
 8278TIP3    H246326   6.235   3.740   0.439 -0.3090 -0.0170  0.3868
 8279TIP3   OH246327   4.126   4.837  12.496 -0.4707  0.0943 -0.2069
 8279TIP3    H146328   4.112   4.870  12.585  0.4933 -0.2575  0.0849
 8279TIP3    H246329   4.158   4.913  12.447 -1.4595  0.4073 -0.3812
 8280TIP3   OH246330   6.303   5.863  13.910 -0.2427  0.1972 -0.0005
 8280TIP3    H146331   6.283   5.770  13.905  0.0024  0.1943 -1.5615
 8280TIP3    H246332   6.221   5.905  13.936 -0.6824 -0.3512 -0.4945
 8281TIP3   OH246333   5.661   1.520   3.963 -0.1930 -0.0735  0.2977
 8281TIP3    H146334   5.753   1.533   3.942 -0.4077  0.8025 -0.1795
 8281TIP3    H246335   5.616   1.593   3.919 -1.0680 -0.2792  0.8215
 8282TIP3   OH246336   1.363   2.600  12.682  0.1034 -0.1648 -0.4230
 8282TIP3    H146337   1.278   2.637  12.707  0.2709 -0.2547  0.2890
 8282TIP3    H246338   1.345   2.552  12.601 -0.2841  0.7957 -0.9383
 8283TIP3   OH246339   4.741   5.643  12.040  0.2882  0.0776  0.2162
 8283TIP3    H146340   4.781   5.587  12.106  0.5366  0.7873  0.6791
 8283TIP3    H246341   4.811   5.660  11.977 -0.8645 -3.7180 -2.4293
 8284TIP3   OH246342   5.813   1.769   3.111 -0.3658  0.3013 -0.5092
 8284TIP3    H146343   5.856   1.780   3.026  1.5401  2.6976  0.6546
 8284TIP3    H246344   5.797   1.859   3.141  3.8328 -0.0502  3.9051
 8285TIP3   OH246345   5.887   6.337  17.071  0.6965  0.1925 -0.2935
 8285TIP3    H146346   5.903   6.422  17.030 -0.9577  0.0423 -1.3676
 8285TIP3    H246347   5.973   6.296  17.077  1.6875  2.3108  1.1963
 8286TIP3   OH246348   4.925   6.732  15.507  0.1564 -0.2446  0.7192
 8286TIP3    H146349   4.998   6.670  15.499 -0.4503 -0.7624 -2.5623
 8286TIP3    H246350   4.961   6.815  15.478 -0.0471  0.0034  1.1720
 8287TIP3   OH246351   6.341   5.926  14.782 -0.1957  0.1687 -0.3108
 8287TIP3    H146352   6.413   5.987  14.798 -0.1386 -0.0010  0.0923
 8287TIP3    H246353   6.275   5.948  14.848  0.3908 -1.0826  0.7309
 8288TIP3   OH246354   1.102   2.685   0.208  0.4096  0.2150  0.4396
 8288TIP3    H146355   1.168   2.640   0.155  0.6280 -1.8742  2.3193
 8288TIP3    H246356   1.019   2.647   0.179  0.5589 -1.1981  1.7407
 8289TIP3   OH246357   2.296   0.466  10.224 -0.0662 -0.1985  0.0536
 8289TIP3    H146358   2.265   0.376  10.210 -0.6473  0.0190 -0.0890
 8289TIP3    H246359   2.252   0.494  10.304 -1.0552  0.4610 -0.6923
 8290TIP3   OH246360   0.314   6.431   1.055 -0.6139  0.0346 -0.4120
 8290TIP3    H146361   0.239   6.402   1.107 -0.5081  0.1935 -0.1681
 8290TIP3    H246362   0.283   6.508   1.008 -0.7904 -0.2657 -0.7942
 8291TIP3   OH246363   1.371   3.195   0.813 -0.6681  0.0304  0.3791
 8291TIP3    H146364   1.449   3.210   0.866 -1.3895  0.1465  1.4353
 8291TIP3    H246365   1.362   3.100   0.809 -1.9523 -0.0027  2.5543
 8292TIP3   OH246366   0.313   6.380   2.551  0.1288  0.0985 -0.4291
 8292TIP3    H146367   0.317   6.353   2.642  1.9715 -0.1350 -0.5382
 8292TIP3    H246368   0.306   6.298   2.502 -0.9510  0.2276 -0.5147
 8293TIP3   OH246369   2.422   0.378  12.478  0.1229 -0.6740 -0.0850
 8293TIP3    H146370   2.336   0.377  12.435  0.5897  0.2731 -1.0703
 8293TIP3    H246371   2.485   0.366  12.407  0.8957  0.6041  0.3554
 8294TIP3   OH246372   0.658   2.072   2.932  0.6945  0.1395 -0.6447
 8294TIP3    H146373   0.600   2.106   2.863 -0.1955 -0.7054 -0.3428
 8294TIP3    H246374   0.746   2.083   2.896  0.3556  1.3819 -1.1510
 8295TIP3   OH246375   4.033   5.011  13.961 -0.0865 -0.0361  0.3375
 8295TIP3    H146376   3.996   5.029  13.875  2.3352  1.6450 -0.4577
 8295TIP3    H246377   3.967   5.044  14.023 -2.3907 -2.3278 -0.7331
 8296TIP3   OH246378   5.122   2.957   4.860  0.0543 -0.5229  0.3100
 8296TIP3    H146379   5.090   3.027   4.804 -0.1491 -1.7110 -1.1294
 8296TIP3    H246380   5.047   2.933   4.915  0.8308  2.0910  2.7785
 8297TIP3   OH246381   1.450   4.976   5.556 -0.3839  0.1095 -0.2747
 8297TIP3    H146382   1.510   5.030   5.607 -0.8619  0.2631  0.1362
 8297TIP3    H246383   1.391   5.038   5.514 -2.4538 -0.0879  2.0716
 8298TIP3   OH246384   1.071   1.740   4.528  0.5480  0.3466 -0.1477
 8298TIP3    H146385   1.102   1.761   4.440  0.9116  0.0699 -0.0866
 8298TIP3    H246386   1.128   1.788   4.587  0.5409  0.2366 -0.0498
 8299TIP3   OH246387   5.929   2.752  14.111 -0.7517  0.0616 -0.3759
 8299TIP3    H146388   5.902   2.706  14.031 -0.4052 -1.3429  0.2924
 8299TIP3    H246389   5.852   2.803  14.136 -2.0575 -2.0655  0.1963
 8300TIP3   OH246390   5.955   3.576   4.037 -0.2936  0.6209 -0.1075
 8300TIP3    H146391   5.968   3.663   4.075 -0.8293  0.2847  0.8754
 8300TIP3    H246392   5.903   3.529   4.102  3.0069 -1.6637  1.1900
 8301TIP3   OH246393   0.046   3.310  14.880  0.1016  0.3122 -0.4390
 8301TIP3    H146394   0.017   3.292  14.791 -1.3127  0.2179  0.0219
 8301TIP3    H246395   0.141   3.316  14.873 -0.0109  0.7825 -2.0391
 8302TIP3   OH246396   6.465   5.920  13.348  0.3941 -0.0562  0.0620
 8302TIP3    H146397   6.436   6.009  13.365  1.3034  0.3622 -0.5361
 8302TIP3    H246398   6.436   5.902  13.258  0.0818 -0.4190  0.2336
 8303TIP3   OH246399   3.946   3.829   0.648 -0.1134  0.1770  0.0373
 8303TIP3    H146400   3.942   3.797   0.738  0.3012  0.4464  0.1555
 8303TIP3    H246401   3.891   3.907   0.647  0.0103  0.2645  0.0951
 8304TIP3   OH246402   3.523   6.426  12.425  0.5702  0.0144  0.3052
 8304TIP3    H146403   3.517   6.373  12.505 -1.2962 -0.7089 -0.2497
 8304TIP3    H246404   3.556   6.366  12.359 -0.5470 -0.2080 -0.0788
 8305TIP3   OH246405   6.657   6.400   4.166  0.4753 -0.0612 -0.3372
 8305TIP3    H146406   6.577   6.353   4.187  0.3787  0.3247  0.1858
 8305TIP3    H246407   6.667   6.463   4.238  1.7167 -0.6980  0.0710
 8306TIP3   OH246408   6.035   2.901   5.624 -0.7628 -0.0682  0.6868
 8306TIP3    H146409   6.103   2.960   5.656 -0.2339 -0.9679  1.2461
 8306TIP3    H246410   5.980   2.883   5.700  0.1849 -1.7814  1.0113
 8307TIP3   OH246411   2.327   3.769  12.084  0.1018 -0.1441  0.0847
 8307TIP3    H146412   2.324   3.864  12.097  1.4522  0.0359 -0.7680
 8307TIP3    H246413   2.336   3.758  11.990  1.6341 -1.0551  0.3052
 8308TIP3   OH246414   0.383   2.210  16.180 -0.3163  0.5753  0.4674
 8308TIP3    H146415   0.425   2.278  16.127 -0.5491  0.3644  0.0063
 8308TIP3    H246416   0.352   2.256  16.258 -0.4144  0.9929  0.1887
 8309TIP3   OH246417   4.893   1.266  15.113  0.1226 -0.3872 -0.1690
 8309TIP3    H146418   4.833   1.336  15.089  0.9636  0.4682  0.1840
 8309TIP3    H246419   4.907   1.217  15.031 -0.2243  0.0329 -0.4835
 8310TIP3   OH246420   0.209   2.652  15.250 -0.4490  0.5229 -0.4356
 8310TIP3    H146421   0.260   2.732  15.263 -1.4023  0.8819  1.4606
 8310TIP3    H246422   0.241   2.593  15.319 -0.2211 -0.5101 -1.4043
 8311TIP3   OH246423   1.825   2.436  16.656 -0.2556 -0.7620 -0.4687
 8311TIP3    H146424   1.868   2.357  16.623  1.0767 -0.5284  0.6105
 8311TIP3    H246425   1.784   2.407  16.738  2.5138  0.1794  1.3754
 8312TIP3   OH246426   1.671   3.101   0.567 -0.0998 -0.3166  0.4959
 8312TIP3    H146427   1.735   3.052   0.516  0.4729  0.2095  0.6976
 8312TIP3    H246428   1.693   3.083   0.658  0.8307  1.1713  0.6012
 8313TIP3   OH246429   5.985   5.519  11.330  0.5073  0.0795 -0.6472
 8313TIP3    H146430   5.970   5.532  11.423  0.2847 -0.1370 -0.6500
 8313TIP3    H246431   5.904   5.549  11.288  1.0737  1.3614 -0.8730
 8314TIP3   OH246432   1.759   2.205  12.067  0.5537  0.5092  0.2703
 8314TIP3    H146433   1.677   2.196  12.018  0.4406  0.6054  0.4424
 8314TIP3    H246434   1.751   2.142  12.139  0.3697  0.9592  0.6431
 8315TIP3   OH246435   1.656   0.327  14.689  0.0376  0.2885 -0.2249
 8315TIP3    H146436   1.617   0.274  14.619 -0.1243 -1.2612  0.9623
 8315TIP3    H246437   1.628   0.283  14.769  0.3840  1.8975  0.8070
 8316TIP3   OH246438   4.200   6.343  11.616 -0.4237  0.0667  0.3931
 8316TIP3    H146439   4.134   6.338  11.685  0.9353 -0.2716  1.7202
 8316TIP3    H246440   4.284   6.343  11.663  0.6204 -1.8490 -1.3204
 8317TIP3   OH246441   6.661   2.775  15.236  0.2449  0.0687  0.6127
 8317TIP3    H146442   6.569   2.748  15.239 -1.1827  3.7666 -2.0052
 8317TIP3    H246443   6.703   2.714  15.176 -1.2505 -0.0270 -0.3831
 8318TIP3   OH246444   3.367   4.290   2.380  0.4177 -0.4243  0.0024
 8318TIP3    H146445   3.325   4.205   2.397 -2.1907  0.9597  1.0089
 8318TIP3    H246446   3.341   4.311   2.290  0.7527 -0.5063 -0.1149
 8319TIP3   OH246447   0.024   4.134   1.052 -0.0460  0.2968  0.1100
 8319TIP3    H146448   0.018   4.222   1.087  0.0282  0.3137  0.0811
 8319TIP3    H246449   0.066   4.145   0.967 -1.5018  0.4251 -0.6271
 8320TIP3   OH246450   3.131   6.339   5.504 -0.3197  0.2620  0.2742
 8320TIP3    H146451   3.097   6.321   5.591 -0.6694  1.9452  0.5276
 8320TIP3    H246452   3.108   6.431   5.488 -1.0272 -0.2356 -1.9391
 8321TIP3   OH246453   4.911   6.087   6.343 -0.2088 -0.0317  0.4031
 8321TIP3    H146454   4.992   6.087   6.291 -0.3292  0.8008  0.1871
 8321TIP3    H246455   4.892   5.995   6.359 -0.0381 -0.3046 -0.8529
 8322TIP3   OH246456   0.026   0.090   1.980 -0.0325  0.1624  0.3169
 8322TIP3    H146457   0.061   0.020   2.036  2.1057  1.0989  0.2487
 8322TIP3    H246458  -0.011   0.153   2.042 -2.2986 -1.0996  0.3673
 8323TIP3   OH246459   6.371   0.487   3.529 -0.0881 -0.6766  0.3886
 8323TIP3    H146460   6.434   0.460   3.595 -0.2284 -0.8908  0.4363
 8323TIP3    H246461   6.287   0.490   3.575 -0.0467  0.0187  0.4259
 8324TIP3   OH246462   4.746   0.906  11.256  0.0265  0.4108  0.9045
 8324TIP3    H146463   4.752   0.929  11.348  1.6254  0.3227  0.8551
 8324TIP3    H246464   4.749   0.811  11.254 -0.2115  0.4048  0.7664
 8325TIP3   OH246465   5.218   4.380   4.270 -0.3463 -0.3945  0.2390
 8325TIP3    H146466   5.189   4.373   4.179  1.3452 -2.0167 -0.2524
 8325TIP3    H246467   5.188   4.299   4.311 -0.7149  0.1264  1.0232
 8326TIP3   OH246468   5.467   0.718  15.657 -0.0148 -0.1175 -0.5774
 8326TIP3    H146469   5.461   0.693  15.750  1.9275 -0.0010 -0.3778
 8326TIP3    H246470   5.455   0.635  15.610 -0.0981 -0.3300 -0.1911
 8327TIP3   OH246471   2.131   3.312   5.701 -0.0208  0.2296  0.1850
 8327TIP3    H146472   2.160   3.291   5.790  1.0401  0.5193 -0.0826
 8327TIP3    H246473   2.039   3.339   5.712  0.1560  0.4627  1.2215
 8328TIP3   OH246474   3.076   1.152  16.837  0.1256  0.1250  0.0993
 8328TIP3    H146475   3.154   1.196  16.872  0.3003  0.1266 -0.2820
 8328TIP3    H246476   3.094   1.144  16.743 -0.4767  0.4260 -0.0480
 8329TIP3   OH246477   6.194   6.737  14.088  0.1896  0.1260 -0.6937
 8329TIP3    H146478   6.151   6.721  14.004  3.3297 -0.8371 -2.3119
 8329TIP3    H246479   6.186   6.654  14.135 -0.6113  0.3023 -0.5145
 8330TIP3   OH246480   1.515   0.283  14.070  0.2685 -0.8280 -0.4628
 8330TIP3    H146481   1.485   0.360  14.022 -1.7016  0.1495  2.1706
 8330TIP3    H246482   1.555   0.228  14.002  0.9159  2.0174 -2.5984
 8331TIP3   OH246483   2.801   3.372  16.602 -0.1420  0.4821 -0.4716
 8331TIP3    H146484   2.812   3.446  16.661 -0.0698  0.2479 -0.1890
 8331TIP3    H246485   2.783   3.412  16.516  0.2114  0.8268 -0.3891
 8332TIP3   OH246486   5.359   3.712   3.321 -0.2385  0.3019  0.7628
 8332TIP3    H146487   5.273   3.739   3.288 -0.4869 -1.5795 -0.2402
 8332TIP3    H246488   5.340   3.641   3.382  0.6497 -1.3086 -0.7538
 8333TIP3   OH246489   2.673   3.620  16.063  0.3212  0.4208  0.2265
 8333TIP3    H146490   2.605   3.587  16.122 -0.2554  0.6907 -0.2755
 8333TIP3    H246491   2.718   3.541  16.032 -1.2776  0.0327 -1.2476
 8334TIP3   OH246492   2.113   3.314   3.236 -0.8998  0.2576 -0.4776
 8334TIP3    H146493   2.096   3.334   3.328 -1.1018 -1.2605 -0.1610
 8334TIP3    H246494   2.027   3.307   3.196 -0.8764 -0.9381 -0.3466
 8335TIP3   OH246495   1.754   6.109  13.713 -0.7177  0.3621 -0.1481
 8335TIP3    H146496   1.813   6.063  13.654 -0.2034  0.0179  0.6108
 8335TIP3    H246497   1.710   6.175  13.658 -0.7533 -0.3889 -1.0352
 8336TIP3   OH246498   0.237   2.331   4.629 -0.9863  0.1787 -1.2137
 8336TIP3    H146499   0.210   2.411   4.675  0.9374  0.3401 -0.2888
 8336TIP3    H246500   0.308   2.358   4.572  1.3101 -1.1633  0.8061
 8337TIP3   OH246501   1.713   1.007  12.570  0.3427  0.1303  0.2346
 8337TIP3    H146502   1.751   0.920  12.584 -1.9446 -0.7554  1.2981
 8337TIP3    H246503   1.718   1.020  12.475  1.6700 -0.6673  0.1677
 8338TIP3   OH246504   2.864   4.953   3.712  0.3861 -0.0447 -0.2818
 8338TIP3    H146505   2.897   4.868   3.684 -1.3819 -0.6162 -0.7944
 8338TIP3    H246506   2.871   5.008   3.634 -0.2334 -0.2983 -0.5280
 8339TIP3   OH246507   4.811   6.253  15.170 -0.1628  0.0748 -0.7492
 8339TIP3    H146508   4.870   6.214  15.235  1.3899 -1.2617 -2.7870
 8339TIP3    H246509   4.799   6.183  15.105 -3.2033  0.6767 -0.9920
 8340TIP3   OH246510   6.640   1.922  12.619  0.4245 -1.0694 -0.1033
 8340TIP3    H146511   6.694   1.923  12.540  1.4673  1.0538  0.5565
 8340TIP3    H246512   6.573   1.988  12.602 -0.2132 -1.6245  0.2320
 8341TIP3   OH246513   6.491   6.445  12.989 -0.3400  0.3911  0.1992
 8341TIP3    H146514   6.549   6.475  12.919 -0.1637 -2.2206 -0.8732
 8341TIP3    H246515   6.547   6.445  13.067  0.1483  1.0099 -0.1386
 8342TIP3   OH246516   2.252   0.003  13.704  0.3028 -0.0933 -0.1646
 8342TIP3    H146517   2.245   0.054  13.623 -1.5542  0.6090  0.3737
 8342TIP3    H246518   2.228   0.064  13.773  0.1270 -1.1437  0.7304
 8343TIP3   OH246519   3.603   1.957   0.224  0.3039 -0.1808  0.0882
 8343TIP3    H146520   3.544   1.886   0.250  0.7754 -0.2021  1.1388
 8343TIP3    H246521   3.688   1.914   0.213  0.4014  0.0735 -0.1548
 8344TIP3   OH246522   5.594   5.079  10.464  0.4482 -0.0378 -0.3029
 8344TIP3    H146523   5.501   5.096  10.483  0.7806 -0.9191  2.6577
 8344TIP3    H246524   5.622   5.157  10.416 -1.3567  1.2107  0.5217
 8345TIP3   OH246525   4.686   1.115   3.032 -0.6364  0.3977  0.6434
 8345TIP3    H146526   4.606   1.155   3.000 -1.0364  0.3947  1.6113
 8345TIP3    H246527   4.693   1.033   2.983 -0.0252  1.4099 -1.0464
 8346TIP3   OH246528   5.598   6.531  15.870  0.1494 -0.7581 -0.1136
 8346TIP3    H146529   5.665   6.500  15.931  0.6568 -0.1805 -0.3635
 8346TIP3    H246530   5.515   6.502  15.909  0.2579  1.4955  2.0925
 8347TIP3   OH246531   2.678   4.008  11.854  0.6042  0.1809 -0.1094
 8347TIP3    H146532   2.734   4.082  11.833  0.3959  0.2939 -0.2623
 8347TIP3    H246533   2.588   4.041  11.847  0.5091 -0.0846 -0.1879
 8348TIP3   OH246534   0.136   1.956   3.362  0.2371 -1.2163 -0.2181
 8348TIP3    H146535   0.109   1.966   3.271  0.1208  1.0767 -0.0101
 8348TIP3    H246536   0.204   2.022   3.374 -0.1871 -1.0449  1.4975
 8349TIP3   OH246537   2.581   5.671  14.136 -0.0386  0.1829 -0.4051
 8349TIP3    H146538   2.647   5.670  14.206  1.0645 -1.4945 -1.4195
 8349TIP3    H246539   2.557   5.764  14.128  1.4434  0.7067  0.6696
 8350TIP3   OH246540   2.470   1.342  11.891 -0.1364 -0.0909  0.0764
 8350TIP3    H146541   2.441   1.380  11.808 -1.7560  0.2443  0.7461
 8350TIP3    H246542   2.462   1.248  11.879 -1.8492 -0.0074  0.3039
 8351TIP3   OH246543   2.630   2.467  11.346  0.1491  0.5283  0.0656
 8351TIP3    H146544   2.701   2.443  11.406 -0.1024 -0.4907 -0.0338
 8351TIP3    H246545   2.554   2.479  11.403 -0.1257 -0.5864 -0.0506
 8352TIP3   OH246546   1.150   2.605   2.367 -0.0849  0.0661 -0.6797
 8352TIP3    H146547   1.221   2.670   2.367 -0.5240  0.5618  0.0207
 8352TIP3    H246548   1.118   2.605   2.277 -0.1584  0.9150 -0.6664
 8353TIP3   OH246549   1.036   4.713  15.774  0.5281  0.2090  0.3180
 8353TIP3    H146550   0.998   4.751  15.695 -0.2310 -1.3607 -0.1006
 8353TIP3    H246551   0.972   4.649  15.804  1.3054 -0.0179  1.5792
 8354TIP3   OH246552   5.949   6.469   0.157 -0.5826 -0.5142  0.3161
 8354TIP3    H146553   5.927   6.416   0.080 -0.5929  0.4076 -0.3300
 8354TIP3    H246554   5.946   6.407   0.230 -2.0806 -1.1072 -0.2004
 8355TIP3   OH246555   6.327   3.822   6.261 -0.1997  0.2200 -0.7802
 8355TIP3    H146556   6.421   3.819   6.246  0.4619  0.8098  2.5958
 8355TIP3    H246557   6.305   3.915   6.261  0.2463  0.4801  3.0659
 8356TIP3   OH246558   0.797   2.136  13.818 -0.1085 -0.1965 -0.6029
 8356TIP3    H146559   0.724   2.186  13.855 -0.5430  0.3531 -2.1360
 8356TIP3    H246560   0.760   2.051  13.796  0.7686 -1.5203  2.5495
 8357TIP3   OH246561   5.581   5.067  15.270 -0.0027 -0.4182  0.6804
 8357TIP3    H146562   5.649   5.097  15.210 -0.3634  0.7748  0.8456
 8357TIP3    H246563   5.616   4.986  15.307  0.5118 -0.8242 -0.6312
 8358TIP3   OH246564   4.722   3.656  13.889  0.2065  0.7510 -0.0040
 8358TIP3    H146565   4.658   3.698  13.832 -1.4386  0.2389  1.3797
 8358TIP3    H246566   4.759   3.585  13.836 -1.4042  0.1759 -0.4262
 8359TIP3   OH246567   1.052   0.374   3.552  0.1096  0.8069  0.4189
 8359TIP3    H146568   0.985   0.439   3.572 -2.4287 -0.8132 -2.0723
 8359TIP3    H246569   1.023   0.295   3.597  0.7846  0.2778 -0.0522
 8360TIP3   OH246570   1.376   2.657   4.924  0.2404 -0.2631 -1.0163
 8360TIP3    H146571   1.317   2.723   4.887  0.6882  1.2960  0.8290
 8360TIP3    H246572   1.453   2.707   4.952  0.5494 -1.5213  0.5567
 8361TIP3   OH246573   6.079   1.146   2.872  0.3943  0.1816  0.0438
 8361TIP3    H146574   6.026   1.076   2.910 -0.0886 -0.6350 -1.9639
 8361TIP3    H246575   6.150   1.160   2.934 -1.7195  0.8170  2.4938
 8362TIP3   OH246576   0.596   2.847   0.721 -0.1485 -0.3195 -0.6182
 8362TIP3    H146577   0.580   2.789   0.795  3.2696 -2.4777 -1.3577
 8362TIP3    H246578   0.529   2.822   0.657 -0.8615 -0.9984  0.3623
 8363TIP3   OH246579   6.398   4.671   3.320 -0.3682  0.3199  0.8326
 8363TIP3    H146580   6.347   4.613   3.376 -1.0776 -0.2382 -0.3641
 8363TIP3    H246581   6.339   4.695   3.249  0.8409  0.0920 -0.3021
 8364TIP3   OH246582   3.450   5.112   1.592 -0.1346 -0.6113 -0.3762
 8364TIP3    H146583   3.363   5.152   1.582 -0.0922 -0.5488 -0.5032
 8364TIP3    H246584   3.510   5.187   1.591 -0.1723 -0.5390  1.0616
 8365TIP3   OH246585   2.144   0.629   4.368  0.1232 -0.3564  0.2292
 8365TIP3    H146586   2.060   0.612   4.410  0.8233 -2.5805  0.8794
 8365TIP3    H246587   2.180   0.704   4.415 -1.2721  0.3225  0.2519
 8366TIP3   OH246588   4.553   2.530   2.352 -0.5558 -0.1108  0.6771
 8366TIP3    H146589   4.589   2.617   2.337  0.0921  0.0767  3.0401
 8366TIP3    H246590   4.479   2.544   2.411 -0.6393 -1.1285  0.8365
 8367TIP3   OH246591   4.334   0.005   3.991 -0.0388 -0.1841 -0.3393
 8367TIP3    H146592   4.371   0.068   3.930  1.4532  0.2928  0.9822
 8367TIP3    H246593   4.240   0.021   3.989  0.1339  0.8125 -1.3979
 8368TIP3   OH246594   0.342   4.099   5.731  0.3196 -0.5897  0.4743
 8368TIP3    H146595   0.316   4.141   5.812  0.6898 -1.1459  0.8907
 8368TIP3    H246596   0.398   4.163   5.687 -0.9994  0.2813 -0.0313
 8369TIP3   OH246597   1.158   6.408  13.457  0.4314  0.0600 -0.5498
 8369TIP3    H146598   1.140   6.447  13.542 -0.6806 -1.8070  0.1366
 8369TIP3    H246599   1.098   6.334  13.451  2.0545 -1.2249 -1.9939
 8370TIP3   OH246600   2.209   1.375  13.658  0.2709  0.0209  0.3681
 8370TIP3    H146601   2.169   1.462  13.657  0.3170  0.0422 -0.4176
 8370TIP3    H246602   2.288   1.384  13.605 -0.3237 -0.7583 -0.6969
 8371TIP3   OH246603   2.984   3.555   4.266  0.4445  0.1894  0.0301
 8371TIP3    H146604   3.012   3.464   4.255  0.8317  0.2173  0.7467
 8371TIP3    H246605   2.926   3.571   4.191  1.4643 -0.2088 -0.8645
 8372TIP3   OH246606   6.531   2.927  14.365  0.2994  0.6176  0.2538
 8372TIP3    H146607   6.520   3.022  14.373  0.1924  0.6037  0.2665
 8372TIP3    H246608   6.469   2.890  14.428  0.2121  0.5355  0.1206
 8373TIP3   OH246609   6.134   0.363   2.397 -0.9283 -0.1465 -0.6933
 8373TIP3    H146610   6.070   0.428   2.423 -0.5677  0.8444 -2.1611
 8373TIP3    H246611   6.114   0.344   2.306  0.2205 -0.5974 -0.8763
 8374TIP3   OH246612   1.395   1.450   5.669 -0.1428  0.0534  0.4428
 8374TIP3    H146613   1.488   1.429   5.663 -0.1480 -0.2658  1.3112
 8374TIP3    H246614   1.368   1.413   5.753 -1.4795 -1.4581 -0.5945
 8375TIP3   OH246615   2.557   4.271  13.496  0.0225 -0.6631 -0.2366
 8375TIP3    H146616   2.620   4.271  13.568  0.5266 -0.9261 -0.6672
 8375TIP3    H246617   2.494   4.204  13.520 -1.5581  1.2896  1.4197
 8376TIP3   OH246618   4.466   2.262   0.069  0.4251 -0.1406 -0.2897
 8376TIP3    H146619   4.370   2.266   0.073  0.5003  1.3671  1.9146
 8376TIP3    H246620   4.494   2.275   0.160  2.7325 -0.9761 -0.8193
 8377TIP3   OH246621   3.022   4.754  10.662  0.0262  0.0141 -0.6192
 8377TIP3    H146622   3.072   4.832  10.687 -1.4324  1.1335 -0.9910
 8377TIP3    H246623   2.934   4.771  10.696  0.0775 -2.3623  0.9464
 8378TIP3   OH246624   6.380   5.372   5.212  0.3695 -0.5832  0.3217
 8378TIP3    H146625   6.385   5.301   5.276  1.5625 -2.3091 -1.5353
 8378TIP3    H246626   6.472   5.396   5.196  0.1359 -0.4838 -0.9872
 8379TIP3   OH246627   4.514   3.295   6.253  0.2315  0.0291 -0.4669
 8379TIP3    H146628   4.556   3.316   6.336  0.5660 -0.2391 -0.5659
 8379TIP3    H246629   4.432   3.344   6.254 -0.9196 -1.8157  1.0819
 8380TIP3   OH246630   1.944   4.673  11.260  0.0978  0.4306 -0.3312
 8380TIP3    H146631   2.010   4.725  11.306 -1.1616  0.0897  2.0778
 8380TIP3    H246632   1.990   4.594  11.231  0.9292  0.5362  0.6555
 8381TIP3   OH246633   2.947   6.585  15.621 -0.9395  0.1463  0.1957
 8381TIP3    H146634   3.021   6.578  15.560  0.3957 -0.0912  1.7640
 8381TIP3    H246635   2.929   6.495  15.648 -0.1119  0.3941  1.6971
 8382TIP3   OH246636   0.033   5.706   2.160  0.2767 -0.1550  0.5204
 8382TIP3    H146637   0.056   5.624   2.117 -2.0018 -0.3090 -0.5527
 8382TIP3    H246638   0.078   5.774   2.110  0.3601 -0.6020 -0.0120
 8383TIP3   OH246639   4.946   3.100  12.307  0.1456  0.4144  0.2034
 8383TIP3    H146640   4.905   3.107  12.221  0.6800 -1.6605 -0.2713
 8383TIP3    H246641   5.040   3.101  12.289  0.2625  0.0779  0.7711
 8384TIP3   OH246642   2.022   3.680   3.874 -0.0282  0.1768 -0.1655
 8384TIP3    H146643   1.946   3.669   3.817  0.6585 -1.9820 -0.7665
 8384TIP3    H246644   1.985   3.712   3.957 -1.4708 -0.0158 -0.6992
 8385TIP3   OH246645   4.678   5.822   6.269 -0.3913 -0.1347  0.6550
 8385TIP3    H146646   4.612   5.870   6.319 -2.6772 -2.2303 -0.1344
 8385TIP3    H246647   4.642   5.733   6.263  1.0311 -0.6033 -2.4663
 8386TIP3   OH246648   1.937   1.299   1.810 -0.5246  0.2611  0.0390
 8386TIP3    H146649   1.902   1.348   1.885  0.0997 -1.2032  1.3397
 8386TIP3    H246650   1.953   1.365   1.743  0.4407  1.8807  1.7828
 8387TIP3   OH246651   2.646   3.011   5.889  0.2097 -0.0269  0.3001
 8387TIP3    H146652   2.650   3.104   5.913 -0.1124  0.0992 -0.1287
 8387TIP3    H246653   2.573   2.977   5.940  0.2981 -0.0346  0.4218
 8388TIP3   OH246654   0.130   0.399  15.826  0.3531  0.0935 -0.4491
 8388TIP3    H146655   0.079   0.472  15.861 -0.9886 -0.1310 -1.8174
 8388TIP3    H246656   0.221   0.425  15.839 -0.0857  2.0504 -0.9156
 8389TIP3   OH246657   5.839   2.572  13.897  0.1939  0.0765  0.3521
 8389TIP3    H146658   5.814   2.481  13.915  0.2730 -0.2439 -1.0161
 8389TIP3    H246659   5.934   2.572  13.898  0.1921  0.2854  0.9443
 8390TIP3   OH246660   1.975   2.566  14.667 -0.6331 -0.0825  0.1372
 8390TIP3    H146661   1.959   2.602  14.580 -0.3949  0.4181  0.2939
 8390TIP3    H246662   1.963   2.472  14.657 -0.0248 -0.0967 -0.5770
 8391TIP3   OH246663   3.046   4.768  13.557  0.5589  0.4002 -0.5741
 8391TIP3    H146664   3.096   4.711  13.498  0.2797 -0.6727  0.1861
 8391TIP3    H246665   3.020   4.710  13.629 -0.5088  1.2958 -0.2180
 8392TIP3   OH246666   0.873   1.947   6.327 -0.5678  0.6848 -0.1846
 8392TIP3    H146667   0.819   2.026   6.329 -2.5266 -0.6045  0.2730
 8392TIP3    H246668   0.896   1.931   6.419  0.0673  0.8646 -0.3077
 8393TIP3   OH246669   2.409   1.821   3.100  0.2410  0.1864 -1.1751
 8393TIP3    H146670   2.373   1.873   3.171 -2.5933 -1.1709 -1.4643
 8393TIP3    H246671   2.493   1.789   3.133 -1.3086 -1.0455  1.9239
 8394TIP3   OH246672   2.437   6.679  12.095 -0.3024  0.0789 -0.8541
 8394TIP3    H146673   2.510   6.740  12.106  1.1024 -1.5970 -0.2415
 8394TIP3    H246674   2.359   6.733  12.101  0.8640  1.7949 -0.3321
 8395TIP3   OH246675   5.449   4.120   0.721 -0.4190  0.3840 -0.4711
 8395TIP3    H146676   5.369   4.168   0.742 -0.3647  0.1821  0.2229
 8395TIP3    H246677   5.445   4.107   0.626 -1.1020  0.5671 -0.4748
 8396TIP3   OH246678   6.111   6.262   4.905 -0.0048  0.6554  0.2541
 8396TIP3    H146679   6.146   6.180   4.870 -0.9865 -0.2705  1.3545
 8396TIP3    H246680   6.028   6.237   4.946  0.2683  1.9857  1.7021
 8397TIP3   OH246681   0.798   3.226   4.789  1.1166 -0.0703  0.0839
 8397TIP3    H146682   0.759   3.138   4.784  1.0223 -0.0213 -0.0356
 8397TIP3    H246683   0.785   3.263   4.702  3.6464 -0.9885 -0.7767
 8398TIP3   OH246684   6.086   1.957  17.135  0.3200 -0.2276  0.4157
 8398TIP3    H146685   6.070   2.048  17.158 -1.6538 -0.6478  0.8462
 8398TIP3    H246686   6.176   1.941  17.164  1.2750  1.9700 -1.0491
 8399TIP3   OH246687   3.658   6.623  11.261  0.4122  0.3248  0.0698
 8399TIP3    H146688   3.589   6.613  11.196 -0.8730 -1.1527  1.5565
 8399TIP3    H246689   3.615   6.664  11.336  1.6302  1.1485  0.3610
 8400TIP3   OH246690   1.734   3.844  13.888  0.0749  0.2853 -0.6983
 8400TIP3    H146691   1.780   3.802  13.961 -0.1265  0.1821 -0.6282
 8400TIP3    H246692   1.800   3.900  13.847 -0.3105  1.8707  0.7453
 8401TIP3   OH246693   5.183   6.414   3.831  0.0031  0.2044  0.0307
 8401TIP3    H146694   5.247   6.427   3.901  2.0223 -1.0895 -1.4480
 8401TIP3    H246695   5.174   6.500   3.790  1.4840  0.2572 -0.2434
 8402TIP3   OH246696   4.788   4.309  17.162  0.8423  0.3721 -0.0544
 8402TIP3    H146697   4.785   4.387  17.106 -0.0231  0.9760  0.8086
 8402TIP3    H246698   4.795   4.236  17.101 -2.0818  0.8501 -1.1494
 8403TIP3   OH246699   3.995   3.621  12.775  0.0591 -0.4895  0.6169
 8403TIP3    H146700   3.925   3.670  12.817  0.0398 -0.9724  1.1609
 8403TIP3    H246701   4.068   3.683  12.770 -0.7222  0.3811 -0.9629
 8404TIP3   OH246702   5.416   6.106   0.143  0.2372  0.1414 -0.2976
 8404TIP3    H146703   5.436   6.030   0.199  0.9415  0.1736 -0.5029
 8404TIP3    H246704   5.473   6.096   0.068  0.8154  1.2371 -0.0168
 8405TIP3   OH246705   5.461   1.930  11.282  0.4831 -0.1518 -0.1895
 8405TIP3    H146706   5.433   2.021  11.296 -0.1579 -0.5942  1.7120
 8405TIP3    H246707   5.556   1.932  11.291  0.3601  0.1361  1.3213
 8406TIP3   OH246708   5.864   5.636   0.042 -0.1450  0.4455  0.2712
 8406TIP3    H146709   5.907   5.721   0.053 -0.0320  0.6482 -1.4524
 8406TIP3    H246710   5.936   5.576   0.025 -0.3587  0.3201 -0.1795
 8407TIP3   OH246711   1.563   2.601   0.201  0.4600 -0.0394 -0.3094
 8407TIP3    H146712   1.632   2.572   0.141  1.1992  0.2285  0.3940
 8407TIP3    H246713   1.588   2.566   0.286 -0.5656 -0.3918 -0.1392
 8408TIP3   OH246714   0.195   2.472  16.577  0.1428  0.4432  0.3025
 8408TIP3    H146715   0.104   2.497  16.590  0.3697  0.6492  1.7316
 8408TIP3    H246716   0.245   2.538  16.627  0.9743 -0.5078  0.7673
 8409TIP3   OH246717   2.171   4.073   5.098 -0.1537  0.2929  0.3243
 8409TIP3    H146718   2.166   4.094   5.005 -1.8978  0.2798  0.3847
 8409TIP3    H246719   2.210   3.985   5.101 -1.8406 -0.5171 -0.5371
 8410TIP3   OH246720   1.158   4.198  14.015  0.3877 -0.0820 -0.1124
 8410TIP3    H146721   1.093   4.265  14.038  1.1068 -0.0955  2.2133
 8410TIP3    H246722   1.216   4.242  13.953  0.5543  1.3346  0.9784
 8411TIP3   OH246723   5.101   3.738   3.259  0.7408  0.0810 -0.1356
 8411TIP3    H146724   5.074   3.654   3.224  1.4161 -0.1993 -0.0134
 8411TIP3    H246725   5.038   3.801   3.224  0.8840 -0.3171 -1.1336
 8412TIP3   OH246726   2.266   6.235   3.274 -0.2846 -0.0792 -0.0020
 8412TIP3    H146727   2.313   6.315   3.296  1.0208 -0.8345  0.0512
 8412TIP3    H246728   2.290   6.216   3.184 -1.0546 -0.1173 -0.2123
 8413TIP3   OH246729   4.144   1.381  12.979  0.4273 -0.0799  0.5951
 8413TIP3    H146730   4.196   1.330  12.916 -0.9640 -0.8161 -0.0175
 8413TIP3    H246731   4.155   1.472  12.951  0.9371 -0.2759  0.1390
 8414TIP3   OH246732   0.420   3.133   4.006  0.3189 -0.0012  0.0911
 8414TIP3    H146733   0.431   3.110   3.914 -0.2606  2.2323 -0.6105
 8414TIP3    H246734   0.392   3.052   4.048 -1.4154 -0.6358 -2.0892
 8415TIP3   OH246735   3.953   0.013  12.195  0.0586 -0.1756 -0.3094
 8415TIP3    H146736   4.000   0.060  12.126  0.3660 -0.0428 -0.0131
 8415TIP3    H246737   3.861   0.031  12.177  0.1737  0.6047 -0.1611
 8416TIP3   OH246738   2.027   3.056   4.818 -0.4875 -0.0430 -0.0421
 8416TIP3    H146739   2.091   2.996   4.779  0.4376  1.3356 -0.7455
 8416TIP3    H246740   2.078   3.111   4.877 -1.4931 -0.5826  1.3838
 8417TIP3   OH246741   1.896   1.602   1.215  0.1901 -0.0222 -0.2964
 8417TIP3    H146742   1.832   1.575   1.281 -1.1120 -0.9374 -1.8695
 8417TIP3    H246743   1.870   1.692   1.194 -3.2039 -1.5128 -3.6546
 8418TIP3   OH246744   0.837   5.780  12.565  0.4098 -0.1728  0.5405
 8418TIP3    H146745   0.764   5.839  12.547  1.1840  0.9412  0.9598
 8418TIP3    H246746   0.877   5.815  12.644  1.5865 -0.5899  0.1443
 8419TIP3   OH246747   0.983   2.136   4.975 -0.0153  0.3341  0.0644
 8419TIP3    H146748   0.894   2.118   5.004 -0.0819 -0.9115 -0.8277
 8419TIP3    H246749   0.979   2.132   4.879  1.2451 -1.2535  0.0206
 8420TIP3   OH246750   2.297   4.401  14.655  0.0744  0.0771  0.1083
 8420TIP3    H146751   2.374   4.374  14.605 -0.8226 -0.9757 -0.7339
 8420TIP3    H246752   2.318   4.377  14.745 -0.0416 -2.0694 -0.3864
 8421TIP3   OH246753   4.854   0.039  16.145  0.5432  0.0187 -0.6401
 8421TIP3    H146754   4.888  -0.022  16.211 -0.7278  0.2187  0.2403
 8421TIP3    H246755   4.919   0.109  16.140  0.0149  0.7336  1.4750
 8422TIP3   OH246756   6.020   2.072  14.718  0.2633  0.0245  0.1525
 8422TIP3    H146757   6.077   2.055  14.643  1.5866 -0.3329  1.1925
 8422TIP3    H246758   6.080   2.073  14.793 -1.2092 -1.2658  1.4133
 8423TIP3   OH246759   1.740   3.117  15.211  0.3050 -0.0317 -0.7717
 8423TIP3    H146760   1.757   3.200  15.255 -1.8761  0.4983 -0.8248
 8423TIP3    H246761   1.819   3.065  15.226  0.8216  1.2258  1.1756
 8424TIP3   OH246762   0.493   0.109   5.211  0.3219  0.8315 -1.0520
 8424TIP3    H146763   0.566   0.073   5.261 -0.7770 -1.6731 -1.1137
 8424TIP3    H246764   0.535   0.160   5.141  1.9928 -0.2069 -0.8499
 8425TIP3   OH246765   2.817   1.783   2.034 -0.0418 -0.2558  0.0216
 8425TIP3    H146766   2.730   1.792   2.073 -1.0955 -1.8011 -1.8340
 8425TIP3    H246767   2.874   1.836   2.090 -1.6838 -1.2535  2.7851
 8426TIP3   OH246768   5.462   1.100  15.946  0.3756 -0.3373  0.3544
 8426TIP3    H146769   5.463   1.144  15.861  0.6310  0.3236  0.6968
 8426TIP3    H246770   5.376   1.058  15.950  0.3296 -0.3043 -0.1949
 8427TIP3   OH246771   1.610   2.878  12.396 -0.2263  0.5262  0.1098
 8427TIP3    H146772   1.676   2.946  12.411  0.8358 -0.5419  0.4160
 8427TIP3    H246773   1.654   2.796  12.417 -1.9707 -0.1631  1.3904
 8428TIP3   OH246774   5.237   1.827   2.995  0.3610 -0.0830 -0.0141
 8428TIP3    H146775   5.325   1.792   2.990  2.1258  3.1820  3.0466
 8428TIP3    H246776   5.195   1.778   3.065  0.6907 -0.0034  0.2416
 8429TIP3   OH246777   0.685   1.284   2.224 -0.0892  0.6831  0.1957
 8429TIP3    H146778   0.718   1.223   2.290  0.3287  1.4069  0.6844
 8429TIP3    H246779   0.620   1.337   2.271 -0.2463  0.7886 -0.1394
 8430TIP3   OH246780   0.179   3.193   2.922 -0.1261  0.1979 -0.3381
 8430TIP3    H146781   0.207   3.283   2.907  0.4962  0.3581  1.5007
 8430TIP3    H246782   0.158   3.159   2.835  1.0103  1.6602 -1.2283
 8431TIP3   OH246783   4.005   5.224   0.093  0.1589 -0.4211  0.0331
 8431TIP3    H146784   4.036   5.313   0.109  1.5760  0.0382 -4.1125
 8431TIP3    H246785   4.074   5.168   0.129  1.1375  0.3196 -0.6291
 8432TIP3   OH246786   0.296   1.074   5.726 -0.2677 -0.0806  0.0057
 8432TIP3    H146787   0.302   1.134   5.652  0.2379  0.0017  0.1078
 8432TIP3    H246788   0.270   0.990   5.689  2.1903 -0.6628 -0.6136
 8433TIP3   OH246789   4.070   2.311  16.840 -0.0786  0.5850 -0.0210
 8433TIP3    H146790   4.054   2.247  16.771 -1.5355 -0.0086  0.8170
 8433TIP3    H246791   4.145   2.275  16.888 -0.2201  0.0430 -0.1915
 8434TIP3   OH246792   4.954   6.077  12.738  0.0508  0.0759 -0.5346
 8434TIP3    H146793   4.901   6.089  12.817  0.8392  1.7568 -0.2265
 8434TIP3    H246794   5.042   6.102  12.764  0.9583 -2.2158 -1.1799
 8435TIP3   OH246795   0.751   1.895  13.736  0.3704  0.1166  0.4183
 8435TIP3    H146796   0.836   1.857  13.756  0.7625  0.2272 -0.9799
 8435TIP3    H246797   0.695   1.820  13.717  0.1431  0.0444  1.3303
 8436TIP3   OH246798   2.319   1.206  14.533  0.0971 -0.6141 -0.1198
 8436TIP3    H146799   2.235   1.159  14.538  0.2265 -0.7445  1.4501
 8436TIP3    H246800   2.313   1.258  14.453 -0.9079 -1.6927 -0.7795
 8437TIP3   OH246801   6.024   3.418   3.041  0.4821 -0.7056  0.0130
 8437TIP3    H146802   5.963   3.491   3.048  1.6870  0.5659 -1.7289
 8437TIP3    H246803   6.099   3.444   3.095  1.3147 -0.1576 -1.3529
 8438TIP3   OH246804   5.141   5.769   4.130  0.6897 -0.1561 -0.1991
 8438TIP3    H146805   5.145   5.821   4.050  0.7345  0.4753  0.2038
 8438TIP3    H246806   5.153   5.833   4.201 -2.2761 -0.1963  0.4832
 8439TIP3   OH246807   3.980   2.889  13.349  0.1383 -0.3893 -0.5769
 8439TIP3    H146808   3.906   2.840  13.384  0.0091  0.6695  0.7016
 8439TIP3    H246809   3.995   2.959  13.413  1.8110 -0.1751 -1.1648
 8440TIP3   OH246810   2.487   5.088  15.750  0.0894 -0.0239  0.2246
 8440TIP3    H146811   2.551   5.018  15.764 -0.6066 -0.7182  0.0907
 8440TIP3    H246812   2.504   5.151  15.819  1.3673  0.1570 -0.2270
 8441TIP3   OH246813   4.248   0.575   5.401  0.5681 -0.1845  0.0081
 8441TIP3    H146814   4.228   0.603   5.491  0.4245 -1.1641  0.3008
 8441TIP3    H246815   4.225   0.482   5.400 -2.0069  0.3745 -1.8257
 8442TIP3   OH246816   2.455   0.097   2.184 -0.4505  0.2560 -0.2172
 8442TIP3    H146817   2.530   0.149   2.154  0.5774 -0.6921  0.6110
 8442TIP3    H246818   2.480   0.006   2.165 -2.2853  0.0274 -1.7943
 8443TIP3   OH246819   6.005   1.567  15.340  0.4169  0.1084  0.4455
 8443TIP3    H146820   6.088   1.564  15.291  0.8744 -1.1450  1.2622
 8443TIP3    H246821   6.020   1.513  15.417 -0.0118  2.6658  2.4851
 8444TIP3   OH246822   6.556   3.877  13.430  0.7399  0.2334  0.1390
 8444TIP3    H146823   6.508   3.903  13.352 -0.5212  0.9177  1.0948
 8444TIP3    H246824   6.580   3.786  13.415 -2.1637 -0.6360  0.1948
 8445TIP3   OH246825   4.552   6.611   0.906 -0.6954  0.3935  0.2613
 8445TIP3    H146826   4.512   6.524   0.902  0.1380 -0.0130  0.3985
 8445TIP3    H246827   4.480   6.672   0.894 -1.8487 -0.1976  3.3838
 8446TIP3   OH246828   4.802   2.536   5.277  0.1630 -0.1093 -0.6135
 8446TIP3    H146829   4.892   2.511   5.260  0.4700  0.9152 -0.5882
 8446TIP3    H246830   4.800   2.557   5.371  0.5236  2.1634 -1.0450
 8447TIP3   OH246831   5.208   3.614   4.537  0.1992  1.0971  0.0622
 8447TIP3    H146832   5.202   3.556   4.613  0.5630  0.8346 -0.1039
 8447TIP3    H246833   5.289   3.588   4.494  0.2281  1.5517 -0.1651
 8448TIP3   OH246834   1.067   1.972  14.618 -0.2810 -0.9703 -0.2343
 8448TIP3    H146835   1.042   1.994  14.708 -2.5744 -0.4724 -0.9298
 8448TIP3    H246836   1.052   2.052  14.568  2.8849 -0.5952 -0.8085
 8449TIP3   OH246837   5.435   4.529   1.019  0.1247  0.2338 -0.6227
 8449TIP3    H146838   5.340   4.525   1.011 -0.1550  0.4768  1.8194
 8449TIP3    H246839   5.468   4.481   0.942 -1.9245  0.5446 -1.7559
 8450TIP3   OH246840   0.678   3.965  12.858  0.3500  0.3016  0.2029
 8450TIP3    H146841   0.757   4.015  12.841  1.0295 -0.4967  0.9133
 8450TIP3    H246842   0.613   4.001  12.798  1.2837  0.8756 -0.4849
 8451TIP3   OH246843   0.104   6.326   5.119 -0.3154 -0.1599 -0.4801
 8451TIP3    H146844   0.051   6.405   5.113 -0.9738 -0.6224 -0.9478
 8451TIP3    H246845   0.170   6.336   5.051  1.6058  1.4023  1.4848
 8452TIP3   OH246846   6.265   3.721   1.258 -0.5143 -0.0266  0.4131
 8452TIP3    H146847   6.313   3.679   1.330  0.4482  1.1024  0.4681
 8452TIP3    H246848   6.297   3.675   1.179 -1.5778 -1.2703  0.6773
 8453TIP3   OH246849   2.092   2.992   3.854 -0.4373  0.2605 -0.2072
 8453TIP3    H146850   2.055   3.076   3.881 -1.3188  0.0635 -0.7869
 8453TIP3    H246851   2.170   3.015   3.804  1.1487  0.6504  2.2792
 8454TIP3   OH246852   1.865   2.072  14.984  0.2237 -0.4979  0.6239
 8454TIP3    H146853   1.793   2.110  14.933  2.8720  2.2616 -1.4119
 8454TIP3    H246854   1.882   2.137  15.052  2.5895  0.4527 -0.7604
 8455TIP3   OH246855   6.125   4.064   0.681 -0.2365 -0.0533  0.2192
 8455TIP3    H146856   6.109   4.017   0.763 -0.1923 -0.7590 -0.1645
 8455TIP3    H246857   6.220   4.081   0.681 -0.3250  0.4531  0.5745
 8456TIP3   OH246858   3.844   1.744  14.720  0.0881 -0.2673 -0.4545
 8456TIP3    H146859   3.785   1.732  14.794 -0.5175 -1.9117 -1.1677
 8456TIP3    H246860   3.852   1.839  14.711 -1.2566 -0.0328  0.5971
 8457TIP3   OH246861   1.719   0.605  15.478  0.0830  0.1118  0.1217
 8457TIP3    H146862   1.643   0.553  15.504 -0.6365  0.5948 -0.9505
 8457TIP3    H246863   1.709   0.617  15.383 -0.4583  3.2086  0.4679
 8458TIP3   OH246864   5.468   3.606  11.125 -0.2660 -0.5236  0.2071
 8458TIP3    H146865   5.418   3.598  11.206 -0.4768 -0.5455  0.0738
 8458TIP3    H246866   5.499   3.696  11.124  1.2581 -0.9870  1.2108
 8459TIP3   OH246867   4.953   3.320  12.999  0.4913 -0.2141 -0.2179
 8459TIP3    H146868   4.992   3.243  13.041 -0.5666 -0.7893 -0.2487
 8459TIP3    H246869   4.996   3.325  12.914  0.7490 -0.6259 -0.1176
 8460TIP3   OH246870   2.721   1.809  12.740 -0.5196 -0.2041 -0.1496
 8460TIP3    H146871   2.757   1.757  12.812  1.3112  1.4285  0.1941
 8460TIP3    H246872   2.643   1.850  12.778  1.6560  2.4993  1.8532
 8461TIP3   OH246873   1.445   3.997   3.768  0.3554 -0.4360  0.5120
 8461TIP3    H146874   1.487   3.966   3.688 -2.8138 -0.6077 -1.2289
 8461TIP3    H246875   1.503   3.968   3.838  3.0853 -0.6099 -1.6427
 8462TIP3   OH246876   4.709   4.527  11.931  0.1203  0.4989  0.1826
 8462TIP3    H146877   4.647   4.530  12.004 -1.4130  3.1958 -1.0729
 8462TIP3    H246878   4.746   4.439  11.935 -0.0895  0.4123  3.9923
 8463TIP3   OH246879   1.124   2.668  11.087  0.4515  0.2693 -0.4360
 8463TIP3    H146880   1.123   2.600  11.020  1.0815 -0.2353  0.0486
 8463TIP3    H246881   1.047   2.650  11.141  1.4021 -0.9861  0.5653
 8464TIP3   OH246882   4.446   1.129  15.168 -0.3100 -0.6799 -0.3547
 8464TIP3    H146883   4.478   1.108  15.255  1.0148  0.5163 -0.5104
 8464TIP3    H246884   4.526   1.147  15.117 -1.1442  1.1414 -1.1163
 8465TIP3   OH246885   5.077   6.589   5.444  0.4198 -0.1210  0.0745
 8465TIP3    H146886   5.044   6.582   5.355  0.9211 -1.1006 -0.0516
 8465TIP3    H246887   5.172   6.591   5.434  0.4513  1.2385  0.5098
 8466TIP3   OH246888   0.977   1.631   6.258 -0.0299  0.0202 -0.8450
 8466TIP3    H146889   1.051   1.690   6.240 -0.2554 -0.1026 -2.2601
 8466TIP3    H246890   1.018   1.546   6.274  0.1408 -0.0831 -1.7875
 8467TIP3   OH246891   3.498   6.600   3.392  0.2521  0.2849  0.0155
 8467TIP3    H146892   3.458   6.530   3.445  1.2651  1.1179  2.0099
 8467TIP3    H246893   3.592   6.591   3.409  0.4477  1.7169 -0.2216
 8468TIP3   OH246894   5.087   1.405  13.450  0.3641  1.0611 -0.1164
 8468TIP3    H146895   5.164   1.432  13.499  1.4762 -1.1071 -0.5673
 8468TIP3    H246896   5.055   1.486  13.410  2.4018  2.0199  0.0824
 8469TIP3   OH246897   3.802   0.818  17.187  0.2777  0.2864 -0.1596
 8469TIP3    H146898   3.771   0.733  17.217 -3.3600  1.6991  0.5377
 8469TIP3    H246899   3.808   0.810  17.092 -0.0903 -0.7161 -0.1056
 8470TIP3   OH246900   2.923   2.646   0.077 -0.1174  0.2941  0.0508
 8470TIP3    H146901   2.903   2.740   0.078 -0.1991  0.2911 -0.8588
 8470TIP3    H246902   2.963   2.631  -0.009  1.0783 -0.2592  0.6889
 8471TIP3   OH246903   5.798   1.589  13.566 -0.5743 -0.1194 -0.3949
 8471TIP3    H146904   5.736   1.552  13.628 -1.8062  0.0753 -1.4733
 8471TIP3    H246905   5.747   1.606  13.487  0.5654  1.2670 -0.8822
 8472TIP3   OH246906   6.763   3.757  17.096  0.3505 -0.5077 -0.0255
 8472TIP3    H146907   6.737   3.820  17.028 -1.0026  1.1353  1.8586
 8472TIP3    H246908   6.702   3.684  17.085 -0.9561  0.4743  0.3604
 8473TIP3   OH246909   4.318   6.284  14.131 -0.3601  0.4182  0.2582
 8473TIP3    H146910   4.246   6.230  14.097 -1.3193  1.8517 -0.0867
 8473TIP3    H246911   4.294   6.302  14.222 -1.1365  1.9655 -0.2217
 8474TIP3   OH246912   5.393   4.100  11.972 -0.1551  0.0175  0.1674
 8474TIP3    H146913   5.331   4.119  11.902  0.4238  0.9874 -0.1044
 8474TIP3    H246914   5.464   4.163  11.959  0.2951 -0.2485  1.2108
 8475TIP3   OH246915   4.783   3.779   3.353  0.8156  0.0024 -0.1751
 8475TIP3    H146916   4.692   3.769   3.325 -0.0998 -2.2485  3.0416
 8475TIP3    H246917   4.785   3.864   3.396 -0.5502 -0.9395  1.9289
 8476TIP3   OH246918   6.359   2.680   2.862  0.4053 -0.2912 -0.0372
 8476TIP3    H146919   6.435   2.631   2.831  1.0383  0.2883  0.5767
 8476TIP3    H246920   6.318   2.713   2.782  2.0212  1.1940 -0.3074
 8477TIP3   OH246921   0.861   4.947  14.579 -0.1645 -0.3658 -0.2468
 8477TIP3    H146922   0.788   4.909  14.627  0.9403 -1.7227  0.4374
 8477TIP3    H246923   0.915   4.990  14.646  0.0397  0.0048 -0.6403
 8478TIP3   OH246924   6.660   3.213   1.501 -0.4381 -0.2324  0.0829
 8478TIP3    H146925   6.692   3.297   1.470 -0.4229 -0.1492  0.3193
 8478TIP3    H246926   6.565   3.219   1.494 -0.3787 -1.1895 -2.4587
 8479TIP3   OH246927   5.065   6.087   3.498 -0.4484 -0.6921  0.1783
 8479TIP3    H146928   5.119   6.166   3.497 -0.5923 -0.5336 -3.0792
 8479TIP3    H246929   5.128   6.015   3.492 -0.4156 -0.8160  1.5311
 8480TIP3   OH246930   4.435   0.629   0.784 -0.0968 -0.0427 -0.2580
 8480TIP3    H146931   4.425   0.541   0.822  1.1096 -0.5781 -1.1223
 8480TIP3    H246932   4.433   0.614   0.690  1.5846  0.6624 -0.4320
 8481TIP3   OH246933   2.995   0.463  14.042 -0.1979  0.5416  0.0387
 8481TIP3    H146934   3.084   0.435  14.067  0.5773 -0.4014 -3.2451
 8481TIP3    H246935   2.948   0.381  14.026 -1.4454  1.0604  0.8547
 8482TIP3   OH246936   2.651   3.972   5.536 -0.1299 -0.3339 -0.6463
 8482TIP3    H146937   2.566   3.933   5.513 -0.3908 -0.4021  0.3866
 8482TIP3    H246938   2.708   3.897   5.552  0.0121 -0.2877 -0.9325
 8483TIP3   OH246939   6.785   1.075  15.640  0.4243  0.1855 -0.2776
 8483TIP3    H146940   6.738   1.048  15.561 -1.5055  1.1736  0.4633
 8483TIP3    H246941   6.829   1.156  15.614 -0.8342  0.9360 -0.1889
 8484TIP3   OH246942   1.006   0.869  14.709  0.0817  0.1386 -0.5402
 8484TIP3    H146943   1.053   0.867  14.625 -0.1886 -1.8860 -0.6796
 8484TIP3    H246944   1.010   0.779  14.741 -0.8580  0.6326  1.0638
 8485TIP3   OH246945   3.416   4.558  12.388 -0.0463  0.4476  0.0722
 8485TIP3    H146946   3.445   4.645  12.414  0.9156 -0.0021  0.5657
 8485TIP3    H246947   3.398   4.565  12.294  1.5346  0.8049 -0.2366
 8486TIP3   OH246948   2.030   3.091   6.269 -0.7269 -0.5776 -0.1086
 8486TIP3    H146949   2.045   3.180   6.238 -0.3907 -0.3152  0.7604
 8486TIP3    H246950   1.957   3.099   6.331  0.2955 -0.6157  1.1516
 8487TIP3   OH246951   3.718   1.730   2.607  0.2206 -0.3348 -0.0707
 8487TIP3    H146952   3.750   1.813   2.571 -0.9338  0.3799  0.5277
 8487TIP3    H246953   3.680   1.684   2.532  0.7676 -0.2958 -0.3809
 8488TIP3   OH246954   3.965   1.574  12.833  0.3780 -0.5465  0.4256
 8488TIP3    H146955   3.925   1.645  12.782 -0.0580 -0.4039  0.9596
 8488TIP3    H246956   4.044   1.551  12.783 -0.4270 -0.9188 -0.7151
 8489TIP3   OH246957   3.674   0.820   1.192  0.1206 -0.5021 -0.9862
 8489TIP3    H146958   3.588   0.780   1.181 -0.2529 -0.7884  2.0823
 8489TIP3    H246959   3.659   0.914   1.176 -1.3070 -0.2361  1.4610
 8490TIP3   OH246960   2.817   5.588   0.099 -0.0863  0.1732 -0.8623
 8490TIP3    H146961   2.743   5.562   0.045 -0.1186  1.2679 -1.3642
 8490TIP3    H246962   2.853   5.665   0.056  1.2237 -0.2118 -0.5061
 8491TIP3   OH246963   0.712   2.922   6.096 -0.1790  0.2834 -0.3318
 8491TIP3    H146964   0.784   2.931   6.158 -0.1041  0.3604 -0.4281
 8491TIP3    H246965   0.634   2.946   6.145 -0.0537  0.8996 -0.4228
 8492TIP3   OH246966   2.802   4.181  14.550 -0.3385  0.0890 -0.3013
 8492TIP3    H146967   2.805   4.085  14.555 -0.0396  0.1615  1.4042
 8492TIP3    H246968   2.871   4.204  14.488  1.5772 -0.6971  1.4189
 8493TIP3   OH246969   6.195   0.417  14.600  0.3432 -0.6482  0.0406
 8493TIP3    H146970   6.250   0.399  14.676 -0.7967  1.5100  1.4551
 8493TIP3    H246971   6.249   0.389  14.525  2.2502 -1.1000  1.4944
 8494TIP3   OH246972   2.630   3.697   3.860  0.0725 -0.8263  0.1790
 8494TIP3    H146973   2.583   3.707   3.777 -1.7895 -0.3247  1.2312
 8494TIP3    H246974   2.572   3.737   3.925  2.4936  0.8306  1.4549
 8495TIP3   OH246975   2.337   6.656  13.015 -0.8666  0.2687  0.0591
 8495TIP3    H146976   2.392   6.581  12.994  0.9097  1.7748 -0.9428
 8495TIP3    H246977   2.398   6.725  13.039 -2.4702  1.2398  1.6760
 8496TIP3   OH246978   1.857   2.761   0.376  0.3198  0.6511 -0.6730
 8496TIP3    H146979   1.805   2.686   0.406  0.1321  1.1846  0.3776
 8496TIP3    H246980   1.932   2.722   0.331  0.0554 -0.1621 -0.4204
 8497TIP3   OH246981   2.747   4.085  16.788 -0.6522 -0.1680 -0.4796
 8497TIP3    H146982   2.784   4.173  16.787 -0.2766 -0.3226 -0.2281
 8497TIP3    H246983   2.754   4.056  16.879  0.8812 -1.1491 -0.8838
 8498TIP3   OH246984   1.244   6.477   2.735  0.7713 -0.1179 -0.4256
 8498TIP3    H146985   1.173   6.533   2.767  1.9068  0.8308  0.5443
 8498TIP3    H246986   1.264   6.511   2.648 -0.4003 -0.8488 -1.0118
 8499TIP3   OH246987   1.356   0.124  12.437  0.0524  0.0353 -0.1034
 8499TIP3    H146988   1.358   0.178  12.516  0.0919 -1.2111  0.7694
 8499TIP3    H246989   1.276   0.072  12.445  0.0486 -0.1061 -0.9028
 8500TIP3   OH246990   6.127   1.914  15.142  0.5247 -0.0502 -0.2785
 8500TIP3    H146991   6.115   1.990  15.198  1.5258 -1.7074  2.3806
 8500TIP3    H246992   6.202   1.936  15.087  2.0398  0.2527  1.7859
 8501TIP3   OH246993   1.331   3.927  17.130 -0.6051  0.6334  0.7397
 8501TIP3    H146994   1.323   3.967  17.043  1.6362 -0.5381 -0.0821
 8501TIP3    H246995   1.299   3.994  17.190 -2.0059  1.5700 -0.9525
 8502TIP3   OH246996   5.943   3.759  11.568  0.1351  0.0600 -0.4079
 8502TIP3    H146997   5.925   3.673  11.606  0.1408  0.2872  0.1227
 8502TIP3    H246998   5.857   3.794  11.546  0.1605 -0.2632 -1.0431
 8503TIP3   OH246999   4.126   2.380  12.601  0.1281 -0.6467 -0.3953
 8503TIP3    H147000   4.148   2.457  12.653 -0.7587  0.2764 -1.3403
 8503TIP3    H247001   4.079   2.414  12.525  0.0989 -2.0824 -1.0693
 8504TIP3   OH247002   4.465   5.639  15.588  0.3918  0.0424 -0.1949
 8504TIP3    H147003   4.439   5.715  15.536  1.2379  0.0178 -0.6749
 8504TIP3    H247004   4.492   5.574  15.522  1.5878  0.0503  0.2770
 8505TIP3   OH247005   1.197   2.779   3.595 -0.0689 -0.8798  0.1274
 8505TIP3    H147006   1.268   2.718   3.578  1.0366  0.6999 -1.3180
 8505TIP3    H247007   1.241   2.860   3.623 -1.3767 -0.2342  0.4281
 8506TIP3   OH247008   0.596   3.958   5.881 -0.2513  0.0709 -0.0150
 8506TIP3    H147009   0.564   4.027   5.940 -0.0556 -1.3908  1.9310
 8506TIP3    H247010   0.598   3.999   5.795  3.3150  3.6657  1.4649
 8507TIP3   OH247011   5.012   0.239   0.929  0.0899  0.0596 -0.3917
 8507TIP3    H147012   4.923   0.240   0.894  0.2102  0.4322 -0.6969
 8507TIP3    H247013   5.014   0.309   0.993  0.5640  1.0163 -1.4221
 8508TIP3   OH247014   4.808   6.273  15.638 -0.5033  0.6731 -0.0134
 8508TIP3    H147015   4.713   6.278  15.630 -0.6436 -1.0450  0.2483
 8508TIP3    H247016   4.826   6.303  15.727 -0.9462 -0.3018  0.4184
 8509TIP3   OH247017   3.380   1.470  15.184  0.7927 -0.9959 -0.4469
 8509TIP3    H147018   3.462   1.422  15.187  0.6087 -1.2508  1.2792
 8509TIP3    H247019   3.323   1.426  15.247 -0.2772 -0.1129 -0.7570
 8510TIP3   OH247020   0.673   6.304   3.457  0.2132  0.1950  0.1085
 8510TIP3    H147021   0.706   6.285   3.544  1.9422  0.3420 -0.4611
 8510TIP3    H247022   0.712   6.236   3.401  0.4895  1.0623 -0.7899
 8511TIP3   OH247023   4.197   2.509   2.448 -0.1709 -0.4259  0.0214
 8511TIP3    H147024   4.209   2.465   2.532  1.8416 -0.0974 -0.0595
 8511TIP3    H247025   4.185   2.438   2.385  1.3357 -0.8143  0.1496
 8512TIP3   OH247026   2.761   0.464  17.143 -0.7867  0.3104 -0.0662
 8512TIP3    H147027   2.677   0.469  17.097 -0.4316 -0.7251 -0.8729
 8512TIP3    H247028   2.826   0.452  17.074 -0.3485 -2.3550  0.6834
 8513TIP3   OH247029   4.581   6.451   3.592  0.5915 -0.5346  0.2294
 8513TIP3    H147030   4.607   6.405   3.671  0.0860  0.4866  1.0076
 8513TIP3    H247031   4.488   6.470   3.604  0.1356 -1.6093 -1.2521
 8514TIP3   OH247032   0.729   0.290  14.586 -0.2131 -0.0356  0.0928
 8514TIP3    H147033   0.777   0.328  14.660  0.1338 -2.0754  0.9750
 8514TIP3    H247034   0.646   0.261  14.624  0.0958 -1.3925 -0.2055
 8515TIP3   OH247035   6.114   5.755  11.417  0.0398 -0.0032  0.3608
 8515TIP3    H147036   6.081   5.680  11.368 -1.2090  0.4775  0.4310
 8515TIP3    H247037   6.164   5.806  11.352  2.4424 -1.7453  0.7056
 8516TIP3   OH247038   6.174   3.034  14.107 -0.0411  0.0861  0.3259
 8516TIP3    H147039   6.160   2.960  14.047  0.6881  0.3603 -0.1933
 8516TIP3    H247040   6.135   3.005  14.190  1.8158 -1.6504  0.6785
 8517TIP3   OH247041   3.592   6.034  13.595 -0.1162 -0.2107 -0.3002
 8517TIP3    H147042   3.635   6.043  13.680  0.2514 -1.6794 -0.3076
 8517TIP3    H247043   3.562   5.943  13.593 -1.9168  0.3672 -0.9149
 8518TIP3   OH247044   2.950   4.720   3.601  0.2778 -0.2324 -0.7821
 8518TIP3    H147045   2.983   4.635   3.631  2.2419  0.4895 -0.7656
 8518TIP3    H247046   3.005   4.742   3.527  0.4536  1.4621 -0.1926
 8519TIP3   OH247047   3.035   0.753   2.152  0.0100 -0.6631 -0.2853
 8519TIP3    H147048   2.961   0.698   2.176  1.0068 -3.1255 -2.3762
 8519TIP3    H247049   3.005   0.805   2.078  0.5161 -2.2477 -1.6576
 8520TIP3   OH247050   1.293   2.340  14.903 -0.6664 -0.2291  0.3579
 8520TIP3    H147051   1.307   2.432  14.881  1.0518 -0.6346 -0.4263
 8520TIP3    H247052   1.324   2.292  14.827 -0.7631 -1.4992  1.0843
 8521TIP3   OH247053   6.281   4.072  16.713  0.0305 -0.0245 -0.1307
 8521TIP3    H147054   6.188   4.076  16.738  0.0686  1.4029 -0.1276
 8521TIP3    H247055   6.326   4.047  16.794 -0.0923  2.1967  0.7065
 8522TIP3   OH247056   3.487   6.404   0.755  0.1018  0.0177  0.4420
 8522TIP3    H147057   3.466   6.404   0.662  2.2947 -1.5487 -0.1352
 8522TIP3    H247058   3.535   6.323   0.769  0.8987  0.7885  2.6817
 8523TIP3   OH247059   2.323   4.471   6.132 -0.2477 -0.0188  0.0134
 8523TIP3    H147060   2.383   4.397   6.140 -0.7789 -0.5129 -0.4971
 8523TIP3    H247061   2.244   4.443   6.178 -0.5392  0.1310 -0.3909
 8524TIP3   OH247062   2.685   1.709   4.013  0.3280 -0.0097 -0.3661
 8524TIP3    H147063   2.609   1.680   4.064  0.8769  1.6819  1.5773
 8524TIP3    H247064   2.647   1.744   3.932 -0.5974 -2.5435 -1.1073
 8525TIP3   OH247065   1.857   0.948  16.621  0.6257 -0.4564  0.6439
 8525TIP3    H147066   1.786   1.006  16.648  0.6624  0.4864 -1.1172
 8525TIP3    H247067   1.812   0.870  16.588  0.4001  0.0173 -0.1945
 8526TIP3   OH247068   5.821   0.058   4.112  0.4823  0.0754  0.5821
 8526TIP3    H147069   5.898   0.039   4.165  0.7556 -0.3989  0.0179
 8526TIP3    H247070   5.749   0.012   4.156  0.5162  0.4941  1.0900
 8527TIP3   OH247071   2.933   4.887   2.528  0.1650  0.1230 -0.3242
 8527TIP3    H147072   2.863   4.900   2.592 -0.3395 -0.5645 -0.7125
 8527TIP3    H247073   3.013   4.915   2.572 -0.2349  0.0563  0.4523
 8528TIP3   OH247074   4.296   4.807   5.224 -0.3115  0.2190 -0.1135
 8528TIP3    H147075   4.271   4.736   5.283 -0.5263  0.8095  0.5189
 8528TIP3    H247076   4.361   4.768   5.166  0.1681 -0.2812  0.7381
 8529TIP3   OH247077   3.899   1.234  12.931 -0.8621 -0.0243  0.0408
 8529TIP3    H147078   3.845   1.284  12.870 -1.2202 -0.0022  0.3771
 8529TIP3    H247079   3.969   1.295  12.956 -0.1383 -0.3431 -1.0981
 8530TIP3   OH247080   2.744   5.217  14.848  0.2217 -0.1762  0.4438
 8530TIP3    H147081   2.650   5.197  14.856  0.3075 -0.2123  1.5155
 8530TIP3    H247082   2.788   5.137  14.875  0.5589  0.1295  0.8223
 8531TIP3   OH247083   4.900   6.726  15.097 -0.7259 -0.1138 -0.3254
 8531TIP3    H147084   4.866   6.812  15.073 -0.3483 -0.3223 -1.7339
 8531TIP3    H247085   4.826   6.681  15.139 -0.9717  0.8219  0.2697
 8532TIP3   OH247086   6.556   6.567  11.770  0.5023  0.2313  0.0959
 8532TIP3    H147087   6.515   6.552  11.855  0.2077 -0.3633 -0.1423
 8532TIP3    H247088   6.609   6.489  11.755  0.7445  0.4443 -0.1579
 8533TIP3   OH247089   2.166   0.889   1.565  0.2366 -0.3141 -0.1587
 8533TIP3    H147090   2.144   0.874   1.473  0.2287 -2.8102  0.1979
 8533TIP3    H247091   2.153   0.983   1.577 -0.0375  0.0314 -2.6204
 8534TIP3   OH247092   2.109   6.478   5.355  0.1408  0.0970 -0.2037
 8534TIP3    H147093   2.193   6.462   5.400  0.5406  1.3612 -0.4611
 8534TIP3    H247094   2.067   6.545   5.408  0.7742  1.8899 -1.8411
 8535TIP3   OH247095   6.314   3.464   5.098  0.3368 -0.0469  0.2767
 8535TIP3    H147096   6.323   3.520   5.021 -0.0529 -1.0421 -0.5165
 8535TIP3    H247097   6.265   3.388   5.067  0.5959 -0.6974  1.3916
 8536TIP3   OH247098   2.265   6.069   1.190 -0.2898 -0.2049  0.3456
 8536TIP3    H147099   2.332   6.002   1.203 -0.4796 -0.3346  0.6588
 8536TIP3    H247100   2.273   6.093   1.098  1.6106  1.2743  0.8149
 8537TIP3   OH247101   3.815   6.037  11.646  0.1790  0.2521  0.2624
 8537TIP3    H147102   3.754   5.964  11.651 -0.8657  0.9409 -1.6754
 8537TIP3    H247103   3.828   6.052  11.553  0.1579  2.6846  0.5920
 8538TIP3   OH247104   2.994   1.472   0.836  0.3028 -0.1341 -0.9276
 8538TIP3    H147105   2.986   1.427   0.920  0.5788  1.8694  0.2151
 8538TIP3    H247106   3.070   1.431   0.794  0.9409 -0.3148  0.3635
 8539TIP3   OH247107   5.801   1.112  13.770 -0.9100  0.1880  0.1041
 8539TIP3    H147108   5.803   1.173  13.696  2.0269 -0.0511 -0.1216
 8539TIP3    H247109   5.836   1.030  13.735 -1.8419 -0.7018  1.1776
 8540TIP3   OH247110   4.335   1.703  16.133  0.0904  0.4772 -0.3935
 8540TIP3    H147111   4.337   1.735  16.043  1.6166  0.5047 -0.3802
 8540TIP3    H247112   4.323   1.609  16.125 -1.6851  0.6731 -0.5237
 8541TIP3   OH247113   0.023   5.231   1.553 -0.7968  0.3133  0.5331
 8541TIP3    H147114  -0.016   5.306   1.508 -0.6572  0.0838  0.0233
 8541TIP3    H247115   0.011   5.158   1.493  1.7174  0.5116 -0.3430
 8542TIP3   OH247116   6.696   0.579  13.726  0.1456 -0.2344  0.0401
 8542TIP3    H147117   6.747   0.507  13.762  0.5182 -0.4573 -0.9236
 8542TIP3    H247118   6.669   0.550  13.639  2.1576  1.5832 -1.2909
 8543TIP3   OH247119   1.087   0.799   2.976  0.3837  0.2546  0.9603
 8543TIP3    H147120   1.000   0.821   3.009 -0.4977  1.1469 -1.6763
 8543TIP3    H247121   1.135   0.882   2.977  0.9753 -0.0878  1.7282
 8544TIP3   OH247122   1.084   5.815  13.363  0.0878 -0.6911  0.5297
 8544TIP3    H147123   1.127   5.882  13.416  0.9284 -0.4125 -0.4762
 8544TIP3    H247124   0.998   5.803  13.405  0.8530 -0.7634  2.1582
 8545TIP3   OH247125   4.687   6.178  11.601  0.0508  0.0022  0.7372
 8545TIP3    H147126   4.771   6.141  11.627  0.0482  0.4115  1.3609
 8545TIP3    H247127   4.622   6.118  11.637  0.0746 -0.4791 -0.0077
 8546TIP3   OH247128   4.215   2.308   0.975 -0.1769 -0.1533 -0.2279
 8546TIP3    H147129   4.146   2.326   0.911 -0.5006 -0.8714 -0.0954
 8546TIP3    H247130   4.296   2.310   0.924 -0.1769  1.6508 -0.2130
 8547TIP3   OH247131   5.663   6.383   0.262  0.2419  0.1237 -0.4207
 8547TIP3    H147132   5.700   6.308   0.214 -0.4078 -1.1192  0.9257
 8547TIP3    H247133   5.593   6.345   0.314  1.5292  1.1799  2.2777
 8548TIP3   OH247134   4.274   6.771   6.014 -0.3891 -0.3603 -0.1871
 8548TIP3    H147135   4.359   6.796   6.051 -0.4222 -1.5346  0.7150
 8548TIP3    H247136   4.296   6.710   5.944 -0.4786 -0.4285 -0.1549
 8549TIP3   OH247137   2.978   4.747   5.756  0.1861 -0.0411 -0.0757
 8549TIP3    H147138   3.064   4.786   5.739  0.1516  0.5561  1.0277
 8549TIP3    H247139   2.969   4.750   5.851 -1.2939  0.4286 -0.2102
 8550TIP3   OH247140   0.030   0.625  14.512 -0.2582  0.4548 -0.0578
 8550TIP3    H147141  -0.030   0.675  14.457 -1.5948  1.0481  1.8521
 8550TIP3    H247142  -0.010   0.539  14.519 -0.1304  0.4016  0.0236
 8551TIP3   OH247143   1.998   0.863  12.898  0.2254  0.3322 -0.1114
 8551TIP3    H147144   2.092   0.867  12.913  0.5791  0.4695 -2.1517
 8551TIP3    H247145   1.966   0.950  12.923  0.7023  0.4460  0.1189
 8552TIP3   OH247146   1.744   6.336  16.062  0.3167 -0.3651 -0.2129
 8552TIP3    H147147   1.830   6.356  16.098 -0.2065 -0.0108  0.8835
 8552TIP3    H247148   1.690   6.413  16.081  0.0978  0.0109 -2.1278
 8553TIP3   OH247149   4.388   4.227  11.996 -0.0532  0.3155  0.3500
 8553TIP3    H147150   4.469   4.250  11.952  0.4449 -1.2753  0.3780
 8553TIP3    H247151   4.322   4.227  11.926  0.6098 -1.5507 -0.3293
 8554TIP3   OH247152   5.030   5.491  16.869 -0.1280  0.1493  0.0518
 8554TIP3    H147153   5.065   5.439  16.796  1.1146  1.1109 -0.0850
 8554TIP3    H247154   5.040   5.435  16.945  1.4595  0.2442 -0.0480
 8555TIP3   OH247155   6.292   0.470   5.935 -0.1772 -0.1579  0.5476
 8555TIP3    H147156   6.250   0.399   5.983 -2.1066  0.6236  0.1123
 8555TIP3    H247157   6.368   0.430   5.894 -0.2831 -1.5673  1.6557
 8556TIP3   OH247158   5.220   5.955  14.242 -0.0854  0.1908 -0.2179
 8556TIP3    H147159   5.279   5.938  14.316  0.8789 -2.3100 -1.4306
 8556TIP3    H247160   5.138   5.982  14.282  1.0241  1.0193  1.6430
 8557TIP3   OH247161   0.920   5.779  16.452 -0.1883  0.4115  0.6996
 8557TIP3    H147162   0.980   5.752  16.521  0.5762  2.3273  0.8538
 8557TIP3    H247163   0.860   5.706  16.442  0.2114 -0.2615  2.7944
 8558TIP3   OH247164   0.032   5.148   3.677 -0.3031 -0.1288 -0.4252
 8558TIP3    H147165  -0.046   5.095   3.692  1.1260 -2.4296 -0.5927
 8558TIP3    H247166   0.052   5.186   3.763 -2.1888  1.4872 -0.6183
 8559TIP3   OH247167   5.703   3.766  12.527 -0.6473 -0.4806  0.0050
 8559TIP3    H147168   5.710   3.762  12.622 -0.3745 -1.6889 -0.0427
 8559TIP3    H247169   5.698   3.859  12.507 -3.7418 -0.2235  1.4078
 8560TIP3   OH247170   1.942   3.655   2.035 -0.0150  0.3426 -0.1976
 8560TIP3    H147171   2.010   3.714   2.003 -0.0185  1.4996  1.7267
 8560TIP3    H247172   1.861   3.688   1.996  0.1062  1.0976  0.1632
 8561TIP3   OH247173   5.447   1.192  13.365  0.0477  0.4581  0.1250
 8561TIP3    H147174   5.532   1.148  13.375 -0.4102 -0.5945 -0.4544
 8561TIP3    H247175   5.388   1.124  13.333 -1.5458  0.6548  2.4084
 8562TIP3   OH247176   0.355   5.138  16.756 -0.0239 -0.1557 -0.3963
 8562TIP3    H147177   0.297   5.068  16.786 -0.0486  0.4966  1.1761
 8562TIP3    H247178   0.347   5.206  16.823  0.9801  0.8165 -1.2265
 8563TIP3   OH247179   0.474   5.191   3.679 -0.1901  0.7808 -0.6352
 8563TIP3    H147180   0.569   5.190   3.665 -0.4531 -1.2423 -2.9556
 8563TIP3    H247181   0.459   5.130   3.750  0.1413 -0.4163 -1.5664
 8564TIP3   OH247182   5.342   1.198   0.991 -0.0588 -0.8654  0.4678
 8564TIP3    H147183   5.393   1.142   1.050 -0.0203 -1.5255 -0.1752
 8564TIP3    H247184   5.337   1.148   0.909 -0.3410 -0.0826 -0.0001
 8565TIP3   OH247185   0.876   6.267  14.497  0.3158  0.5950 -0.0540
 8565TIP3    H147186   0.892   6.177  14.525  0.6259  0.1227 -1.6442
 8565TIP3    H247187   0.907   6.321  14.569  1.8085 -0.5292  0.1786
 8566TIP3   OH247188   0.916   6.325   4.758 -0.0795 -0.4106 -0.4349
 8566TIP3    H147189   0.997   6.375   4.769 -1.6569  2.0913  0.7091
 8566TIP3    H247190   0.867   6.340   4.839 -1.9048 -1.4415 -1.2765
 8567TIP3   OH247191   5.389   2.190   4.296 -0.7575  0.1285  0.2172
 8567TIP3    H147192   5.333   2.220   4.367  0.3082  1.0766  0.6931
 8567TIP3    H247193   5.400   2.267   4.240  0.8393  0.2578  0.6637
 8568TIP3   OH247194   5.584   2.906   4.844 -0.1733  0.0618 -0.3876
 8568TIP3    H147195   5.661   2.917   4.788 -0.0131 -1.4233 -0.4999
 8568TIP3    H247196   5.536   2.988   4.834  1.6978  1.3011  0.1942
 8569TIP3   OH247197   0.378   0.150   4.746 -0.7367 -0.4776 -0.5531
 8569TIP3    H147198   0.427   0.073   4.775  0.3272  0.8323  1.3308
 8569TIP3    H247199   0.287   0.121   4.744 -0.6756 -1.1854  2.5336
 8570TIP3   OH247200   1.502   5.722  12.377  0.4370 -0.2834  0.1501
 8570TIP3    H147201   1.506   5.627  12.393  0.6645 -0.3553 -0.2893
 8570TIP3    H247202   1.506   5.729  12.281  2.0695  0.2343  0.2168
 8571TIP3   OH247203   1.412   6.459   5.299  0.4151  0.0812 -0.3262
 8571TIP3    H147204   1.429   6.432   5.389 -0.7032 -2.4188 -0.7867
 8571TIP3    H247205   1.458   6.395   5.244 -0.6632  0.2762 -1.5175
 8572TIP3   OH247206   0.267   0.609   2.749 -0.0046  0.1445  0.6993
 8572TIP3    H147207   0.246   0.545   2.816  0.5803  0.4702  1.1958
 8572TIP3    H247208   0.335   0.568   2.696 -1.8401 -0.9321 -0.9421
 8573TIP3   OH247209   3.135   1.746   5.244 -0.4570  0.0085 -0.0561
 8573TIP3    H147210   3.183   1.740   5.326 -1.1372  0.4836  0.3853
 8573TIP3    H247211   3.111   1.656   5.224  0.3842 -0.2084 -0.1562
 8574TIP3   OH247212   0.564   1.377  13.172 -0.2921  0.7956  0.0432
 8574TIP3    H147213   0.581   1.458  13.221 -0.3249  0.3963  0.7248
 8574TIP3    H247214   0.644   1.325  13.182 -0.4056  0.5909 -0.0915
 8575TIP3   OH247215   6.608   2.501  12.398  0.1953 -0.5358 -0.2514
 8575TIP3    H147216   6.584   2.410  12.416 -2.4302 -0.7626 -3.8302
 8575TIP3    H247217   6.541   2.552  12.443  1.6840 -0.2934  1.7781
 8576TIP3   OH247218   6.148   4.986  15.238 -0.0617 -0.2473  0.3599
 8576TIP3    H147219   6.145   5.069  15.285  1.4892 -0.6095  1.1570
 8576TIP3    H247220   6.190   5.007  15.155 -1.7991  0.1839 -0.4376
 8577TIP3   OH247221   4.206   4.236   0.910 -0.3438 -0.0354  0.4248
 8577TIP3    H147222   4.200   4.329   0.933  2.5713  0.1449  0.8422
 8577TIP3    H247223   4.267   4.233   0.837  1.2683 -1.7280  1.7309
 8578TIP3   OH247224   3.707   1.841  14.430 -0.8542  0.2733 -0.3597
 8578TIP3    H147225   3.793   1.803  14.412 -1.7066 -1.4206 -1.0503
 8578TIP3    H247226   3.669   1.857  14.344 -1.9565 -0.7928 -0.1043
 8579TIP3   OH247227   6.204   2.719   2.588 -0.5112  0.1529 -0.3958
 8579TIP3    H147228   6.126   2.674   2.621  0.4501 -0.2241  1.5456
 8579TIP3    H247229   6.195   2.717   2.493 -0.8359 -3.6845 -0.4466
 8580TIP3   OH247230   4.852   0.532   3.046 -0.0629  0.0160 -0.1560
 8580TIP3    H147231   4.941   0.523   3.079  0.3557 -0.4727 -1.3382
 8580TIP3    H247232   4.863   0.563   2.956 -1.1643  1.8128  0.2815
 8581TIP3   OH247233   2.503   5.421   3.701 -0.1194  0.3785  0.3217
 8581TIP3    H147234   2.556   5.479   3.756 -0.2232 -1.6512  2.7388
 8581TIP3    H247235   2.561   5.347   3.681 -1.0070 -0.2932  0.1564
 8582TIP3   OH247236   1.673   4.177   2.462 -0.0052 -0.3999 -0.1702
 8582TIP3    H147237   1.652   4.141   2.376  0.3442 -1.0878  0.0240
 8582TIP3    H247238   1.767   4.160   2.473  0.2947  1.0686 -0.2967
 8583TIP3   OH247239   0.938   1.646  13.592  0.0847  0.2907  0.0619
 8583TIP3    H147240   0.949   1.677  13.502 -0.4749 -0.1649 -0.1637
 8583TIP3    H247241   0.889   1.564  13.584  0.8523 -0.2499  0.7121
 8584TIP3   OH247242   5.871   1.842  15.862 -0.0877  0.2240 -0.3489
 8584TIP3    H147243   5.883   1.813  15.952  2.0786  1.7415 -0.0491
 8584TIP3    H247244   5.960   1.859  15.830 -0.8592  0.7148 -2.4213
 8585TIP3   OH247245   2.417   5.093  12.690  0.5449 -1.1922 -0.2934
 8585TIP3    H147246   2.400   5.133  12.775 -0.6281  0.4636 -1.2350
 8585TIP3    H247247   2.505   5.121  12.667 -0.6275  2.1162 -1.4504
 8586TIP3   OH247248   0.741   5.175   6.448 -0.1813  0.2844 -0.3155
 8586TIP3    H147249   0.691   5.251   6.420 -0.7214  0.2811  0.5982
 8586TIP3    H247250   0.676   5.115   6.483  0.5615  1.2314  3.0923
 8587TIP3   OH247251   5.305   3.330  12.500  0.1087 -0.0680  0.3818
 8587TIP3    H147252   5.281   3.384  12.575 -0.5539 -0.5913  0.5624
 8587TIP3    H247253   5.368   3.267  12.535  0.4091  0.1911  0.3113
 8588TIP3   OH247254   4.662   5.049  14.410 -0.0401  0.0645 -0.3225
 8588TIP3    H147255   4.728   4.997  14.364  1.2169  1.0059  0.3543
 8588TIP3    H247256   4.649   5.002  14.492 -0.2363 -0.1313 -0.4631
 8589TIP3   OH247257   4.535   0.023   1.623  0.3611 -0.1486  0.0759
 8589TIP3    H147258   4.597  -0.047   1.643 -0.1599 -0.3275  1.1391
 8589TIP3    H247259   4.584   0.083   1.567  0.0614 -2.6083 -3.1384
 8590TIP3   OH247260   3.557   6.255   6.292 -0.7548  0.4794  0.4075
 8590TIP3    H147261   3.543   6.337   6.246 -0.7816  1.3876  1.9616
 8590TIP3    H247262   3.470   6.214   6.296 -0.8655  0.6991  0.2082
 8591TIP3   OH247263   0.418   3.110  13.761  0.2499 -0.1567  0.8243
 8591TIP3    H147264   0.511   3.116  13.740 -0.2574  2.4035 -1.1790
 8591TIP3    H247265   0.394   3.197  13.792 -1.2800 -1.0907  2.4672
 8592TIP3   OH247266   4.589   0.323   4.404 -0.0651 -0.2744 -0.1704
 8592TIP3    H147267   4.579   0.287   4.492  0.9301  2.5416  1.2123
 8592TIP3    H247268   4.524   0.276   4.352 -0.7812 -1.9521  2.0505
 8593TIP3   OH247269   3.213   6.197   2.912 -0.3890  0.0726 -0.0961
 8593TIP3    H147270   3.206   6.102   2.926  2.2693  0.0463  1.9415
 8593TIP3    H247271   3.165   6.235   2.986 -1.5142  0.3734 -0.9518
 8594TIP3   OH247272   1.076   2.533  13.080 -0.4465  0.1314 -0.7219
 8594TIP3    H147273   1.053   2.525  13.173 -0.1606  0.5068 -0.6179
 8594TIP3    H247274   1.083   2.628  13.066  0.6125  0.0383 -0.8611
 8595TIP3   OH247275   1.225   1.276  14.629 -0.0947 -0.3249 -0.3390
 8595TIP3    H147276   1.261   1.194  14.663 -0.2196  0.0279  0.6723
 8595TIP3    H247277   1.150   1.294  14.686  0.0529  0.5970 -0.4274
 8596TIP3   OH247278   0.048   5.003   1.387 -0.2496  0.3506 -0.0951
 8596TIP3    H147279   0.043   4.915   1.425 -0.2267 -0.7319 -2.4223
 8596TIP3    H247280   0.081   4.988   1.298 -0.4690  2.7087 -0.6234
 8597TIP3   OH247281   0.689   2.950  15.161  0.3479 -0.8329  0.2749
 8597TIP3    H147282   0.780   2.919  15.160  1.2301  1.5125  0.8067
 8597TIP3    H247283   0.694   3.037  15.200 -2.3047 -1.0659  1.3237
 8598TIP3   OH247284   0.501   6.284  16.880 -0.3820  0.0360 -0.5472
 8598TIP3    H147285   0.422   6.298  16.933 -0.3137 -1.2943 -0.0699
 8598TIP3    H247286   0.541   6.205  16.916  1.5877  1.0813 -0.3023
 8599TIP3   OH247287   2.627   4.181  10.727  0.0465  0.0680 -0.0782
 8599TIP3    H147288   2.588   4.265  10.752 -2.1740 -1.4151  1.9483
 8599TIP3    H247289   2.713   4.182  10.769 -0.2861  1.0216  0.6319
 8600TIP3   OH247290   0.078   3.717   2.511 -0.2654 -0.1454  0.2562
 8600TIP3    H147291  -0.009   3.721   2.551  0.2717  1.4362  1.4094
 8600TIP3    H247292   0.121   3.797   2.541  1.1814 -0.2954 -1.2696
 8601TIP3   OH247293   2.299   4.781   5.533 -0.9396  0.3945  0.1609
 8601TIP3    H147294   2.381   4.764   5.487 -1.4086 -1.2097 -0.1561
 8601TIP3    H247295   2.251   4.841   5.475 -0.8803 -0.3833 -0.7212
 8602TIP3   OH247296   3.927   6.709   2.086  0.3707  0.3767  0.6714
 8602TIP3    H147297   3.844   6.666   2.105 -0.9660  0.7197 -3.3474
 8602TIP3    H247298   3.975   6.646   2.032  0.8567  1.7448 -0.5582
 8603TIP3   OH247299   4.221   4.956  11.822 -0.2670 -0.2823  0.0806
 8603TIP3    H147300   4.227   5.011  11.900  2.8665  1.9067 -1.4869
 8603TIP3    H247301   4.128   4.936  11.814 -0.8534  0.3146  3.6942
 8604TIP3   OH247302   6.341   0.313  11.470 -0.2593 -0.0811  0.0266
 8604TIP3    H147303   6.318   0.401  11.441 -1.0851 -0.0223  0.7926
 8604TIP3    H247304   6.380   0.326  11.557 -1.9629 -0.5804  0.9102
 8605TIP3   OH247305   3.798   4.786  11.947  0.3097  0.1451 -0.4598
 8605TIP3    H147306   3.817   4.783  11.853 -1.3706 -4.7677 -0.9021
 8605TIP3    H247307   3.880   4.758  11.989  0.2074 -0.5562 -0.7168
 8606TIP3   OH247308   1.935   2.846   2.965  0.0050  0.5399 -0.4623
 8606TIP3    H147309   1.868   2.799   2.915  2.3155 -1.1239 -2.2456
 8606TIP3    H247310   1.951   2.791   3.042  0.3688  0.1007 -0.8414
 8607TIP3   OH247311   6.169   6.519  14.243 -0.6872 -0.0299 -0.0741
 8607TIP3    H147312   6.089   6.495  14.290 -1.6396  0.5570 -1.3489
 8607TIP3    H247313   6.224   6.441  14.248 -0.8903 -0.0987  1.7058
 8608TIP3   OH247314   5.581   4.441  15.654  0.1207  0.4200 -0.4083
 8608TIP3    H147315   5.654   4.403  15.704  0.1440 -1.7366 -1.9060
 8608TIP3    H247316   5.518   4.469  15.720 -0.0659 -2.7303  0.9287
 8609TIP3   OH247317   4.533   2.843  11.181 -0.9277 -0.1036  0.7387
 8609TIP3    H147318   4.628   2.845  11.175 -0.8030  0.6982  2.4400
 8609TIP3    H247319   4.508   2.756  11.148  0.4141 -0.5122  0.7619
 8610TIP3   OH247320   1.894   1.137   5.490  0.1573 -0.0227 -0.1497
 8610TIP3    H147321   1.973   1.145   5.543 -0.7300  0.9998  1.0747
 8610TIP3    H247322   1.905   1.201   5.420  0.6713 -0.3155 -0.3420
 8611TIP3   OH247323   3.618   2.495  14.706  0.2726  0.0545  0.0655
 8611TIP3    H147324   3.561   2.546  14.648 -0.3044 -0.1020  0.4944
 8611TIP3    H247325   3.700   2.545  14.709 -0.8593  1.9456  1.9189
 8612TIP3   OH247326   0.314   3.687   1.822  0.5045  0.0255 -0.3582
 8612TIP3    H147327   0.330   3.763   1.878  0.2257 -1.0372  1.2203
 8612TIP3    H247328   0.303   3.724   1.735  0.9847  1.7400  0.2591
 8613TIP3   OH247329   2.956   1.224   5.822  0.1789  0.7042 -0.2618
 8613TIP3    H147330   2.958   1.163   5.748  1.5373 -1.3731  1.3490
 8613TIP3    H247331   2.863   1.236   5.841 -0.1423 -0.3393 -1.0528
 8614TIP3   OH247332   2.316   5.007   4.481 -0.0102  0.3012  0.9477
 8614TIP3    H147333   2.330   4.991   4.387 -1.9785  0.0617  0.6539
 8614TIP3    H247334   2.374   5.081   4.501  1.1150 -0.2160 -0.2298
 8615TIP3   OH247335   1.495   1.970   2.797 -0.3661  0.0699 -0.5641
 8615TIP3    H147336   1.424   1.908   2.783 -0.9508  0.4108  0.7374
 8615TIP3    H247337   1.574   1.918   2.789 -0.5783  0.0702 -4.1870
 8616TIP3   OH247338   3.350   4.535   2.161 -0.2347 -0.1347  0.1670
 8616TIP3    H147339   3.397   4.564   2.239  0.3164 -2.7215  0.9060
 8616TIP3    H247340   3.407   4.560   2.088  0.7823 -0.4345  0.8398
 8617TIP3   OH247341   5.941   5.748   1.352  0.7144 -0.3488  0.6902
 8617TIP3    H147342   5.995   5.692   1.408  0.2650  1.0937  2.6908
 8617TIP3    H247343   5.854   5.744   1.391  0.4161  0.8224  0.1872
 8618TIP3   OH247344   6.731   3.151   2.057  0.1726 -0.8662 -0.5613
 8618TIP3    H147345   6.817   3.124   2.023  0.3400  0.1411 -0.9888
 8618TIP3    H247346   6.670   3.085   2.025  0.5291 -0.6275 -1.7694
 8619TIP3   OH247347   5.985   5.392  15.760  0.2091  0.4802  0.2174
 8619TIP3    H147348   5.934   5.455  15.709  1.2170  1.0621 -0.0802
 8619TIP3    H247349   5.946   5.307  15.738 -1.0755  0.9599  0.5255
 8620TIP3   OH247350   0.602   5.466  15.037  0.5398  0.4540 -0.0514
 8620TIP3    H147351   0.613   5.458  14.943 -1.9179  1.1583 -0.4668
 8620TIP3    H247352   0.509   5.452  15.052  0.7336  1.1003  2.1929
 8621TIP3   OH247353   5.502   0.983  13.755  0.1132 -0.6125 -0.0797
 8621TIP3    H147354   5.547   0.958  13.836 -0.7438 -1.5668  0.1115
 8621TIP3    H247355   5.508   0.906  13.699 -1.0568 -0.6687 -0.1463
 8622TIP3   OH247356   3.997   1.945   5.245  0.0998 -0.1071  0.1378
 8622TIP3    H147357   3.963   1.948   5.156 -0.8473 -3.2584  0.2653
 8622TIP3    H247358   3.920   1.955   5.301  0.6093  1.2564  0.6384
 8623TIP3   OH247359   6.564   6.390  14.953 -0.1843 -0.4839  0.0405
 8623TIP3    H147360   6.486   6.337  14.967 -1.2028  0.9670  0.0296
 8623TIP3    H247361   6.532   6.472  14.917  1.5859 -0.9435 -3.0060
 8624TIP3   OH247362   3.646   4.105  13.700 -0.7886 -0.1497 -0.2975
 8624TIP3    H147363   3.694   4.043  13.754 -1.6403 -0.3030  0.3037
 8624TIP3    H247364   3.650   4.068  13.612  1.7894  0.7977 -0.6669
 8625TIP3   OH247365   6.458   3.576   3.637  0.0478 -0.5433  0.1531
 8625TIP3    H147366   6.395   3.543   3.700  0.6279 -0.1972  0.9339
 8625TIP3    H247367   6.468   3.669   3.660  0.5792 -0.5148 -0.1755
 8626TIP3   OH247368   0.158   4.458   4.944  0.1683 -0.0762  0.0925
 8626TIP3    H147369   0.133   4.547   4.919  0.5445  0.4336  1.4448
 8626TIP3    H247370   0.081   4.424   4.990  0.5325  0.0802  0.8323
 8627TIP3   OH247371   6.731   2.077  14.991 -0.2606  0.0744  0.3059
 8627TIP3    H147372   6.824   2.056  15.002  0.1933  0.9404 -1.4305
 8627TIP3    H247373   6.686   2.027  15.059  1.2162 -2.3793 -0.4242
 8628TIP3   OH247374   5.967   5.372  14.849 -0.5507 -0.2755  0.2276
 8628TIP3    H147375   5.878   5.398  14.870  0.0942  1.1417  1.3536
 8628TIP3    H247376   6.014   5.455  14.833  0.9205 -0.8781  1.1844
 8629TIP3   OH247377   1.094   3.769  11.893 -0.4016  0.0391  0.2274
 8629TIP3    H147378   1.146   3.793  11.817 -0.9624 -0.4770 -0.3297
 8629TIP3    H247379   1.065   3.679  11.875 -0.9503  0.0865  0.8235
 8630TIP3   OH247380   2.696   2.171  10.862  0.4893 -0.2991  0.3794
 8630TIP3    H147381   2.713   2.238  10.796 -0.8637  0.2600  0.5615
 8630TIP3    H247382   2.678   2.091  10.812  1.5530 -0.4090  0.1476
 8631TIP3   OH247383   3.168   5.026  16.793  0.7405  0.3215  0.3702
 8631TIP3    H147384   3.074   5.028  16.812  0.8859  0.0372  1.1952
 8631TIP3    H247385   3.205   5.095  16.848  0.9607  0.7416 -0.3008
 8632TIP3   OH247386   4.886   4.757  15.624  0.8484 -0.2748 -0.9329
 8632TIP3    H147387   4.936   4.721  15.550 -0.1012 -0.6458 -1.4132
 8632TIP3    H247388   4.835   4.682  15.657  0.1537  0.2273 -0.8494
 8633TIP3   OH247389   5.188   6.138   0.756  0.2638 -0.0725 -0.2455
 8633TIP3    H147390   5.121   6.161   0.821 -0.1121  1.4121 -1.1038
 8633TIP3    H247391   5.138   6.107   0.681  0.6099 -0.1743 -0.4322
 8634TIP3   OH247392   1.210   4.383  11.790  0.0341 -0.0449  0.7305
 8634TIP3    H147393   1.206   4.293  11.823 -0.1462 -0.6092 -0.7400
 8634TIP3    H247394   1.174   4.436  11.861  0.3077 -1.0994  1.6985
 8635TIP3   OH247395   6.270   1.030   2.071 -0.2848 -0.0320 -0.4400
 8635TIP3    H147396   6.248   1.068   2.156  2.0344 -1.0266  0.7034
 8635TIP3    H247397   6.282   0.937   2.089  2.2222  0.0295 -1.3432
 8636TIP3   OH247398   5.517   0.528   2.859  0.2845 -0.0461  0.2891
 8636TIP3    H147399   5.502   0.435   2.844  0.7674 -0.1506  0.4372
 8636TIP3    H247400   5.540   0.535   2.951 -0.0117  0.2566  0.3437
 8637TIP3   OH247401   4.344   3.969   1.712 -0.3272  0.1574  0.0284
 8637TIP3    H147402   4.394   3.993   1.791  1.6644 -1.3665 -0.6781
 8637TIP3    H247403   4.297   3.890   1.737  0.9670 -0.8159 -0.4916
 8638TIP3   OH247404   1.297   0.258   3.419 -0.2382 -0.3576  0.0313
 8638TIP3    H147405   1.293   0.162   3.427  1.7105 -0.4746 -0.0487
 8638TIP3    H247406   1.213   0.288   3.453 -1.6160 -2.1868 -1.5055
 8639TIP3   OH247407   6.232   1.679   3.557  0.7714  0.1151 -0.3892
 8639TIP3    H147408   6.233   1.743   3.627 -3.4953  2.7604 -2.2988
 8639TIP3    H247409   6.159   1.621   3.579  0.7794 -0.3543 -1.5395
 8640TIP3   OH247410   3.174   0.891  10.875 -0.2102  0.2265 -0.2449
 8640TIP3    H147411   3.082   0.917  10.881 -0.1481  0.4106 -0.1005
 8640TIP3    H247412   3.182   0.816  10.933 -0.1785  0.4575  0.0502
 8641TIP3   OH247413   6.644   4.473   2.337 -0.1435  0.3208  0.2440
 8641TIP3    H147414   6.739   4.480   2.339  0.1120 -1.5864 -1.4623
 8641TIP3    H247415   6.623   4.463   2.244 -2.1139  1.5883  0.5033
 8642TIP3   OH247416   3.498   4.396  15.056  0.4244 -0.3079 -0.1278
 8642TIP3    H147417   3.560   4.469  15.047  0.3694 -0.1709  0.5515
 8642TIP3    H247418   3.521   4.336  14.986  1.7311 -0.5458  0.4842
 8643TIP3   OH247419   5.828   4.751  17.116  0.2520 -0.0695  0.5760
 8643TIP3    H147420   5.889   4.811  17.073 -0.6385  0.0076 -0.6351
 8643TIP3    H247421   5.867   4.735  17.202  1.5992  0.5503  0.1156
 8644TIP3   OH247422   6.556   6.336   2.776  0.0075 -1.2431 -0.7545
 8644TIP3    H147423   6.566   6.371   2.865 -3.2562 -1.5053 -0.1674
 8644TIP3    H247424   6.545   6.413   2.721  0.5954 -1.1324 -0.7253
 8645TIP3   OH247425   4.509   1.498   2.665  0.3607 -0.0048 -0.0681
 8645TIP3    H147426   4.574   1.537   2.607  0.8496 -1.6437 -0.6832
 8645TIP3    H247427   4.441   1.464   2.607 -1.7563  2.6557  0.5888
 8646TIP3   OH247428   6.432   4.793  17.188 -0.3101 -0.6123 -0.3447
 8646TIP3    H147429   6.372   4.718  17.184 -1.2929  0.1614 -0.5430
 8646TIP3    H247430   6.411   4.835  17.271 -0.0203 -0.3460 -0.4073
 8647TIP3   OH247431   6.078   3.666   1.432  0.0127 -0.0012 -0.2374
 8647TIP3    H147432   6.041   3.752   1.450 -2.0518 -0.9417  0.3577
 8647TIP3    H247433   6.126   3.677   1.350  0.1307  1.7929  0.0425
 8648TIP3   OH247434   5.232   0.281   4.229 -0.6852  0.2716  0.6206
 8648TIP3    H147435   5.258   0.240   4.312  2.2180 -1.7982 -1.1281
 8648TIP3    H247436   5.191   0.210   4.179  0.3745  0.6383 -0.8283
 8649TIP3   OH247437   0.287   2.632   3.597  0.0663 -0.2470 -0.4075
 8649TIP3    H147438   0.324   2.549   3.626  0.9027  0.6578  1.2371
 8649TIP3    H247439   0.257   2.674   3.678  0.4542  1.4264 -1.1029
 8650TIP3   OH247440   3.436   3.087  13.050  0.1140 -0.1381 -0.3121
 8650TIP3    H147441   3.434   3.164  12.993  0.2301 -0.8419 -1.2914
 8650TIP3    H247442   3.461   3.015  12.992  0.1198 -0.8960  0.6127
 8651TIP3   OH247443   4.122   3.940   1.390  0.4181  0.0983 -0.3748
 8651TIP3    H147444   4.086   4.016   1.344  1.2081  0.2146 -0.8184
 8651TIP3    H247445   4.216   3.956   1.393  0.2841  1.1071  3.1300
 8652TIP3   OH247446   1.065   4.386  12.133 -0.6199 -0.3974  0.4864
 8652TIP3    H147447   0.987   4.440  12.121 -0.7422  0.1908  3.1885
 8652TIP3    H247448   1.137   4.449  12.138 -0.3239 -0.7348  0.4804
 8653TIP3   OH247449   2.388   5.102  11.336 -0.0360 -0.2431 -0.0977
 8653TIP3    H147450   2.382   5.007  11.323 -0.8564 -0.1510 -0.4422
 8653TIP3    H247451   2.416   5.136  11.251 -0.3616 -0.1202 -0.1573
 8654TIP3   OH247452   4.805   1.378   2.577 -0.0675  0.2144 -0.0195
 8654TIP3    H147453   4.829   1.458   2.530  0.2995  0.9586  1.3938
 8654TIP3    H247454   4.888   1.344   2.610 -0.5113  0.7581  1.7122
 8655TIP3   OH247455   5.211   4.191  16.203 -0.4575 -1.3092 -0.3021
 8655TIP3    H147456   5.149   4.260  16.181  1.0949  0.2289 -0.0131
 8655TIP3    H247457   5.242   4.159  16.118  2.4333  1.7827 -0.6165
 8656TIP3   OH247458   2.066   0.087  17.056 -0.2234 -0.2817  0.1759
 8656TIP3    H147459   2.117   0.117  17.131 -1.4066  1.2073  0.4243
 8656TIP3    H247460   2.024   0.006  17.086  1.3273 -1.1232  0.2129
 8657TIP3   OH247461   1.603   4.901   4.226 -0.3424  0.4156  0.0699
 8657TIP3    H147462   1.644   4.937   4.305 -2.8682  1.1551  1.1253
 8657TIP3    H247463   1.676   4.860   4.178  1.3801  0.5403  2.4172
 8658TIP3   OH247464   0.499   4.359   0.761 -0.3303 -0.8666 -0.3880
 8658TIP3    H147465   0.418   4.310   0.773 -0.2321 -0.7997  0.6735
 8658TIP3    H247466   0.482   4.416   0.686 -1.5203 -0.3722  0.2281
 8659TIP3   OH247467   0.667   3.603   5.050  0.0429  0.6507 -0.0573
 8659TIP3    H147468   0.737   3.663   5.027  0.3116  0.1353 -0.6341
 8659TIP3    H247469   0.645   3.624   5.141  3.3653 -1.4727  1.4161
 8660TIP3   OH247470   2.854   4.336  14.864 -0.2832 -0.2315 -0.0681
 8660TIP3    H147471   2.935   4.361  14.820  0.1846 -0.8120  0.4506
 8660TIP3    H247472   2.814   4.270  14.807  0.7051 -1.5534  0.7242
 8661TIP3   OH247473   4.162   0.574  14.190 -0.9480 -0.3437  0.1689
 8661TIP3    H147474   4.208   0.638  14.135 -1.5717 -0.2902 -0.2999
 8661TIP3    H247475   4.112   0.520  14.129  1.1809 -2.6796  0.3314
 8662TIP3   OH247476   4.541   0.510  14.171 -0.2838  0.3270  0.1722
 8662TIP3    H147477   4.569   0.468  14.253 -4.6802 -0.2484  1.6437
 8662TIP3    H247478   4.548   0.604  14.188 -0.4092  0.2063  0.9257
 8663TIP3   OH247479   3.572   2.963  13.283  0.5935  0.2112  0.2781
 8663TIP3    H147480   3.552   3.021  13.210 -1.3213 -2.3068 -1.3249
 8663TIP3    H247481   3.491   2.916  13.301  2.0802 -2.1707  1.3021
 8664TIP3   OH247482   4.379   2.582  11.570  0.4962  0.6317  0.5569
 8664TIP3    H147483   4.387   2.572  11.665 -2.4273  0.2879  0.8355
 8664TIP3    H247484   4.410   2.671  11.553  1.4579  0.5541  1.7531
 8665TIP3   OH247485   4.788   3.827   4.295  0.0181  0.1941  0.0038
 8665TIP3    H147486   4.729   3.768   4.341  0.4386  0.3654  0.7852
 8665TIP3    H247487   4.876   3.791   4.311  0.1612  0.1486 -0.8314
 8666TIP3   OH247488   0.601   4.555  16.165 -0.3832 -0.0027  0.2342
 8666TIP3    H147489   0.635   4.500  16.235 -1.1199  0.6943  1.1623
 8666TIP3    H247490   0.555   4.495  16.107  2.4020 -1.0038 -1.1249
 8667TIP3   OH247491   2.212   6.719  14.725  0.2207 -0.0775 -0.0727
 8667TIP3    H147492   2.248   6.804  14.751  0.3977  0.0044 -0.5772
 8667TIP3    H247493   2.127   6.715  14.768  0.0789  0.4853 -0.2889
 8668TIP3   OH247494   1.311   1.888  12.745 -0.5601 -0.1857 -0.0290
 8668TIP3    H147495   1.215   1.885  12.743 -0.5447 -0.4452 -1.8144
 8668TIP3    H247496   1.331   1.950  12.815 -2.0698  0.9217 -0.5179
 8669TIP3   OH247497   2.049   5.055  16.053  0.2491  0.1379 -0.3891
 8669TIP3    H147498   2.094   5.029  15.973  0.5232 -0.1404 -0.1472
 8669TIP3    H247499   2.085   4.997  16.121 -1.2068 -0.7908 -0.3727
 8670TIP3   OH247500   2.934   1.443   4.481 -0.4752 -0.0041 -0.2316
 8670TIP3    H147501   2.854   1.429   4.533  0.4601  0.0427  1.2886
 8670TIP3    H247502   2.985   1.506   4.532  0.4454  0.1464 -1.2984
 8671TIP3   OH247503   5.061   5.059   2.745  0.4932 -0.2369  0.2040
 8671TIP3    H147504   5.114   5.068   2.824  2.7563 -1.5292 -1.0412
 8671TIP3    H247505   5.095   5.127   2.686  1.2997 -1.5128 -0.8501
 8672TIP3   OH247506   2.014   2.038   4.447 -0.2555  0.6919  0.0292
 8672TIP3    H147507   2.061   2.054   4.364 -0.9818 -0.5236 -0.6450
 8672TIP3    H247508   1.922   2.040   4.423 -0.6012  2.7399  1.2917
 8673TIP3   OH247509   2.623   5.226   4.881  0.9612 -0.1351 -0.4472
 8673TIP3    H147510   2.587   5.275   4.808  0.6096 -0.9200 -0.8193
 8673TIP3    H247511   2.583   5.265   4.959  0.9018  0.3367 -0.7137
 8674TIP3   OH247512   5.739   1.489  12.996 -0.1961  0.2055  0.3750
 8674TIP3    H147513   5.778   1.401  12.993 -1.3261 -0.3123  0.2617
 8674TIP3    H247514   5.779   1.535  12.922 -2.5907 -1.5606 -2.2468
 8675TIP3   OH247515   1.406   2.324  11.537 -0.2090  0.2165  0.1991
 8675TIP3    H147516   1.431   2.245  11.583  0.4660  0.1226 -0.3198
 8675TIP3    H247517   1.468   2.331  11.464  0.1825  1.5672  0.6142
 8676TIP3   OH247518   1.226   5.600   6.122  0.3564 -0.0283  0.5186
 8676TIP3    H147519   1.245   5.518   6.167 -0.5189 -1.1761 -1.1253
 8676TIP3    H247520   1.161   5.643   6.178 -0.8214 -1.4877  0.3331
 8677TIP3   OH247521   2.102   3.351  14.488 -0.3499 -0.4516 -0.6948
 8677TIP3    H147522   2.146   3.393  14.415  0.9165 -0.2952  0.1223
 8677TIP3    H247523   2.121   3.258  14.477  1.4436 -0.2674  0.4010
 8678TIP3   OH247524   4.943   5.155   1.816  0.1448 -0.1786 -0.4883
 8678TIP3    H147525   5.010   5.145   1.884 -1.2664 -0.9769  0.8624
 8678TIP3    H247526   4.921   5.066   1.791 -0.3125  0.0812 -1.0330
 8679TIP3   OH247527   4.919   2.632  14.083  0.1628  0.3291 -0.4511
 8679TIP3    H147528   4.881   2.574  14.149 -0.0329 -0.9659 -1.6453
 8679TIP3    H247529   4.883   2.600  14.000 -0.2319  2.4238 -1.1382
 8680TIP3   OH247530   3.338   0.662   2.006 -0.4959  0.2615 -0.3192
 8680TIP3    H147531   3.298   0.748   1.993  0.5560  0.8033 -0.0581
 8680TIP3    H247532   3.429   0.681   2.029 -0.2452 -0.9248 -0.2780
 8681TIP3   OH247533   5.505   1.178  14.611  0.7982 -0.1853 -0.3475
 8681TIP3    H147534   5.429   1.191  14.668  0.9259 -2.2969  0.3775
 8681TIP3    H247535   5.481   1.222  14.529 -0.3808  0.8290  0.5023
 8682TIP3   OH247536   4.894   4.568  14.844  0.3970 -0.4339  0.5441
 8682TIP3    H147537   4.981   4.557  14.806  0.2129  0.1271 -0.0503
 8682TIP3    H247538   4.898   4.655  14.885  0.5220 -0.9336  1.6265
 8683TIP3   OH247539   1.432   6.786  11.934  0.2963 -0.1014  0.0599
 8683TIP3    H147540   1.407   6.838  12.011  0.8171 -0.2291  0.3191
 8683TIP3    H247541   1.366   6.807  11.868  1.4878  2.3138 -0.4740
 8684TIP3   OH247542   3.537   6.783   1.290 -0.1754  0.1483 -0.4694
 8684TIP3    H147543   3.605   6.736   1.339 -0.4809  0.5018  0.3069
 8684TIP3    H247544   3.510   6.722   1.222 -1.5586 -1.4025  1.3568
 8685TIP3   OH247545   4.789   2.229   6.078 -0.2854  0.8178 -0.2146
 8685TIP3    H147546   4.742   2.146   6.093 -0.8900  0.7763 -2.0603
 8685TIP3    H247547   4.881   2.206   6.089 -0.3290 -0.5054 -2.1208
 8686TIP3   OH247548   0.933   2.607  12.750  0.2039 -0.5104 -0.4924
 8686TIP3    H147549   0.841   2.608  12.724  0.2524  0.1830 -0.6792
 8686TIP3    H247550   0.966   2.693  12.723  0.9181 -0.7691 -0.4677
 8687TIP3   OH247551   0.248   5.093  15.277  0.1909  0.1907 -0.0870
 8687TIP3    H147552   0.159   5.059  15.265 -0.1251  1.5413 -2.0357
 8687TIP3    H247553   0.259   5.098  15.372 -1.1153 -1.6953  0.2165
 8688TIP3   OH247554   3.710   0.345   2.062  0.2822 -0.1671 -0.6370
 8688TIP3    H147555   3.667   0.335   1.977 -2.1450 -0.9240  0.5825
 8688TIP3    H247556   3.695   0.261   2.106 -0.5940  0.9718  1.3779
 8689TIP3   OH247557   6.390   3.793  12.995 -0.2962 -0.0730  0.4296
 8689TIP3    H147558   6.469   3.741  13.005 -0.7035 -0.8348 -0.1452
 8689TIP3    H247559   6.337   3.744  12.931 -0.9485  0.7453  0.3229
 8690TIP3   OH247560   6.021   5.232   4.081 -0.3721 -0.2746  0.1672
 8690TIP3    H147561   6.057   5.309   4.036  1.3790 -1.1810 -0.0766
 8690TIP3    H247562   5.981   5.267   4.160  0.2346  0.9188 -0.0210
 8691TIP3   OH247563   6.601   2.645   0.559  0.7873  0.3863  0.3439
 8691TIP3    H147564   6.653   2.632   0.638  1.6123 -0.2717 -0.2941
 8691TIP3    H247565   6.594   2.740   0.550 -2.6566  0.6118  3.3319
 8692TIP3   OH247566   1.878   0.569   4.425  0.7006  0.2665  0.0264
 8692TIP3    H147567   1.851   0.573   4.516  1.0421 -2.4494  0.3233
 8692TIP3    H247568   1.795   0.568   4.376  0.4900  0.5458  0.3705
 8693TIP3   OH247569   1.220   4.249  13.398 -0.7113  0.6599 -0.0829
 8693TIP3    H147570   1.297   4.225  13.450 -0.0758 -2.8544 -2.3205
 8693TIP3    H247571   1.146   4.207  13.443 -0.7439  0.7690 -0.0337
 8694TIP3   OH247572   1.493   5.415  15.292 -0.2622 -0.2264  0.0477
 8694TIP3    H147573   1.571   5.465  15.316  1.2826 -1.4589 -2.1152
 8694TIP3    H247574   1.432   5.480  15.259  1.3136  0.4346 -1.7546
 8695TIP3   OH247575   0.483   2.045  11.877 -0.1267 -0.6608 -0.2095
 8695TIP3    H147576   0.492   2.140  11.891  0.8377 -0.8972  0.9534
 8695TIP3    H247577   0.548   2.006  11.936 -1.7280 -2.1385  0.6815
 8696TIP3   OH247578   0.608   5.011  16.704 -0.3345  0.5196  0.0240
 8696TIP3    H147579   0.539   5.078  16.704 -0.3545  0.5002 -0.1388
 8696TIP3    H247580   0.592   4.961  16.783 -1.7236 -0.7304 -0.9870
 8697TIP3   OH247581   0.737   2.011   4.224 -0.3168 -0.3478 -0.1874
 8697TIP3    H147582   0.654   2.052   4.200 -0.6302 -2.4047 -3.1996
 8697TIP3    H247583   0.803   2.060   4.175 -0.2309 -1.0385 -0.7715
 8698TIP3   OH247584   1.261   6.337  14.778 -0.0036 -0.3515 -0.4260
 8698TIP3    H147585   1.334   6.279  14.756  0.3695 -0.3434  0.7559
 8698TIP3    H247586   1.245   6.322  14.871  1.4910  2.9053  0.5163
 8699TIP3   OH247587   0.422   3.898   4.082  0.0102  0.4581 -0.1048
 8699TIP3    H147588   0.431   3.850   4.000 -2.4835  0.0193 -0.2201
 8699TIP3    H247589   0.445   3.834   4.150  1.8372  0.7500 -0.4100
 8700TIP3   OH247590   0.100   5.539  14.562  0.5633  0.0107 -0.8232
 8700TIP3    H147591   0.143   5.478  14.621  2.3090 -0.9979 -3.0025
 8700TIP3    H247592   0.129   5.626  14.592 -1.4109 -0.1469  1.8782
 8701TIP3   OH247593   2.671   4.477  12.164 -1.1129 -0.0897 -0.2811
 8701TIP3    H147594   2.689   4.458  12.256 -1.2766 -0.8532 -0.4035
 8701TIP3    H247595   2.670   4.573  12.159  0.3937 -0.0295  0.2078
 8702TIP3   OH247596   6.335   1.873  11.542 -0.1287 -0.3944  0.4473
 8702TIP3    H147597   6.421   1.851  11.577  0.1980  0.6469  0.3517
 8702TIP3    H247598   6.311   1.955  11.586 -0.5381 -0.0526 -0.3779
 8703TIP3   OH247599   0.068   4.032   6.067  0.0630 -1.1440  0.3608
 8703TIP3    H147600   0.095   4.118   6.102 -0.8202  0.2980 -2.2126
 8703TIP3    H247601  -0.010   4.010   6.116 -0.4225  0.1830  0.2383
 8704TIP3   OH247602   0.121   3.132  12.522 -0.2763  0.7463 -0.2767
 8704TIP3    H147603   0.141   3.039  12.534  0.6730  1.1142  1.4348
 8704TIP3    H247604   0.195   3.177  12.564 -1.8895  2.2439  1.1168
 8705TIP3   OH247605   2.671   2.967   2.188  0.5863 -0.0213 -0.1759
 8705TIP3    H147606   2.580   2.960   2.160  1.0517 -0.6635 -1.6783
 8705TIP3    H247607   2.721   2.959   2.106  2.0030 -0.4715  0.6990
 8706TIP3   OH247608   1.919   5.607  14.490 -0.5672 -0.2399  0.4147
 8706TIP3    H147609   1.928   5.519  14.527  1.4637  0.3884  1.5668
 8706TIP3    H247610   1.860   5.596  14.415 -0.6773 -2.4962  0.7739
 8707TIP3   OH247611   2.932   4.234  12.511 -0.1712 -0.1946  0.2634
 8707TIP3    H147612   3.012   4.277  12.479  0.0472 -1.1091 -0.4484
 8707TIP3    H247613   2.961   4.181  12.585  0.0999 -1.3559 -0.6441
 8708TIP3   OH247614   3.871   6.276   6.655 -0.1279 -0.2260 -0.4648
 8708TIP3    H147615   3.820   6.198   6.675 -1.8286  0.8565 -0.3976
 8708TIP3    H247616   3.961   6.245   6.647 -0.6546 -2.0486  0.3513
 8709TIP3   OH247617   5.139   5.089  12.608  0.4023  0.1878 -0.2761
 8709TIP3    H147618   5.083   5.029  12.560 -0.0331  0.4889 -0.1487
 8709TIP3    H247619   5.201   5.121  12.542  0.2464  0.0673 -0.4821
 8710TIP3   OH247620   0.381   6.271  12.746 -0.0689 -0.3648 -0.6938
 8710TIP3    H147621   0.340   6.208  12.686  0.0118  0.9020 -2.1300
 8710TIP3    H247622   0.372   6.355  12.702 -0.1373  0.6522  1.1721
 8711TIP3   OH247623   4.948   1.854   6.722  0.0724  0.2178 -0.1917
 8711TIP3    H147624   4.901   1.860   6.639  2.0151 -0.6029 -1.4325
 8711TIP3    H247625   4.964   1.944   6.748 -0.9740  0.4858 -0.4424
 8712TIP3   OH247626   3.617   1.389   4.078  0.3801 -0.0768  0.1352
 8712TIP3    H147627   3.630   1.479   4.107  2.5038 -0.3724  0.2891
 8712TIP3    H247628   3.660   1.386   3.992 -0.7345 -0.6660 -0.4254
 8713TIP3   OH247629   2.577   0.839   0.443 -0.1215  0.3230  0.7023
 8713TIP3    H147630   2.599   0.839   0.536 -0.6861 -2.3691  0.9019
 8713TIP3    H247631   2.483   0.820   0.441  0.2867 -1.8892 -0.4072
 8714TIP3   OH247632   4.079   4.711   0.015 -0.2882 -0.1835  0.5335
 8714TIP3    H147633   4.135   4.784  -0.013 -0.0472 -0.8896 -0.9317
 8714TIP3    H247634   3.991   4.735  -0.017 -0.1864 -0.5684 -0.0536
 8715TIP3   OH247635   4.585   6.775   2.293 -0.2569 -0.3607  0.6084
 8715TIP3    H147636   4.610   6.819   2.374 -2.1189  0.3679  0.8251
 8715TIP3    H247637   4.492   6.757   2.302 -0.2704 -1.2877 -0.9211
 8716TIP3   OH247638   6.821   1.747   3.455 -0.0104  0.3275  0.1333
 8716TIP3    H147639   6.886   1.817   3.465 -1.6409  1.7781  1.2396
 8716TIP3    H247640   6.815   1.732   3.361  0.7089  1.3830 -0.0957
 8717TIP3   OH247641   6.153   3.795   3.637  0.2989 -0.2309  0.1961
 8717TIP3    H147642   6.071   3.810   3.591  0.7416 -1.4783 -1.0634
 8717TIP3    H247643   6.153   3.701   3.655  1.4149 -0.2221  0.2734
 8718TIP3   OH247644   1.566   4.652   1.259  0.2422  0.2694 -0.0294
 8718TIP3    H147645   1.606   4.657   1.172 -0.4722  0.3330 -0.3642
 8718TIP3    H247646   1.601   4.727   1.306  0.7637  0.1402 -0.2007
 8719TIP3   OH247647   2.063   6.007  13.742  0.1663 -0.9270  0.1958
 8719TIP3    H147648   2.113   5.961  13.809  2.4775  2.6493  1.1895
 8719TIP3    H247649   2.023   6.081  13.787  1.1286  1.1538 -2.0980
 8720TIP3   OH247650   2.424   0.170   0.753  0.4010 -0.3563 -0.1887
 8720TIP3    H147651   2.335   0.202   0.741  1.1547  1.3117 -1.7282
 8720TIP3    H247652   2.452   0.211   0.835  0.2296  0.3340 -0.4603
 8721TIP3   OH247653   2.446   6.432  17.050 -0.7082  0.5955  0.1458
 8721TIP3    H147654   2.467   6.355  17.102  0.6887  0.3655 -0.7099
 8721TIP3    H247655   2.381   6.479  17.102 -0.4261 -0.3580  1.4113
 8722TIP3   OH247656   1.320   5.768  12.789 -0.5686 -0.1716  0.2916
 8722TIP3    H147657   1.373   5.724  12.855  1.2006  0.2576 -0.7927
 8722TIP3    H247658   1.239   5.790  12.835 -0.0106 -1.2200  1.8805
 8723TIP3   OH247659   2.889   2.597   3.738 -0.4166 -0.2252 -0.0713
 8723TIP3    H147660   2.846   2.680   3.716  0.5691  0.6411  1.1183
 8723TIP3    H247661   2.818   2.536   3.754 -1.1920  0.8704  0.7586
 8724TIP3   OH247662   1.641   0.275   5.262  0.0341  0.3485  0.0034
 8724TIP3    H147663   1.600   0.357   5.234  0.5861  0.9611  0.9416
 8724TIP3    H247664   1.695   0.299   5.337 -0.6654 -1.0822  1.0057
 8725TIP3   OH247665   1.195   2.348   2.324 -0.2995  0.0464 -0.2896
 8725TIP3    H147666   1.274   2.347   2.378 -0.9771 -1.4490  0.7269
 8725TIP3    H247667   1.155   2.433   2.343 -0.2411 -0.2263  1.1802
 8726TIP3   OH247668   6.100   4.795   0.076 -0.3657  0.2211  0.2285
 8726TIP3    H147669   6.077   4.888   0.075 -1.0080  0.0875  1.4837
 8726TIP3    H247670   6.021   4.751   0.106 -0.1801 -0.7863 -0.7056
 8727TIP3   OH247671   1.192   1.859   2.305 -0.5153  0.4812  0.3614
 8727TIP3    H147672   1.173   1.834   2.395 -0.4039 -2.7059 -0.3585
 8727TIP3    H247673   1.280   1.826   2.289  0.1586  2.5164 -0.4773
 8728TIP3   OH247674   3.251   4.753  13.336  0.0509  0.5630 -0.4672
 8728TIP3    H147675   3.286   4.679  13.287  0.1629 -0.8189  1.5783
 8728TIP3    H247676   3.323   4.781  13.392 -0.5665  0.9971  0.1241
 8729TIP3   OH247677   5.435   6.244  11.822 -0.0448 -0.1075  0.8254
 8729TIP3    H147678   5.369   6.276  11.883 -1.5198 -1.4623  0.0263
 8729TIP3    H247679   5.419   6.293  11.741  0.3202 -0.0150  0.8084
 8730TIP3   OH247680   6.787   4.385   5.145 -0.0252 -0.8662 -0.1597
 8730TIP3    H147681   6.736   4.465   5.127  2.4172  0.5168 -1.4881
 8730TIP3    H247682   6.731   4.334   5.203 -0.8463  2.8029  2.6627
 8731TIP3   OH247683   0.786   0.227  13.508  0.9756  0.2358 -0.2105
 8731TIP3    H147684   0.793   0.228  13.412 -1.2382  0.4363 -0.4410
 8731TIP3    H247685   0.733   0.305  13.528 -0.4962 -1.0010  0.9349
 8732TIP3   OH247686   2.093   0.963  10.559 -0.1282 -0.1204  0.2840
 8732TIP3    H147687   2.046   1.023  10.616 -0.2329 -0.4896  0.5934
 8732TIP3    H247688   2.180   1.003  10.549  0.4922 -0.8851  2.1175
 8733TIP3   OH247689   4.372   4.341   1.167  0.0535 -0.0961 -0.6237
 8733TIP3    H147690   4.420   4.381   1.094  0.1843  1.5043  0.2888
 8733TIP3    H247691   4.370   4.409   1.235 -2.3855 -0.5612 -0.1312
 8734TIP3   OH247692   2.746   0.711   0.681  0.0716  0.2199 -0.3176
 8734TIP3    H147693   2.831   0.673   0.660  1.0242  0.5352  2.5383
 8734TIP3    H247694   2.761   0.806   0.679 -0.2605  0.2814 -0.0102
 8735TIP3   OH247695   1.169   3.689   3.021 -0.3199 -0.0228 -0.2607
 8735TIP3    H147696   1.253   3.663   3.058  0.1740 -0.4866 -1.6550
 8735TIP3    H247697   1.161   3.782   3.042 -0.8205 -0.5777  2.3615
 8736TIP3   OH247698   0.707   4.849  13.007 -0.1105 -0.5038 -0.0052
 8736TIP3    H147699   0.705   4.754  12.990 -1.3628 -0.3586 -0.7919
 8736TIP3    H247700   0.770   4.859  13.078 -1.3215 -2.1415  1.3868
 8737TIP3   OH247701   4.123   6.137  16.310  0.2226  0.2245 -0.7184
 8737TIP3    H147702   4.081   6.140  16.395  0.8001 -0.3722 -0.4012
 8737TIP3    H247703   4.083   6.209  16.261  1.9632  2.5415  1.0147
 8738TIP3   OH247704   3.204   5.763   4.965 -0.1411  0.0673  0.3512
 8738TIP3    H147705   3.125   5.808   4.935 -1.5499 -1.7930  1.1407
 8738TIP3    H247706   3.236   5.716   4.888  0.3702  1.0117 -0.0308
 8739TIP3   OH247707   4.510   3.298  12.077  0.3318 -0.1916  0.2351
 8739TIP3    H147708   4.565   3.248  12.018 -0.7008 -1.2983  0.1759
 8739TIP3    H247709   4.423   3.261  12.066  0.4007 -1.8136  3.8607
 8740TIP3   OH247710   3.005   1.452   1.781 -0.6338 -0.6328 -0.4797
 8740TIP3    H147711   2.931   1.399   1.809 -0.3620 -0.8531 -0.1678
 8740TIP3    H247712   2.967   1.518   1.722 -1.1933 -0.2357  0.3086
 8741TIP3   OH247713   2.750   6.336   0.386  0.6737 -0.2014 -0.0791
 8741TIP3    H147714   2.794   6.393   0.323  0.1926 -0.4884 -0.6842
 8741TIP3    H247715   2.685   6.289   0.335  1.5552 -1.8622  0.2498
 8742TIP3   OH247716   1.465   2.840   5.822  0.3294  0.0914  0.4229
 8742TIP3    H147717   1.411   2.858   5.745  1.1498  0.8554  0.0012
 8742TIP3    H247718   1.410   2.786   5.878 -1.0200  1.1979  0.2130
 8743TIP3   OH247719   6.412   2.650  12.886  0.1382 -0.1382 -0.5242
 8743TIP3    H147720   6.474   2.678  12.954 -1.9925  2.5844  0.4756
 8743TIP3    H247721   6.349   2.595  12.933 -0.4576  0.4565 -0.6215
 8744TIP3   OH247722   2.511   2.930  15.670  0.9430 -0.1232  0.1525
 8744TIP3    H147723   2.554   2.981  15.602  0.5844 -2.1312 -1.6728
 8744TIP3    H247724   2.582   2.899  15.726  1.1744  2.1902  1.2595
 8745TIP3   OH247725   0.007   5.453   2.515 -0.4394  0.6226 -0.0409
 8745TIP3    H147726   0.097   5.429   2.492 -0.4744  0.3678  0.0838
 8745TIP3    H247727   0.010   5.466   2.610 -0.8485 -0.8192  0.1965
 8746TIP3   OH247728   4.605   1.250   1.874  0.4180  0.2054  0.1872
 8746TIP3    H147729   4.641   1.324   1.825 -0.5491 -0.7633 -2.1460
 8746TIP3    H247730   4.665   1.177   1.856  1.2489  0.3025  2.2920
 8747TIP3   OH247731   2.686   0.497   5.048 -0.0124 -0.0630 -0.9218
 8747TIP3    H147732   2.595   0.469   5.042 -0.7292  2.1360 -1.0509
 8747TIP3    H247733   2.733   0.418   5.076 -2.0914 -0.9849  0.2387
 8748TIP3   OH247734   5.021   2.597  16.426 -0.1904 -0.3664 -0.1168
 8748TIP3    H147735   5.077   2.626  16.354 -0.5720 -0.1120 -0.3143
 8748TIP3    H247736   4.957   2.667  16.437 -0.0050 -0.2975  0.6239
 8749TIP3   OH247737   3.344   2.622   0.569  0.0817 -0.1725  0.1069
 8749TIP3    H147738   3.295   2.679   0.628  1.1807 -0.4526  1.3298
 8749TIP3    H247739   3.283   2.604   0.498 -0.2931  2.6110 -0.4188
 8750TIP3   OH247740   3.098   4.726  12.360  0.0798 -0.2591 -0.3887
 8750TIP3    H147741   3.099   4.638  12.323 -1.0345 -0.7650  0.7123
 8750TIP3    H247742   3.101   4.712  12.454 -0.1700  0.8766 -0.1975
 8751TIP3   OH247743   5.998   3.488  12.824  0.3435 -0.0741 -0.1230
 8751TIP3    H147744   5.961   3.403  12.801 -1.4191  0.6448 -0.0431
 8751TIP3    H247745   5.956   3.550  12.764  1.4392  0.7871 -0.0331
 8752TIP3   OH247746   4.181   3.589   1.148  0.4065  0.3608  0.0568
 8752TIP3    H147747   4.150   3.596   1.239 -1.3894 -0.4973 -0.4369
 8752TIP3    H247748   4.144   3.665   1.104 -1.0587 -0.6631 -0.5392
 8753TIP3   OH247749   5.718   0.400  10.975 -0.3289 -0.0291 -0.2502
 8753TIP3    H147750   5.763   0.381  10.893 -0.7970 -1.8191 -0.1401
 8753TIP3    H247751   5.672   0.482  10.959  2.8470  1.9211 -0.3791
 8754TIP3   OH247752   5.901   0.497   0.338 -0.3087 -0.3263  0.2485
 8754TIP3    H147753   5.973   0.449   0.378  0.9903  1.9421  0.8139
 8754TIP3    H247754   5.902   0.470   0.246 -1.1233 -3.0188  0.9592
 8755TIP3   OH247755   5.039   4.423   3.320 -0.5133 -0.3304  0.1580
 8755TIP3    H147756   5.086   4.374   3.253  1.0228 -0.6397  1.4047
 8755TIP3    H247757   5.015   4.357   3.385 -2.1440 -0.0630 -0.1337
 8756TIP3   OH247758   6.151   0.166   2.583  0.0742 -0.1999 -0.1436
 8756TIP3    H147759   6.088   0.219   2.535  0.0073 -0.1834 -0.0393
 8756TIP3    H247760   6.212   0.229   2.621 -2.2484  0.2053  3.3176
 8757TIP3   OH247761   4.768   4.127  14.696  0.3585 -0.0118  0.7505
 8757TIP3    H147762   4.755   4.086  14.611  1.0074  2.3051 -0.5648
 8757TIP3    H247763   4.863   4.127  14.709  0.4236  1.4679  0.4575
 8758TIP3   OH247764   0.890   1.455  11.296 -0.4668 -0.1172 -0.1264
 8758TIP3    H147765   0.868   1.453  11.390  1.8142 -0.2429  0.4650
 8758TIP3    H247766   0.808   1.477  11.253 -0.9890  2.9975  2.1057
 8759TIP3   OH247767   0.371   4.823  13.251  0.1346  0.4196 -0.1065
 8759TIP3    H147768   0.383   4.838  13.157  1.2634  1.0851  0.1191
 8759TIP3    H247769   0.447   4.770  13.277 -2.2926 -3.5454 -0.3131
 8760TIP3   OH247770   5.074   3.729  14.210 -0.2839 -0.4929 -0.2754
 8760TIP3    H147771   4.989   3.688  14.196 -0.1769 -0.7855 -0.0636
 8760TIP3    H247772   5.123   3.713  14.129 -0.5344 -0.0555 -0.5211
 8761TIP3   OH247773   2.085   2.261  13.090 -0.1672 -0.4355  0.1241
 8761TIP3    H147774   2.014   2.293  13.146  1.2337  0.6790  1.3351
 8761TIP3    H247775   2.050   2.269  13.001 -1.9953 -1.0908  0.7298
 8762TIP3   OH247776   0.600   0.813   2.807 -0.6449  0.4679 -0.5789
 8762TIP3    H147777   0.694   0.809   2.821 -0.2883  2.3820 -2.0076
 8762TIP3    H247778   0.562   0.788   2.891  1.1267  0.1812  0.1759
 8763TIP3   OH247779   5.981   3.434  15.580 -1.0503 -0.4792 -0.0965
 8763TIP3    H147780   5.891   3.448  15.551 -1.3024  0.5592  1.0825
 8763TIP3    H247781   6.031   3.424  15.499 -2.3860 -2.4021 -0.7627
 8764TIP3   OH247782   2.209   2.177   5.697  0.1169  1.0463  0.6473
 8764TIP3    H147783   2.205   2.159   5.791  1.4864 -0.1928  0.5168
 8764TIP3    H247784   2.286   2.233   5.686  0.9175 -0.1176  0.1185
 8765TIP3   OH247785   6.375   0.221  14.472 -0.2242  0.1346  0.6746
 8765TIP3    H147786   6.364   0.242  14.379 -1.8015  1.9569  1.2144
 8765TIP3    H247787   6.340   0.133  14.481 -0.5485  0.1394 -0.3728
 8766TIP3   OH247788   0.864   1.571  14.573  0.2260 -0.3404 -0.4220
 8766TIP3    H147789   0.870   1.476  14.570 -0.6913 -0.4958  1.4821
 8766TIP3    H247790   0.918   1.597  14.647 -0.8428  0.4671  0.0939
 8767TIP3   OH247791   6.369   4.348   3.966  0.6647 -0.5807 -0.0225
 8767TIP3    H147792   6.351   4.438   3.992  1.3841 -0.7946  1.3506
 8767TIP3    H247793   6.375   4.300   4.049  2.0609 -1.5322 -0.6325
 8768TIP3   OH247794   2.570   5.370  16.382 -0.1563 -0.2175 -0.1721
 8768TIP3    H147795   2.591   5.460  16.406 -1.2731 -0.6519  2.8480
 8768TIP3    H247796   2.491   5.378  16.327 -0.3094  0.6519  0.1534
 8769TIP3   OH247797   5.371   3.173   1.118 -0.3523  0.0059  0.4552
 8769TIP3    H147798   5.309   3.111   1.158 -0.6122  0.6092  1.0010
 8769TIP3    H247799   5.447   3.172   1.176 -0.0013 -0.4369 -0.0015
 8770TIP3   OH247800   3.576   1.050   2.279 -0.4017  0.5627 -0.1835
 8770TIP3    H147801   3.487   1.083   2.286 -1.6240 -2.7050  2.8348
 8770TIP3    H247802   3.569   0.974   2.222  0.8217  1.0985 -1.0933
 8771TIP3   OH247803   1.205   6.161   0.723 -0.3668 -1.2504  0.1013
 8771TIP3    H147804   1.139   6.227   0.743  0.4408 -0.9536  2.0271
 8771TIP3    H247805   1.227   6.177   0.631  0.0525  1.4440  0.5720
 8772TIP3   OH247806   1.446   4.107  11.168  0.0793 -0.0554 -0.3987
 8772TIP3    H147807   1.541   4.106  11.180 -0.0178 -1.5590  0.4504
 8772TIP3    H247808   1.412   4.051  11.238 -1.5902  1.7965  0.3792
 8773TIP3   OH247809   2.577   5.564  14.949 -0.3764  0.0210 -0.0241
 8773TIP3    H147810   2.518   5.598  15.015  1.5187  1.2756  1.1228
 8773TIP3    H247811   2.543   5.477  14.928 -3.0232  0.9917 -0.0395
 8774TIP3   OH247812   4.710   5.687   4.268  0.6229  0.2516  0.3020
 8774TIP3    H147813   4.722   5.598   4.300  2.1684 -0.7488 -2.6716
 8774TIP3    H247814   4.694   5.677   4.174  1.3651  3.1291 -0.2337
 8775TIP3   OH247815   0.520   0.045   4.168 -0.5046 -0.6246  0.5298
 8775TIP3    H147816   0.457  -0.014   4.210 -2.2097 -0.2103 -1.2828
 8775TIP3    H247817   0.499   0.039   4.075  0.7621  1.1517  0.0857
 8776TIP3   OH247818   1.359   2.834  10.425 -0.2692  0.0446  0.3273
 8776TIP3    H147819   1.434   2.775  10.423  0.4301  0.8972  0.5501
 8776TIP3    H247820   1.284   2.778  10.444  0.6656 -0.4941  2.7601
 8777TIP3   OH247821   6.022   1.550  11.968 -0.1611 -0.2270  0.4183
 8777TIP3    H147822   6.044   1.633  11.926 -2.0059 -0.1476 -0.5262
 8777TIP3    H247823   6.090   1.490  11.938  0.9763  0.8310  0.7947
 8778TIP3   OH247824   3.232   3.856   2.510 -0.5159  0.4090 -0.3505
 8778TIP3    H147825   3.297   3.817   2.568 -0.3227  1.2681  0.0308
 8778TIP3    H247826   3.203   3.784   2.454  0.0706 -0.1935  0.1074
 8779TIP3   OH247827   0.016   4.070   0.214 -0.0388  0.7460 -0.3577
 8779TIP3    H147828  -0.056   4.048   0.273  1.0896 -0.3112  0.6878
 8779TIP3    H247829   0.010   4.006   0.143 -0.1905  0.7316 -0.3308
 8780TIP3   OH247830   4.274   1.843  16.808 -0.2137 -0.1640  0.2886
 8780TIP3    H147831   4.350   1.864  16.754 -0.7051 -0.2689 -0.4542
 8780TIP3    H247832   4.245   1.758  16.776 -1.8914  0.7808 -0.8797
 8781TIP3   OH247833   5.309   2.942   6.815  0.2315 -0.6504  0.4061
 8781TIP3    H147834   5.259   2.977   6.889 -1.2400  0.3308 -0.9894
 8781TIP3    H247835   5.300   2.847   6.824 -2.4221 -0.5163 -0.0813
 8782TIP3   OH247836   1.392   2.824   0.219 -0.1580  0.1550  0.8756
 8782TIP3    H147837   1.433   2.737   0.222  0.4085  0.3937  0.3418
 8782TIP3    H247838   1.449   2.879   0.272  0.2853  0.5114  0.0486
 8783TIP3   OH247839   2.163   2.509   0.350  0.3918 -0.5014  0.2345
 8783TIP3    H147840   2.074   2.476   0.356  0.5027 -0.8203  0.1154
 8783TIP3    H247841   2.210   2.467   0.422  0.1242  0.7096  1.1521
 8784TIP3   OH247842   5.330   3.880  15.638 -0.1144 -0.1240 -0.3475
 8784TIP3    H147843   5.252   3.834  15.669 -1.4644  2.1840 -0.0685
 8784TIP3    H247844   5.402   3.819  15.653 -2.0311 -3.3029 -2.6504
 8785TIP3   OH247845   0.091   5.263   3.141 -0.4354 -0.2656 -0.4650
 8785TIP3    H147846   0.076   5.259   3.046 -0.3326 -1.6961 -0.4396
 8785TIP3    H247847   0.183   5.286   3.149 -0.8600  1.6961 -0.6697
 8786TIP3   OH247848   0.581   5.430   0.955 -0.1650 -0.1853  0.1402
 8786TIP3    H147849   0.637   5.361   0.991  0.7846  0.3554 -0.2407
 8786TIP3    H247850   0.634   5.510   0.964 -0.1993  0.0876 -1.7175
 8787TIP3   OH247851   5.875   0.532   1.727 -0.0721 -0.0647 -0.3417
 8787TIP3    H147852   5.880   0.602   1.793  0.4957 -1.4560  1.1489
 8787TIP3    H247853   5.932   0.463   1.760 -1.0786 -1.5015 -1.4569
 8788TIP3   OH247854   4.829   2.514   3.345 -0.3237 -0.1880 -0.1232
 8788TIP3    H147855   4.820   2.460   3.267  2.2866  0.5257 -1.0239
 8788TIP3    H247856   4.864   2.597   3.312  0.9075  0.1139  1.7987
 8789TIP3   OH247857   4.511   0.414  14.449 -0.0362  0.4323 -1.0645
 8789TIP3    H147858   4.454   0.396  14.523 -1.0605 -0.4973 -2.0347
 8789TIP3    H247859   4.582   0.350  14.457 -0.3043  0.1364 -1.0495
 8790TIP3   OH247860   1.982   2.294   3.673  0.5173  0.0593  0.0521
 8790TIP3    H147861   2.062   2.307   3.724 -0.2651  0.4196  1.2191
 8790TIP3    H247862   1.959   2.382   3.643  0.7031 -0.0833 -0.5262
 8791TIP3   OH247863   1.419   1.037  10.699  0.6441  0.0362 -0.1601
 8791TIP3    H147864   1.509   1.066  10.685  0.4599  1.2959  1.0208
 8791TIP3    H247865   1.372   1.065  10.621  1.2395 -0.4999 -0.7199
 8792TIP3   OH247866   5.844   4.944   0.330  0.4473  0.0802 -0.5510
 8792TIP3    H147867   5.806   5.013   0.275  1.7103  0.5250 -0.9056
 8792TIP3    H247868   5.845   4.867   0.274  3.7733  1.0466 -2.0785
 8793TIP3   OH247869   3.404   0.198   4.877 -0.2720  0.2786  0.0479
 8793TIP3    H147870   3.386   0.254   4.953  0.9372  2.6881 -1.3117
 8793TIP3    H247871   3.495   0.171   4.887 -0.3116  0.0501 -0.1979
 8794TIP3   OH247872   4.474   4.199   3.933  0.0732 -0.4573  0.1701
 8794TIP3    H147873   4.414   4.154   3.874 -1.1030 -0.5591  1.3905
 8794TIP3    H247874   4.484   4.139   4.007 -0.5361  0.7528  1.2585
 8795TIP3   OH247875   2.986   6.096  16.037 -0.5014 -0.3995 -0.1569
 8795TIP3    H147876   2.912   6.051  16.079 -0.6657  0.9108  1.0121
 8795TIP3    H247877   2.951   6.181  16.011  0.9396  0.8785  1.8201
 8796TIP3   OH247878   1.152   6.780  12.463 -0.5634  0.1864 -0.5159
 8796TIP3    H147879   1.082   6.823  12.414  0.0831  1.3308 -0.4698
 8796TIP3    H247880   1.144   6.688  12.439 -1.4071  0.4492 -1.3413
 8797TIP3   OH247881   4.675   1.895   5.823  0.4630  0.6798 -0.0612
 8797TIP3    H147882   4.663   1.899   5.918 -1.1771  0.1879 -0.2031
 8797TIP3    H247883   4.621   1.966   5.788 -1.0790 -0.7225 -0.7156
 8798TIP3   OH247884   1.858   0.981  15.163  0.0922 -0.1655  0.4022
 8798TIP3    H147885   1.887   1.068  15.190 -0.1052  0.0284 -0.0079
 8798TIP3    H247886   1.922   0.953  15.097 -0.3577  0.0534 -0.1347
 8799TIP3   OH247887   5.700   0.228   0.317  0.1963 -0.4338 -0.1536
 8799TIP3    H147888   5.641   0.219   0.243 -1.6771  1.5459  0.9625
 8799TIP3    H247889   5.787   0.230   0.278 -0.5833 -1.3166 -2.0790
 8800TIP3   OH247890   3.333   1.820  12.258 -0.2226  0.5338  0.5206
 8800TIP3    H147891   3.264   1.817  12.192  0.2952 -1.3277 -0.0023
 8800TIP3    H247892   3.405   1.866  12.215  0.1044 -0.6445 -0.2634
 8801TIP3   OH247893   1.630   4.745   1.568  0.6651 -0.4520  0.6595
 8801TIP3    H147894   1.653   4.801   1.642  0.4464 -0.9625  1.1130
 8801TIP3    H247895   1.537   4.725   1.580  0.9357 -1.5988  0.9689
 8802TIP3   OH247896   1.371   1.182   3.204  0.6876 -0.8813 -0.3943
 8802TIP3    H147897   1.435   1.163   3.273  0.1860 -0.3320  0.2445
 8802TIP3    H247898   1.423   1.192   3.125  1.1922 -2.4907 -0.3059
 8803TIP3   OH247899   1.460   0.278   3.136  0.0672  0.1675  0.6362
 8803TIP3    H147900   1.407   0.334   3.192 -0.2833  0.1208  0.3539
 8803TIP3    H247901   1.544   0.323   3.129  0.1629  0.0981  1.3187
 8804TIP3   OH247902   5.744   2.313  16.754  0.5808 -0.3666  0.8337
 8804TIP3    H147903   5.832   2.350  16.759  0.1231  0.8423  0.3070
 8804TIP3    H247904   5.693   2.363  16.818 -0.5092  1.3449 -1.2392
 8805TIP3   OH247905   3.958   1.727   3.495  0.6117 -0.3689 -0.5923
 8805TIP3    H147906   3.867   1.747   3.518  1.4627  1.3250  1.6712
 8805TIP3    H247907   4.000   1.812   3.487  2.3005 -1.1372 -0.3092
 8806TIP3   OH247908   0.411   2.656   5.857  0.5086  0.1592  0.3502
 8806TIP3    H147909   0.367   2.571   5.868 -0.2200  0.4755 -0.0266
 8806TIP3    H247910   0.356   2.718   5.905 -0.1130  0.7509 -1.0508
 8807TIP3   OH247911   5.262   3.178  11.491 -0.7474 -0.0520 -0.4225
 8807TIP3    H147912   5.283   3.097  11.445 -1.2246  0.5915 -1.8260
 8807TIP3    H247913   5.228   3.149  11.576  1.3722 -1.2345  0.0871
 8808TIP3   OH247914   1.151   2.740  10.570  0.5738  0.1324  0.3576
 8808TIP3    H147915   1.106   2.809  10.617  0.0673 -0.3262  0.5546
 8808TIP3    H247916   1.190   2.686  10.638 -1.9297 -1.7621  0.4282
 8809TIP3   OH247917   0.544   0.320   1.493  0.0771  0.7027 -0.0433
 8809TIP3    H147918   0.570   0.396   1.441  0.0849  0.5910 -0.2008
 8809TIP3    H247919   0.586   0.246   1.450 -0.3423  0.5462 -0.1822
 8810TIP3   OH247920   4.138   2.873   0.667 -0.0850  0.0374  0.7345
 8810TIP3    H147921   4.203   2.935   0.702  0.3400 -0.3741  0.6806
 8810TIP3    H247922   4.190   2.798   0.639 -0.5210 -0.0024  0.0342
 8811TIP3   OH247923   5.605   3.689  13.901 -0.3806 -0.9280  0.2933
 8811TIP3    H147924   5.557   3.755  13.850  1.0607 -1.3682 -1.8068
 8811TIP3    H247925   5.557   3.682  13.983 -3.3792 -0.7306 -1.2977
 8812TIP3   OH247926   0.809   0.965  11.711  0.3613  0.2450  0.2797
 8812TIP3    H147927   0.842   1.023  11.780 -0.8321  0.1462  0.9692
 8812TIP3    H247928   0.851   0.995  11.631  0.8754  1.1214  0.8683
 8813TIP3   OH247929   3.154   4.386  13.103  0.4925 -0.6964  0.1063
 8813TIP3    H147930   3.249   4.392  13.087  0.5664 -0.2682  0.6628
 8813TIP3    H247931   3.138   4.292  13.114  0.9911 -0.7123  0.7735
 8814TIP3   OH247932   3.099   5.210   0.131  0.0923  0.0419  0.0024
 8814TIP3    H147933   3.033   5.145   0.105  0.2515  0.4373 -1.4893
 8814TIP3    H247934   3.049   5.280   0.173 -0.2784 -0.2781  0.1012
 8815TIP3   OH247935   0.836   4.399  13.021 -0.4017 -0.6385 -0.1512
 8815TIP3    H147936   0.859   4.398  12.928  0.4560 -0.6255  0.0446
 8815TIP3    H247937   0.903   4.344  13.062 -0.0684  0.3037  0.6053
 8816TIP3   OH247938   4.868   3.175   1.368 -0.1085  0.6301 -0.0536
 8816TIP3    H147939   4.906   3.222   1.441  1.5515  1.2585 -1.2637
 8816TIP3    H247940   4.868   3.084   1.395 -2.2240  1.0856  1.8320
 8817TIP3   OH247941   6.755   0.827   5.589  0.3450 -0.5210  0.1768
 8817TIP3    H147942   6.778   0.815   5.681 -1.8959 -0.1596  0.8662
 8817TIP3    H247943   6.777   0.744   5.547  1.4469 -0.6731  1.0028
 8818TIP3   OH247944   4.618   0.974  12.215  0.1978  0.0036 -0.4307
 8818TIP3    H147945   4.650   1.011  12.133 -1.4219 -1.5014 -1.8282
 8818TIP3    H247946   4.567   0.898  12.189 -2.9370  1.1425  1.7126
 8819TIP3   OH247947   0.792   5.635   6.052 -0.2127  0.7065  0.2853
 8819TIP3    H147948   0.864   5.672   6.104 -0.0660  2.2519 -0.9645
 8819TIP3    H247949   0.717   5.691   6.072 -0.0407  1.6379 -1.4565
 8820TIP3   OH247950   4.986   4.563  14.316  0.3533  0.1039  0.6138
 8820TIP3    H147951   5.047   4.637  14.322 -1.1979  1.4590  0.1806
 8820TIP3    H247952   5.016   4.503  14.385  1.9955  0.8413  0.6105
 8821TIP3   OH247953   5.832   3.118  10.929 -0.6159 -0.0036 -0.2672
 8821TIP3    H147954   5.905   3.058  10.946  0.1158  0.5888 -1.2077
 8821TIP3    H247955   5.798   3.090  10.844 -1.9255 -0.6860  0.4550
 8822TIP3   OH247956   3.860   5.340  16.544 -0.1939  0.2653  0.0407
 8822TIP3    H147957   3.806   5.404  16.590  0.4808 -1.3757  3.3475
 8822TIP3    H247958   3.941   5.387  16.524 -0.1634  0.8049  1.3538
 8823TIP3   OH247959   0.684   1.773   5.165 -0.2853 -0.3260 -0.3789
 8823TIP3    H147960   0.734   1.733   5.094 -1.7823  0.0991 -1.7317
 8823TIP3    H247961   0.700   1.867   5.156 -0.8230 -0.2362 -0.4358
 8824TIP3   OH247962   6.459   2.023  12.833 -0.5538 -0.1310  0.9893
 8824TIP3    H147963   6.372   2.002  12.799 -1.2489  0.7428  2.1396
 8824TIP3    H247964   6.505   2.061  12.758 -1.1164 -0.7021  0.3368
 8825TIP3   OH247965   0.799   6.246   5.798 -0.1784 -0.0884 -0.2885
 8825TIP3    H147966   0.748   6.266   5.719  0.7801  0.9941 -0.6655
 8825TIP3    H247967   0.776   6.316   5.860 -1.4329 -1.2993  0.6777
 8826TIP3   OH247968   3.724   2.785   2.486  0.2606 -0.2843 -0.4368
 8826TIP3    H147969   3.714   2.754   2.396  2.8995 -0.4922 -0.7505
 8826TIP3    H247970   3.819   2.783   2.501  0.0362  1.5786  1.7111
 8827TIP3   OH247971   1.181   5.409   2.148 -0.5773  0.5474 -0.5115
 8827TIP3    H147972   1.153   5.491   2.107  0.1566  1.3378  0.4986
 8827TIP3    H247973   1.109   5.384   2.205 -0.4094  1.0259 -0.0833
 8828TIP3   OH247974   3.786   1.574  11.652  0.1962 -0.2620 -0.2575
 8828TIP3    H147975   3.785   1.539  11.563 -0.4025  0.3321 -0.4997
 8828TIP3    H247976   3.798   1.669  11.640 -1.5454  0.0564  0.1830
 8829TIP3   OH247977   1.316   4.824   1.388  0.4464  0.1710 -0.0220
 8829TIP3    H147978   1.307   4.894   1.452  0.9503  0.1859  0.0378
 8829TIP3    H247979   1.298   4.744   1.436 -1.2744  0.3331 -0.3519
 8830TIP3   OH247980   3.173   6.375   0.660 -0.1799 -0.0824 -0.5799
 8830TIP3    H147981   3.103   6.422   0.705 -2.2852 -0.1967 -3.4480
 8830TIP3    H247982   3.227   6.444   0.620 -0.1658 -0.0392 -0.4867
 8831TIP3   OH247983   2.100   4.213   4.388  0.0146 -0.3781  0.4027
 8831TIP3    H147984   2.077   4.152   4.458 -0.1267 -0.2860  0.4370
 8831TIP3    H247985   2.193   4.197   4.372 -0.0523 -0.6912  0.3235
 8832TIP3   OH247986   5.675   3.766  15.744 -0.2507  0.3187  0.4316
 8832TIP3    H147987   5.694   3.695  15.805 -0.2301  1.0440  1.2922
 8832TIP3    H247988   5.722   3.841  15.780  0.0208  0.6872 -0.6604
 8833TIP3   OH247989   4.753   4.065  11.489  0.2253  0.0195  0.2650
 8833TIP3    H147990   4.796   4.143  11.524 -2.0713  0.8821  1.3512
 8833TIP3    H247991   4.690   4.099  11.427  1.7302 -1.2939 -2.1232
 8834TIP3   OH247992   5.683   5.920  13.242  0.0290  0.7655 -0.0661
 8834TIP3    H147993   5.712   6.008  13.269  0.0766  0.2358  1.7282
 8834TIP3    H247994   5.729   5.860  13.300  0.0448 -0.4860 -1.3127
 8835TIP3   OH247995   4.526   4.353   3.635  0.2421 -0.3639 -0.3669
 8835TIP3    H147996   4.483   4.357   3.720 -3.1346 -0.9307 -1.8900
 8835TIP3    H247997   4.611   4.396   3.648 -0.8884  1.1419  2.8116
 8836TIP3   OH247998   4.443   4.445  17.103 -0.4879 -0.6626  0.6923
 8836TIP3    H147999   4.412   4.531  17.076 -2.3360 -0.8464  2.0735
 8836TIP3    H248000   4.537   4.447  17.086 -0.7793  0.9205 -1.0880
 8837TIP3   OH248001   2.706   6.727  15.289 -0.5105 -0.1013 -0.5498
 8837TIP3    H148002   2.628   6.704  15.340 -0.4835  0.0182 -0.4539
 8837TIP3    H248003   2.732   6.813  15.322  1.1932 -1.2374  1.2978
 8838TIP3   OH248004   3.339   3.076   1.161  0.3048 -0.0018 -0.5662
 8838TIP3    H148005   3.361   3.017   1.234  1.8340  0.6135 -0.4838
 8838TIP3    H248006   3.423   3.115   1.136 -0.4295  0.9333 -1.6797
 8839TIP3   OH248007   5.267   3.358   0.627 -0.4240 -0.0150 -0.2325
 8839TIP3    H148008   5.260   3.317   0.713 -0.8964 -0.7094 -0.5938
 8839TIP3    H248009   5.303   3.445   0.645 -1.0520  0.0642  0.7239
 8840TIP3   OH248010   5.400   3.802  12.936 -0.1926 -0.1649  0.3172
 8840TIP3    H148011   5.453   3.726  12.961 -0.3144 -0.1707  0.5661
 8840TIP3    H248012   5.310   3.771  12.944 -0.2299 -0.4199 -0.9552
 8841TIP3   OH248013   2.327   2.043   3.289 -0.3432 -0.1391 -0.1883
 8841TIP3    H148014   2.394   2.107   3.312 -0.6838 -0.0875  0.6810
 8841TIP3    H248015   2.284   2.081   3.212  1.5694 -0.8668 -1.6968
 8842TIP3   OH248016   0.448   1.868   4.722  0.1117 -0.8391 -0.3906
 8842TIP3    H148017   0.418   1.935   4.783 -0.5486 -2.0551  0.6598
 8842TIP3    H248018   0.443   1.910   4.636 -0.0229  0.5328  0.2630
 8843TIP3   OH248019   2.070   4.163  11.039  0.3247 -0.3962 -0.5241
 8843TIP3    H148020   2.028   4.077  11.048 -2.0172  0.6716 -0.5631
 8843TIP3    H248021   2.073   4.179  10.944 -0.9346  0.2950 -0.4724
 8844TIP3   OH248022   3.511   5.300  15.339 -0.2415 -0.7078  0.0907
 8844TIP3    H148023   3.534   5.217  15.297  0.8887 -1.1426  1.4793
 8844TIP3    H248024   3.591   5.325  15.386 -1.3655 -0.1417  1.7746
 8845TIP3   OH248025   0.823   3.104   5.452  0.0294 -0.0691  0.5422
 8845TIP3    H148026   0.857   3.176   5.505 -0.5757 -0.1683  1.0646
 8845TIP3    H248027   0.875   3.028   5.479  1.3206  0.3281 -0.6751
 8846TIP3   OH248028   2.506   0.796   5.149 -0.4510  0.1969 -0.6263
 8846TIP3    H148029   2.455   0.821   5.226 -1.1020  0.0190 -0.9951
 8846TIP3    H248030   2.442   0.758   5.089  0.0765  0.1969 -1.1972
 8847TIP3   OH248031   0.799   1.771  11.167 -0.0455  0.6507  0.2481
 8847TIP3    H148032   0.759   1.795  11.084 -1.6708  0.6655  0.9985
 8847TIP3    H248033   0.890   1.800  11.160  0.1807 -0.4317 -1.9657
 8848TIP3   OH248034   3.644   4.984  14.849 -0.4064 -0.3869  0.3365
 8848TIP3    H148035   3.584   5.039  14.799 -0.9506 -0.0156  1.3640
 8848TIP3    H248036   3.623   4.895  14.823 -0.4378 -0.1833 -0.3477
 8849TIP3   OH248037   5.824   6.195  13.287  0.5277 -0.0750  0.2657
 8849TIP3    H148038   5.893   6.238  13.337 -1.3149  1.3973  1.6737
 8849TIP3    H248039   5.823   6.240  13.203  0.3612  0.8955  0.7700
 8850TIP3   OH248040   5.372   0.158  16.691  0.1805 -0.1887  0.0789
 8850TIP3    H148041   5.432   0.197  16.627  0.1284 -1.3591 -0.7027
 8850TIP3    H248042   5.313   0.104  16.639 -1.7987  1.1879  0.8067
 8851TIP3   OH248043   4.609   3.164  11.858 -0.2370 -0.5048  0.0286
 8851TIP3    H148044   4.541   3.177  11.791  1.0588  0.2301 -1.2098
 8851TIP3    H248045   4.657   3.086  11.828  0.8378  0.2816 -0.3494
 8852TIP3   OH248046   0.193   1.975  13.051 -0.3792 -0.8107  0.0801
 8852TIP3    H148047   0.171   1.974  13.144 -0.0104  0.8425  0.2183
 8852TIP3    H248048   0.118   1.935  13.007 -3.0328  3.0142  0.6598
 8853TIP3   OH248049   1.127   2.566  15.503  0.1061  0.0178  0.1294
 8853TIP3    H148050   1.068   2.512  15.556 -0.3386  0.5293  0.1630
 8853TIP3    H248051   1.212   2.559  15.548 -0.3041  0.6010  1.0356
 8854TIP3   OH248052   5.269   4.525  15.341  0.2752  0.8497  0.2398
 8854TIP3    H148053   5.352   4.548  15.382  0.9258 -0.7753 -0.1038
 8854TIP3    H248054   5.227   4.465  15.402  0.7934 -0.7823 -0.9417
 8855TIP3   OH248055   6.072   1.029   5.503  0.0237 -0.5976  0.0573
 8855TIP3    H148056   6.026   1.008   5.421 -1.0075  0.6355  0.2771
 8855TIP3    H248057   6.081   0.945   5.548 -2.4168 -0.8709  0.1696
 8856TIP3   OH248058   5.310   2.329  12.987 -0.0542  0.5689 -0.1642
 8856TIP3    H148059   5.231   2.277  12.997 -0.4263  1.4756  2.3743
 8856TIP3    H248060   5.327   2.364  13.074  2.5262  1.3223 -0.8734
 8857TIP3   OH248061   4.717   3.820   6.253  0.1369  0.7578 -0.7489
 8857TIP3    H148062   4.729   3.735   6.209 -0.5214  0.7455 -0.9145
 8857TIP3    H248063   4.779   3.818   6.326 -0.8683 -0.4599  0.1034
 8858TIP3   OH248064   2.841   2.264   0.896  0.0137  0.2961  0.0651
 8858TIP3    H148065   2.773   2.231   0.838 -0.6007  0.6997  0.5519
 8858TIP3    H248066   2.922   2.223   0.863 -0.6328 -1.2553  0.3231
 8859TIP3   OH248067   3.972   1.676   4.041 -0.2734  0.1219  0.4517
 8859TIP3    H148068   3.896   1.669   3.983 -0.3692 -2.5323  0.7741
 8859TIP3    H248069   3.977   1.591   4.084  1.7161  0.9199  1.9597
 8860TIP3   OH248070   6.024   0.458  10.974  0.0978 -0.0563 -0.1169
 8860TIP3    H148071   5.939   0.466  10.931  0.8300  1.5190 -1.3751
 8860TIP3    H248072   6.004   0.425  11.061 -1.8730  0.8953 -0.1683
 8861TIP3   OH248073   3.545   2.594   1.080  0.4495  0.0795 -0.3258
 8861TIP3    H148074   3.639   2.596   1.101  0.2739  0.8688  0.4723
 8861TIP3    H248075   3.531   2.675   1.030 -0.4044  1.7480  2.4385
 8862TIP3   OH248076   6.211   0.242  17.050 -0.2409 -0.3340  0.6427
 8862TIP3    H148077   6.200   0.319  17.107  1.9601 -0.8236  1.8233
 8862TIP3    H248078   6.201   0.167  17.109  2.9536 -0.8509  0.6686
 8863TIP3   OH248079   5.450   5.112   2.623  0.2368 -0.6381 -0.3266
 8863TIP3    H148080   5.534   5.066   2.630  0.7040  0.0556 -1.2196
 8863TIP3    H248081   5.403   5.065   2.554  0.4011 -0.2493 -0.7023
 8864TIP3   OH248082   1.944   2.620  16.051  0.1673  0.1318 -0.2399
 8864TIP3    H148083   1.922   2.543  15.998  0.5665 -0.3117  0.2311
 8864TIP3    H248084   1.859   2.659  16.071  0.0119  0.3866 -1.3017
 8865TIP3   OH248085   0.768   4.067  15.810 -0.1902 -0.3064 -0.0333
 8865TIP3    H148086   0.783   4.102  15.898 -1.2881  1.3284 -0.4536
 8865TIP3    H248087   0.850   4.083  15.764 -0.6086  1.6646 -0.1645
 8866TIP3   OH248088   4.244   1.366   0.476 -0.3721  0.3512 -0.0405
 8866TIP3    H148089   4.308   1.347   0.407 -0.2531  1.5310 -0.2820
 8866TIP3    H248090   4.297   1.379   0.555 -0.4277 -0.0089  0.0571
 8867TIP3   OH248091   1.008   0.802   2.305 -0.0567 -0.5081 -0.4640
 8867TIP3    H148092   0.983   0.730   2.363 -0.6222 -0.8608 -1.1261
 8867TIP3    H248093   1.104   0.805   2.310 -0.1200 -0.1784  0.8839
 8868TIP3   OH248094   2.847   0.786   1.311 -0.0985 -0.0741  0.2324
 8868TIP3    H148095   2.802   0.702   1.311 -1.0793  0.3901 -1.9539
 8868TIP3    H248096   2.782   0.847   1.346  0.5228 -0.1403  1.5682
 8869TIP3   OH248097   5.901   5.012   5.632  0.2098  0.2332  0.1434
 8869TIP3    H148098   5.924   4.997   5.540 -1.1695 -1.9976  0.1002
 8869TIP3    H248099   5.821   5.063   5.628 -0.9266 -1.4938  0.0101
 8870TIP3   OH248100   5.449   3.466   4.624  0.7475 -0.6229  0.4237
 8870TIP3    H148101   5.451   3.516   4.706 -2.0379  1.3113 -0.5324
 8870TIP3    H248102   5.517   3.507   4.570  1.0672 -0.3964  0.9850
 8871TIP3   OH248103   5.875   0.498   5.069 -0.1592 -0.0013 -0.6380
 8871TIP3    H148104   5.930   0.429   5.032 -0.4740 -0.0819 -0.9661
 8871TIP3    H248105   5.799   0.451   5.103 -1.2376  0.3286 -2.4632
 8872TIP3   OH248106   0.995   5.501   0.106  0.4880 -0.4026  0.6411
 8872TIP3    H148107   1.039   5.461   0.031  0.8887 -0.4936  0.9188
 8872TIP3    H248108   0.941   5.432   0.142  0.6919 -0.5082  0.7438
 8873TIP3   OH248109   1.813   3.721  12.776  0.2991 -0.1195 -0.5022
 8873TIP3    H148110   1.723   3.691  12.785  0.3356 -0.2487 -0.5636
 8873TIP3    H248111   1.833   3.765  12.859  0.7848 -1.6877  0.2528
 8874TIP3   OH248112   6.074   4.746   4.099  0.0631  0.2221  0.0903
 8874TIP3    H148113   6.151   4.771   4.150  1.2517  0.1624 -1.5960
 8874TIP3    H248114   6.101   4.755   4.008 -2.1616  0.8569 -0.5779
 8875TIP3   OH248115   3.831   3.899   1.010 -0.2177  0.2168 -0.1660
 8875TIP3    H148116   3.837   3.994   1.022  0.6378  0.3057 -1.1106
 8875TIP3    H248117   3.894   3.863   1.072 -0.6652  0.2500  0.3127
 8876TIP3   OH248118   4.349   6.286   5.034  0.4004 -0.3645 -0.0256
 8876TIP3    H148119   4.309   6.241   4.959  0.5161 -2.3677  1.0416
 8876TIP3    H248120   4.346   6.222   5.105  0.5135  1.3906  1.6434
 8877TIP3   OH248121   0.617   1.025  15.560  0.2311 -0.3940  0.0090
 8877TIP3    H148122   0.558   0.957  15.593  0.7948 -0.7459  0.3107
 8877TIP3    H248123   0.578   1.053  15.478  0.1395 -1.2759 -0.2564
 8878TIP3   OH248124   6.661   6.204   2.027 -0.4762  0.2903 -0.3519
 8878TIP3    H148125   6.697   6.167   2.107 -1.6865  0.8319  0.4875
 8878TIP3    H248126   6.598   6.138   1.997 -1.1114  0.7260 -0.0086
 8879TIP3   OH248127   6.424   6.629   5.624 -0.3998 -0.1682  0.4991
 8879TIP3    H148128   6.356   6.563   5.638 -1.2681  0.5647 -0.1117
 8879TIP3    H248129   6.506   6.585   5.647 -1.0251 -1.2318  0.7577
 8880TIP3   OH248130   3.058   5.346  11.319  0.0785 -0.0314  0.3980
 8880TIP3    H148131   2.974   5.361  11.275  0.9185  0.3862 -1.1707
 8880TIP3    H248132   3.105   5.429  11.311  1.4164 -0.8265 -0.6075
 8881TIP3   OH248133   5.337   1.639  14.818  0.3341  0.1887  0.6667
 8881TIP3    H148134   5.252   1.650  14.776  0.9635  1.1026 -0.4138
 8881TIP3    H248135   5.400   1.641  14.746  1.4223  1.4069  1.6153
 8882TIP3   OH248136   5.561   0.610   2.001 -0.9562 -0.3140 -0.5820
 8882TIP3    H148137   5.644   0.594   2.046 -1.7855 -2.5371  0.3128
 8882TIP3    H248138   5.564   0.703   1.978  1.6680 -0.2668 -0.4121
 8883TIP3   OH248139   5.305   4.176  14.569  0.3766  0.5975 -0.3202
 8883TIP3    H148140   5.295   4.127  14.487  0.5647 -0.1856  0.1174
 8883TIP3    H248141   5.388   4.223  14.557  1.1991 -0.7254  0.0196
 8884TIP3   OH248142   2.981   1.864  14.745  0.0213 -0.1523 -0.6374
 8884TIP3    H148143   3.050   1.929  14.759  1.6180 -1.7725 -0.5533
 8884TIP3    H248144   3.019   1.804  14.680 -0.7222 -1.8864  0.4687
 8885TIP3   OH248145   0.901   1.148   4.014  0.4174 -0.4977 -0.0413
 8885TIP3    H148146   0.916   1.154   3.920 -0.7127  0.1557 -0.2008
 8885TIP3    H248147   0.906   1.054   4.033 -0.1866 -0.7249 -0.9172
 8886TIP3   OH248148   5.626   0.197  14.728  0.5259  0.3130  0.0222
 8886TIP3    H148149   5.641   0.129  14.662  0.0606 -1.0490  1.2669
 8886TIP3    H248150   5.705   0.250  14.726  0.2839  0.6770 -2.0213
 8887TIP3   OH248151   0.821   4.600   0.050 -0.3968 -0.0250  0.3426
 8887TIP3    H148152   0.896   4.563   0.096  0.3336  1.6157  0.5391
 8887TIP3    H248153   0.855   4.622  -0.036 -1.2163 -1.1324 -0.2907
 8888TIP3   OH248154   1.222   4.666   5.921  0.5104  0.4020  0.0995
 8888TIP3    H148155   1.245   4.640   6.010 -0.6965 -1.3362 -0.0309
 8888TIP3    H248156   1.178   4.750   5.931 -0.4799 -0.2204  1.2983
 8889TIP3   OH248157   3.302   5.024   4.708  0.5159 -0.0757  0.4125
 8889TIP3    H148158   3.377   4.970   4.685  0.7571 -0.7426  2.5042
 8889TIP3    H248159   3.238   4.962   4.743 -0.9492  0.5063 -1.1344
 8890TIP3   OH248160   3.594   0.555   2.825 -0.4585  0.4252  0.2170
 8890TIP3    H148161   3.583   0.625   2.760 -0.4242 -0.3118 -0.6051
 8890TIP3    H248162   3.518   0.498   2.812 -1.3758  1.1568  2.0053
 8891TIP3   OH248163   6.186   4.385  12.783 -0.3608 -0.0510  0.1887
 8891TIP3    H148164   6.149   4.417  12.701  0.3949 -0.5527 -0.3613
 8891TIP3    H248165   6.133   4.426  12.851 -0.8632  0.5380 -0.5441
 8892TIP3   OH248166   2.050   3.544   1.057 -0.1552 -0.1248 -0.3595
 8892TIP3    H148167   2.070   3.451   1.045  0.1909 -0.2373  1.0022
 8892TIP3    H248168   2.130   3.590   1.029 -0.0104 -0.2841 -0.2074
 8893TIP3   OH248169   1.939   0.716   1.086  0.0641 -0.0050 -0.8476
 8893TIP3    H148170   1.866   0.668   1.126 -0.6320 -0.0547 -2.1372
 8893TIP3    H248171   1.901   0.759   1.010  1.5558 -0.7351 -2.0580
 8894TIP3   OH248172   0.978   6.768   5.159 -0.1226  0.2781 -0.1122
 8894TIP3    H148173   0.898   6.748   5.208  0.5075  0.0047  0.8181
 8894TIP3    H248174   1.047   6.769   5.225  0.5192  1.3639 -0.7789
 8895TIP3   OH248175   2.974   1.961   3.528  0.0961 -0.5645  0.6333
 8895TIP3    H148176   2.968   2.056   3.517  0.7870 -0.3742  1.7044
 8895TIP3    H248177   2.966   1.926   3.439 -0.4175  0.4734  0.2473
 8896TIP3   OH248178   4.689   2.450  13.396 -0.2824 -0.0042 -0.0939
 8896TIP3    H148179   4.705   2.370  13.446 -1.1964  0.2744  0.6762
 8896TIP3    H248180   4.762   2.508  13.419  1.2545 -1.1291 -1.8587
 8897TIP3   OH248181   4.819   4.561  13.484  0.2209  0.3358 -0.2070
 8897TIP3    H148182   4.863   4.643  13.463  1.6666  0.0831  1.6371
 8897TIP3    H248183   4.747   4.556  13.421  1.6759  1.7005 -2.0920
 8898TIP3   OH248184   2.283   6.081  14.732  0.2804  0.6871 -0.1846
 8898TIP3    H148185   2.306   6.008  14.789  1.0016  0.0519 -1.2638
 8898TIP3    H248186   2.328   6.157  14.770 -0.2028  0.5288  0.7459
 8899TIP3   OH248187   6.472   5.840   1.694  0.2745  1.0140  0.0478
 8899TIP3    H148188   6.492   5.898   1.767  0.6767  0.5018  0.3548
 8899TIP3    H248189   6.451   5.898   1.621 -1.1167  1.5385  0.8253
 8900TIP3   OH248190   2.431   1.123  10.251  0.3060  0.7935 -0.6517
 8900TIP3    H148191   2.370   1.055  10.222  0.7655 -0.1290  0.4299
 8900TIP3    H248192   2.409   1.200  10.199 -1.6117  0.4144 -0.4568
 8901TIP3   OH248193   1.589   0.828   2.154  0.2547 -0.2347  0.7545
 8901TIP3    H148194   1.674   0.814   2.111  0.6835  1.8440  0.8044
 8901TIP3    H248195   1.529   0.770   2.108  1.3732 -0.5138 -0.4126
 8902TIP3   OH248196   3.279   1.202   3.133  0.2935  0.7975  0.4004
 8902TIP3    H148197   3.370   1.172   3.142  1.3097  3.0776 -1.3522
 8902TIP3    H248198   3.283   1.296   3.151 -1.3079  1.3600 -1.8018
 8903TIP3   OH248199   5.075   2.875   2.818  0.0567 -0.4988  0.0219
 8903TIP3    H148200   5.127   2.953   2.835 -1.5286  1.0151 -1.5658
 8903TIP3    H248201   5.014   2.870   2.891  1.4943 -1.5145  1.2015
 8904TIP3   OH248202   3.664   1.659   4.182 -0.0356  0.0741 -0.5455
 8904TIP3    H148203   3.695   1.687   4.096 -1.0687  1.3954 -0.5247
 8904TIP3    H248204   3.618   1.736   4.217  1.1141 -0.1456  1.5712
 8905TIP3   OH248205   5.818   1.818  12.406 -0.2511 -0.1511  0.1615
 8905TIP3    H148206   5.725   1.839  12.393 -0.1761  0.5082  0.6518
 8905TIP3    H248207   5.834   1.745  12.347 -1.6679 -1.8167  1.7334
 8906TIP3   OH248208   1.956   4.609   6.732  0.1623  0.6452  0.6463
 8906TIP3    H148209   2.043   4.634   6.699 -0.5193  0.1367 -1.7134
 8906TIP3    H248210   1.910   4.575   6.655 -1.7974 -0.0553  2.0498
 8907TIP3   OH248211   3.601   1.789  15.541  0.1728  0.3513 -0.1104
 8907TIP3    H148212   3.684   1.753  15.509  0.0427  0.7870 -0.9910
 8907TIP3    H248213   3.541   1.714  15.542  0.9694 -0.3180  2.0874
 8908TIP3   OH248214   6.015   6.044   4.720 -0.2294 -0.2117 -0.2729
 8908TIP3    H148215   6.005   6.134   4.688 -0.3527 -0.1321 -0.0165
 8908TIP3    H248216   6.086   6.008   4.668 -0.3518 -0.0470 -0.5570
 8909TIP3   OH248217   1.147   5.424  17.099  0.1333  0.0058 -0.3922
 8909TIP3    H148218   1.122   5.347  17.047 -1.4716 -0.3243  0.7905
 8909TIP3    H248219   1.187   5.483  17.035  0.4947 -1.3829 -1.5277
 8910TIP3   OH248220   2.459   4.800  10.982  0.2824  0.2561 -0.2796
 8910TIP3    H148221   2.524   4.870  10.986  2.2260 -1.3733 -1.7196
 8910TIP3    H248222   2.473   4.758  10.897 -2.1580 -0.6681 -0.3154
 8911TIP3   OH248223   1.427   4.995   6.020  0.1835  0.6586 -0.0996
 8911TIP3    H148224   1.357   5.055   5.992 -0.1228  1.0595  1.4349
 8911TIP3    H248225   1.421   4.994   6.115  0.0708 -1.9454 -0.0510
 8912TIP3   OH248226   3.540   0.034  16.952  0.3099 -0.2246  0.2160
 8912TIP3    H148227   3.513  -0.053  16.922  1.3910 -0.9655  1.3000
 8912TIP3    H248228   3.482   0.095  16.904 -0.8374 -1.5458 -0.1495
 8913TIP3   OH248229   6.566   6.806   1.785  0.4453 -0.0256  0.7465
 8913TIP3    H148230   6.550   6.822   1.692  1.7638 -1.6786  0.1680
 8913TIP3    H248231   6.596   6.890   1.819 -0.3644  0.6895 -0.2408
 8914TIP3   OH248232   4.888   2.959  14.615 -0.0379 -0.4599  0.1106
 8914TIP3    H148233   4.897   2.890  14.549 -0.4886 -1.6558  1.2610
 8914TIP3    H248234   4.879   3.040  14.564 -2.5664 -1.5553 -1.4078
 8915TIP3   OH248235   6.353   6.483   1.370  0.6937  0.3374 -0.3104
 8915TIP3    H148236   6.335   6.557   1.429  0.5054  1.0412 -1.2182
 8915TIP3    H248237   6.271   6.434   1.369  1.0019 -0.2236  0.7449
 8916TIP3   OH248238   2.513   4.989   3.967 -0.1993  0.1549  0.1490
 8916TIP3    H148239   2.452   5.007   3.895 -0.8003  0.4946  0.7355
 8916TIP3    H248240   2.594   5.033   3.941  0.2559 -1.3977 -1.2684
 8917TIP3   OH248241   5.284   3.167  15.024  0.2779 -0.1063  0.6519
 8917TIP3    H148242   5.200   3.186  15.067 -0.0223 -0.5759  0.2845
 8917TIP3    H248243   5.269   3.186  14.932  0.8532  0.6691  0.7142
 8918TIP3   OH248244   3.178   5.154  11.480 -0.0147  0.4718 -0.1611
 8918TIP3    H148245   3.158   5.066  11.447  1.2223 -0.7742  2.1499
 8918TIP3    H248246   3.135   5.213  11.418 -0.2778 -1.7177 -2.2237
 8919TIP3   OH248247   0.747   4.968   0.431  0.3106 -0.0644 -0.1699
 8919TIP3    H148248   0.776   4.882   0.401  0.3818  0.2588 -1.0651
 8919TIP3    H248249   0.817   5.000   0.488  0.4555 -0.4362 -0.1432
 8920TIP3   OH248250   3.071   4.961   4.062 -0.1814 -0.6667 -0.2596
 8920TIP3    H148251   3.109   5.047   4.042  0.2613 -1.2719 -2.2407
 8920TIP3    H248252   3.106   4.903   3.995 -0.7549 -2.3462  0.8243
 8921TIP3   OH248253   3.710   2.529   6.549  0.5247 -0.0332 -0.0693
 8921TIP3    H148254   3.800   2.560   6.535  0.5482 -0.2544 -0.4181
 8921TIP3    H248255   3.686   2.564   6.635  2.3322 -3.2402  1.9194
 8922TIP3   OH248256   5.048   3.041   1.649 -0.2680  0.4673 -0.1464
 8922TIP3    H148257   5.085   3.116   1.602  0.4283  1.4700  1.8989
 8922TIP3    H248258   5.119   2.977   1.653  0.5208  1.3959  1.6401
 8923TIP3   OH248259   3.189   0.313  11.452  0.2810  0.4198  0.2639
 8923TIP3    H148260   3.199   0.407  11.439 -1.3152  0.7971  1.4626
 8923TIP3    H248261   3.105   0.303  11.497  0.4079 -1.5849  0.1757
 8924TIP3   OH248262   6.045   3.988  15.998 -0.3750  0.1157  0.5567
 8924TIP3    H148263   6.027   3.918  15.935 -0.7856  0.6891  0.0350
 8924TIP3    H248264   6.139   3.979  16.017  0.0460  0.6937 -1.0740
 8925TIP3   OH248265   6.452   4.585  13.934 -0.0523 -0.4706  0.4178
 8925TIP3    H148266   6.517   4.560  13.999 -1.0184  0.3649  1.7533
 8925TIP3    H248267   6.424   4.673  13.960 -0.4937 -0.1276 -1.1145
 8926TIP3   OH248268   1.339   6.469  11.659 -0.1472 -0.0609 -0.2209
 8926TIP3    H148269   1.256   6.481  11.706  0.2155  1.6568  0.0750
 8926TIP3    H248270   1.384   6.400  11.707  1.0240  2.8108  3.3546
 8927TIP3   OH248271   4.430   1.255  14.724 -0.6784  0.4308  0.0930
 8927TIP3    H148272   4.416   1.349  14.711 -0.1327  0.7681  1.7028
 8927TIP3    H248273   4.380   1.234  14.802 -1.8043 -0.9188 -0.9527
 8928TIP3   OH248274   0.366   0.432  11.038  0.0029 -0.6988  0.3331
 8928TIP3    H148275   0.337   0.436  10.947  0.9972  0.8622  0.0386
 8928TIP3    H248276   0.420   0.511  11.049 -0.6136 -0.5145  2.4495
 8929TIP3   OH248277   4.501   1.231  12.856 -0.2499 -0.1527 -0.2574
 8929TIP3    H148278   4.462   1.180  12.927  0.1409  0.5435  0.4719
 8929TIP3    H248279   4.452   1.205  12.778 -1.2137 -0.3437  0.3946
 8930TIP3   OH248280   1.179   4.773   2.282 -0.0852  0.4690 -0.2667
 8930TIP3    H148281   1.110   4.714   2.311  0.3166 -0.5500 -1.3216
 8930TIP3    H248282   1.159   4.856   2.325 -2.3272  0.3729 -1.0218
 8931TIP3   OH248283   4.463   3.812   0.593  0.6053 -0.4553 -0.2634
 8931TIP3    H148284   4.371   3.786   0.593 -0.0453  1.5074 -2.1639
 8931TIP3    H248285   4.497   3.780   0.676 -2.0987 -0.1731  1.0575
 8932TIP3   OH248286   5.655   1.953   2.372  0.0851 -0.6259  0.6181
 8932TIP3    H148287   5.611   2.024   2.421 -1.0459 -2.4420  2.3995
 8932TIP3    H248288   5.746   1.981   2.368 -0.4905  1.3885  0.3929
 8933TIP3   OH248289   2.879   3.692  12.974  0.0844  0.5625 -0.0473
 8933TIP3    H148290   2.945   3.715  12.909  1.0038 -1.4423  0.1040
 8933TIP3    H248291   2.802   3.666  12.922 -0.2080  1.7553 -0.2427
 8934TIP3   OH248292   2.531   6.792   3.074  0.1710 -0.1220 -0.2530
 8934TIP3    H148293   2.484   6.760   3.151  1.1626 -1.5196 -0.1798
 8934TIP3    H248294   2.478   6.764   3.000  0.9251 -1.8868 -0.1808
 8935TIP3   OH248295   4.018   6.739   1.758  0.2606 -0.1776 -0.5279
 8935TIP3    H148296   4.080   6.673   1.729 -0.5339 -1.4195  0.4538
 8935TIP3    H248297   4.072   6.807   1.798  1.0141 -1.2760  0.4001
 8936TIP3   OH248298   5.419   0.027   1.539 -0.0267 -0.0879 -0.2947
 8936TIP3    H148299   5.475  -0.049   1.555 -0.4337 -0.5464 -1.0244
 8936TIP3    H248300   5.369   0.037   1.620  2.7066  1.7633  1.3276
 8937TIP3   OH248301   1.982   5.890  14.398  0.2818  0.2034  0.2445
 8937TIP3    H148302   1.930   5.933  14.466 -1.7011 -0.3871 -0.8115
 8937TIP3    H248303   1.974   5.797  14.418  1.3063  0.1150  0.2867
 8938TIP3   OH248304   6.488   3.257   2.365  0.1033 -0.0744  0.0740
 8938TIP3    H148305   6.485   3.264   2.270  0.3205  0.1816  0.0838
 8938TIP3    H248306   6.494   3.347   2.396 -0.6836 -0.1131  0.3614
 8939TIP3   OH248307   3.633   0.203   0.018 -0.0198 -0.0612 -0.4251
 8939TIP3    H148308   3.693   0.168  -0.047 -0.0932 -2.9735  0.9137
 8939TIP3    H248309   3.546   0.180  -0.014 -0.0972 -0.7551  0.2448
 8940TIP3   OH248310   5.567   4.425  16.264 -0.3636  0.1038 -0.1808
 8940TIP3    H148311   5.566   4.398  16.172  0.1975 -1.9191  0.3475
 8940TIP3    H248312   5.559   4.343  16.312 -1.0250  1.1672  1.5868
 8941TIP3   OH248313   5.077   0.883  16.923  0.4972 -0.4522  0.1331
 8941TIP3    H148314   4.994   0.928  16.910  1.3335  0.8389 -1.1463
 8941TIP3    H248315   5.109   0.865  16.834  1.1830 -1.7164  0.6085
 8942TIP3   OH248316   3.500   4.200  14.293  0.5313  0.3337  0.0033
 8942TIP3    H148317   3.456   4.232  14.372  1.1494  0.0455  0.4736
 8942TIP3    H248318   3.451   4.239  14.220  0.2107  0.9340  0.5345
 8943TIP3   OH248319   3.878   2.597   3.925  0.4208  0.3009  0.2934
 8943TIP3    H148320   3.949   2.557   3.874  0.7114  0.6746  0.3985
 8943TIP3    H248321   3.820   2.635   3.860  0.5824  0.4310  0.2244
 8944TIP3   OH248322   0.399   3.936  15.009  0.7258  0.1113  0.1262
 8944TIP3    H148323   0.442   3.974  15.086 -0.9498  0.6016  0.8634
 8944TIP3    H248324   0.317   3.899  15.043  2.0790 -3.9915 -0.5821
 8945TIP3   OH248325   1.722   4.510   4.202 -0.1735 -0.2003  0.3987
 8945TIP3    H148326   1.699   4.559   4.280 -1.8322 -1.1998  0.5898
 8945TIP3    H248327   1.640   4.469   4.174  0.4703 -0.2427 -1.6016
 8946TIP3   OH248328   3.821   3.367   2.945 -0.1521  0.0384 -0.2164
 8946TIP3    H148329   3.843   3.274   2.952  0.6504  0.0095 -2.3873
 8946TIP3    H248330   3.785   3.377   2.857 -3.5995  1.2069  1.1512
 8947TIP3   OH248331   6.240   1.991  12.682  0.4907  0.0943 -0.5950
 8947TIP3    H148332   6.225   2.084  12.702  0.7759  0.2713 -1.1953
 8947TIP3    H248333   6.158   1.962  12.641 -0.0382 -0.2298  0.6467
 8948TIP3   OH248334   6.762   4.632   0.114 -0.0417 -0.3607  0.5259
 8948TIP3    H148335   6.793   4.648   0.024  0.4339  1.3932  0.9554
 8948TIP3    H248336   6.840   4.641   0.168 -0.7382  1.1761  1.3425
 8949TIP3   OH248337   3.701   1.447  15.035  0.4246 -0.4457 -0.3829
 8949TIP3    H148338   3.654   1.382  14.984 -1.3538 -0.3552  1.0254
 8949TIP3    H248339   3.655   1.529  15.017  0.0507 -0.3345  0.9527
 8950TIP3   OH248340   2.161   4.333   3.224  0.3705 -0.1286 -0.3851
 8950TIP3    H148341   2.180   4.340   3.130 -1.2748 -2.9073 -1.0423
 8950TIP3    H248342   2.222   4.265   3.255 -0.9061 -1.1786 -0.1005
 8951TIP3   OH248343   2.596   1.432  15.081  0.9539 -0.2994 -0.0568
 8951TIP3    H148344   2.638   1.518  15.083 -0.0283  0.2950 -2.0919
 8951TIP3    H248345   2.668   1.371  15.066  1.3291  0.5661 -2.1379
 8952TIP3   OH248346   2.697   2.005   2.219 -0.4207  0.7654  0.6368
 8952TIP3    H148347   2.657   2.083   2.258 -1.0980 -0.0335  1.5701
 8952TIP3    H248348   2.632   1.936   2.230  0.1119  0.0848 -0.3025
 8953TIP3   OH248349   5.401   0.989  14.350 -0.0114 -0.0633 -0.7720
 8953TIP3    H148350   5.334   0.931  14.386 -0.6354  1.2214  0.2079
 8953TIP3    H248351   5.477   0.932  14.335 -0.7903 -1.2308 -0.4070
 8954TIP3   OH248352   0.054   0.222   1.317  0.0877 -0.1831 -0.0910
 8954TIP3    H148353   0.118   0.265   1.260 -0.1613  0.4242  0.0784
 8954TIP3    H248354   0.032   0.288   1.382 -1.9484  0.2032 -1.1022
 8955TIP3   OH248355   4.316   0.516  12.457  0.0493 -0.7129 -0.2892
 8955TIP3    H148356   4.225   0.514  12.487 -0.2309 -0.0314 -1.0495
 8955TIP3    H248357   4.364   0.557  12.530 -0.4757  0.1250 -0.3911
 8956TIP3   OH248358   3.177   5.080  14.142  0.9690 -0.0204  0.0353
 8956TIP3    H148359   3.169   5.126  14.226 -1.6580  1.2109 -0.7815
 8956TIP3    H248360   3.258   5.115  14.104  0.0950  2.5754  0.3139
 8957TIP3   OH248361   2.935   0.539   5.515  0.0780  0.4426 -0.5744
 8957TIP3    H148362   2.992   0.496   5.579  0.0848  0.8470 -0.3050
 8957TIP3    H248363   2.944   0.486   5.436 -1.7047 -1.4439  0.3887
 8958TIP3   OH248364   2.080   3.291   1.640 -0.2373 -0.2674  0.0401
 8958TIP3    H148365   1.999   3.300   1.590 -0.8168  0.2172  1.0415
 8958TIP3    H248366   2.148   3.277   1.573 -1.0939 -0.4093 -0.8251
 8959TIP3   OH248367   2.007   6.191  10.893 -0.2041  0.1595 -0.5576
 8959TIP3    H148368   2.020   6.278  10.930 -1.8243  1.0123 -1.8541
 8959TIP3    H248369   2.061   6.190  10.814  0.2555 -0.2394 -0.2438
 8960TIP3   OH248370   2.924   6.150  14.784 -1.0559 -0.3591 -0.2382
 8960TIP3    H148371   3.004   6.123  14.739  0.4127  1.5848  0.9851
 8960TIP3    H248372   2.955   6.194  14.863 -3.4161 -0.7263  0.9886
 8961TIP3   OH248373   4.505   1.127  16.506 -0.0643  0.3383 -0.0774
 8961TIP3    H148374   4.586   1.120  16.455  0.9186  1.0548  1.3031
 8961TIP3    H248375   4.525   1.081  16.588 -1.2905 -0.0222  0.0408
 8962TIP3   OH248376   2.918   1.505   6.013 -0.0138  0.0524  0.1044
 8962TIP3    H148377   2.866   1.453   5.951 -0.2567  3.7382 -3.1936
 8962TIP3    H248378   2.854   1.563   6.055  0.5974 -0.2533  1.5179
 8963TIP3   OH248379   1.117   1.558   0.440  0.1429 -0.5256 -0.1852
 8963TIP3    H148380   1.035   1.550   0.489  0.2270 -0.1530  0.0125
 8963TIP3    H248381   1.180   1.594   0.502  1.1033 -2.9311  0.3851
 8964TIP3   OH248382   1.241   4.768   4.911 -0.2961  0.2363 -0.2833
 8964TIP3    H148383   1.299   4.708   4.959 -1.1523  1.1561  2.0831
 8964TIP3    H248384   1.297   4.844   4.892 -0.4685  0.8422  1.4062
 8965TIP3   OH248385   6.102   2.904   6.205  0.0847 -0.1899  0.2554
 8965TIP3    H148386   6.086   2.865   6.291  0.8183  0.9804  0.9504
 8965TIP3    H248387   6.099   2.998   6.220  2.8835  0.0956 -0.4129
 8966TIP3   OH248388   2.374   3.282   6.105 -0.2389  0.3218  0.0896
 8966TIP3    H148389   2.360   3.194   6.141  2.2764  0.6849  2.2226
 8966TIP3    H248390   2.313   3.287   6.031 -0.8926 -2.9743  0.2475
 8967TIP3   OH248391   2.160   3.246   5.143  0.3863 -0.1025 -0.5252
 8967TIP3    H148392   2.143   3.152   5.137  1.7082 -0.5768  2.0497
 8967TIP3    H248393   2.093   3.279   5.203 -1.3191  1.0734 -2.8862
 8968TIP3   OH248394   3.789   5.773   2.858  0.2415 -0.5165  0.1769
 8968TIP3    H148395   3.731   5.722   2.801 -1.4827  0.8707  0.5703
 8968TIP3    H248396   3.786   5.861   2.821  1.3413 -0.2021  0.8089
 8969TIP3   OH248397   5.329   5.495  13.182 -0.0936 -0.0193  0.2605
 8969TIP3    H148398   5.315   5.513  13.275 -2.1768  1.3625 -0.2680
 8969TIP3    H248399   5.376   5.572  13.150 -1.0394  0.3797 -0.1917
 8970TIP3   OH248400   1.756   2.401   6.057 -0.0123 -0.3344 -0.0492
 8970TIP3    H148401   1.666   2.431   6.074  0.8959  1.6122  1.7517
 8970TIP3    H248402   1.809   2.480   6.059  1.7317 -1.3744 -1.5879
 8971TIP3   OH248403   1.166   1.703  14.240  0.0175  0.3986  0.3041
 8971TIP3    H148404   1.102   1.724  14.307 -1.5095 -0.8460 -0.6887
 8971TIP3    H248405   1.248   1.690  14.288 -0.0545  3.4826  1.4290
 8972TIP3   OH248406   2.213   5.410  12.147 -0.4793  0.5146  0.5275
 8972TIP3    H148407   2.187   5.343  12.209 -1.1923 -0.7349 -1.0327
 8972TIP3    H248408   2.216   5.365  12.062  0.0885  2.2057 -0.4152
 8973TIP3   OH248409   4.199   1.327  11.179  0.1805 -0.6024 -0.0088
 8973TIP3    H148410   4.103   1.324  11.172  0.3121 -0.3309 -3.5794
 8973TIP3    H248411   4.222   1.245  11.222 -1.6126 -0.8982  0.5014
 8974TIP3   OH248412   1.242   3.944   3.941 -0.0319 -0.3577  0.5119
 8974TIP3    H148413   1.280   3.971   4.024  2.5410 -1.9763 -0.0147
 8974TIP3    H248414   1.309   3.967   3.876 -1.6250  0.1330 -1.0564
 8975TIP3   OH248415   6.655   3.236   6.034 -0.3065  0.1340 -0.1605
 8975TIP3    H148416   6.621   3.161   5.984 -1.5320  0.2342  0.4894
 8975TIP3    H248417   6.704   3.196   6.105  2.7474 -0.0276 -2.1632
 8976TIP3   OH248418   5.945   4.935   2.940 -0.0158 -0.1651  0.4023
 8976TIP3    H148419   5.932   4.842   2.920 -1.4510 -0.4352  2.2941
 8976TIP3    H248420   5.859   4.974   2.926  0.4798  0.8196  0.0101
 8977TIP3   OH248421   4.820   4.037  13.412 -0.2870 -0.1375  0.5512
 8977TIP3    H148422   4.795   4.115  13.461  0.9950  0.3038  0.5180
 8977TIP3    H248423   4.915   4.030  13.422  0.1293  0.2216 -2.1640
 8978TIP3   OH248424   4.718   4.853  13.431 -0.0779 -0.8333 -0.1857
 8978TIP3    H148425   4.677   4.889  13.352 -0.1230  2.0047  0.9907
 8978TIP3    H248426   4.812   4.854  13.412 -0.1690 -1.6100 -0.7189
 8979TIP3   OH248427   5.621   0.293  12.166  0.8112  0.3971 -0.4937
 8979TIP3    H148428   5.581   0.217  12.208  0.2540  1.3675  0.8118
 8979TIP3    H248429   5.548   0.335  12.119  0.9739  0.4843 -0.6686
 8980TIP3   OH248430   0.755   6.351   4.978 -0.4038 -0.1010  0.5034
 8980TIP3    H148431   0.664   6.319   4.973 -0.2305 -0.4304 -0.9658
 8980TIP3    H248432   0.806   6.274   5.002 -0.3975 -0.1275  0.4038
 8981TIP3   OH248433   5.631   4.202   2.112  0.3360 -0.0554  0.7869
 8981TIP3    H148434   5.644   4.252   2.032 -2.9716  1.8249  1.2437
 8981TIP3    H248435   5.575   4.129   2.086  2.4379 -1.7730  0.7704
 8982TIP3   OH248436   2.808   0.363  15.819 -0.0603 -0.3178  0.3497
 8982TIP3    H148437   2.819   0.435  15.757  0.1523  0.1841  0.9623
 8982TIP3    H248438   2.897   0.341  15.846 -0.0659 -1.3616 -0.4492
 8983TIP3   OH248439   0.123   3.588   0.113  0.5141  0.2618 -0.5792
 8983TIP3    H148440   0.207   3.553   0.139  0.7242  1.5046  0.5176
 8983TIP3    H248441   0.066   3.574   0.189 -0.3493 -0.7397 -1.3740
 8984TIP3   OH248442   5.171   0.128  11.708  0.3169  0.3883 -0.3538
 8984TIP3    H148443   5.227   0.131  11.786  0.8613  0.5000 -0.7451
 8984TIP3    H248444   5.083   0.116  11.743  0.6188 -0.1371  0.2517
 8985TIP3   OH248445   5.501   5.926   5.337  0.2409  0.2172 -0.1858
 8985TIP3    H148446   5.532   5.876   5.261 -0.1241 -0.2756 -0.0164
 8985TIP3    H248447   5.569   5.913   5.403  0.2346  0.0918 -0.2027
 8986TIP3   OH248448   5.514   2.155   5.298  0.1188  0.5505 -0.5169
 8986TIP3    H148449   5.609   2.156   5.304  0.1385  0.9488 -0.8811
 8986TIP3    H248450   5.491   2.062   5.296  0.3990  0.4124  1.1282
 8987TIP3   OH248451   0.431   0.441  14.328  0.3652 -0.3886  0.8302
 8987TIP3    H148452   0.479   0.447  14.245 -1.0792  0.6472  0.0307
 8987TIP3    H248453   0.347   0.403  14.305 -0.3168  0.5555  1.6909
 8988TIP3   OH248454   2.078   5.373   0.915  0.3593  0.5805  0.3495
 8988TIP3    H148455   2.115   5.417   0.838 -0.6723  0.5687 -0.1697
 8988TIP3    H248456   2.152   5.326   0.954  0.8980  0.5831 -0.6356
 8989TIP3   OH248457   4.118   4.681   2.470 -0.5427 -0.3226 -0.0395
 8989TIP3    H148458   4.140   4.669   2.563 -2.5702 -0.6730  0.4507
 8989TIP3    H248459   4.063   4.606   2.449 -2.0851  0.9837 -0.8520
 8990TIP3   OH248460   0.640   4.633   0.615 -0.4605 -0.5816  0.5377
 8990TIP3    H148461   0.560   4.592   0.648  0.4983 -0.7745  2.7982
 8990TIP3    H248462   0.662   4.700   0.680  1.0109 -0.2854 -0.2210
 8991TIP3   OH248463   3.224   4.820  11.706 -0.4203 -0.9305  0.3253
 8991TIP3    H148464   3.151   4.777  11.661 -0.5336 -0.2623 -0.1510
 8991TIP3    H248465   3.188   4.905  11.732  0.8223  0.3910 -1.9361
 8992TIP3   OH248466   2.740   3.162   2.381  0.2309  0.0635 -0.1638
 8992TIP3    H148467   2.713   3.102   2.311  1.2805 -1.0853  0.3866
 8992TIP3    H248468   2.665   3.219   2.394 -0.8448 -1.2049 -0.6284
 8993TIP3   OH248469   2.019   6.460   4.853 -0.3527  0.2142 -0.6105
 8993TIP3    H148470   1.929   6.472   4.823 -1.1460 -0.2053  1.4192
 8993TIP3    H248471   2.039   6.541   4.901  0.6489  0.6158 -1.6583
 8994TIP3   OH248472   3.922   0.581   5.628 -0.0948 -0.1919  0.6466
 8994TIP3    H148473   3.850   0.522   5.607 -1.5880  1.1108  1.8410
 8994TIP3    H248474   4.001   0.532   5.604 -1.3736 -1.2649 -1.6624
 8995TIP3   OH248475   4.169   4.341  12.391 -0.0779  0.4001  0.6124
 8995TIP3    H148476   4.080   4.368  12.414 -0.9098 -0.9851 -0.7483
 8995TIP3    H248477   4.216   4.339  12.474 -1.0584  1.9880  1.2495
 8996TIP3   OH248478   4.052   0.048   3.873  0.9938  0.6228  0.1524
 8996TIP3    H148479   4.053   0.018   3.782 -1.4967  1.0381 -0.1002
 8996TIP3    H248480   4.040  -0.031   3.925  0.5424  0.5619 -0.0401
 8997TIP3   OH248481   0.557   1.088  14.079 -0.1247  0.1563  0.3715
 8997TIP3    H148482   0.505   1.033  14.137  0.8632 -0.1434  1.0083
 8997TIP3    H248483   0.588   1.159  14.135  0.3818  0.1739  0.0756
 8998TIP3   OH248484   1.420   0.459  15.793 -0.0891  0.5200 -0.1418
 8998TIP3    H148485   1.429   0.434  15.885 -0.7037 -1.4556 -0.5794
 8998TIP3    H248486   1.464   0.390  15.745 -0.5990  1.0282 -1.3708
 8999TIP3   OH248487   6.131   2.729  12.603 -0.1498 -0.0294  0.0042
 8999TIP3    H148488   6.221   2.735  12.637  0.0532 -0.9457 -0.3430
 8999TIP3    H248489   6.138   2.670  12.528 -1.2783 -1.2661  0.8443
 9000TIP3   OH248490   6.349   0.100  13.091 -0.1809 -0.4045 -0.1147
 9000TIP3    H148491   6.415   0.045  13.051  0.1248 -0.4007  0.3771
 9000TIP3    H248492   6.267   0.052  13.080  0.0806 -0.9591  0.3022
 9001TIP3   OH248493   0.867   1.950  12.480  1.1404 -0.7721 -0.4875
 9001TIP3    H148494   0.777   1.978  12.500  1.5453 -0.1474  0.5830
 9001TIP3    H248495   0.916   2.032  12.473  1.8051 -1.1252 -0.0972
 9002TIP3   OH248496   3.835   3.542   0.766  0.1804  0.2716 -0.4953
 9002TIP3    H148497   3.863   3.528   0.856  0.4979  0.0114 -0.6323
 9002TIP3    H248498   3.901   3.497   0.713  0.7323  1.5079 -0.9026
 9003TIP3   OH248499   3.930   6.441   6.073  0.5302  0.3219  0.4209
 9003TIP3    H148500   3.909   6.520   6.023  0.8069 -0.2514 -0.6329
 9003TIP3    H248501   3.904   6.369   6.015  1.0774 -0.3630  1.0170
 9004TIP3   OH248502   2.380   4.777  13.612 -0.1742 -0.2198  0.7148
 9004TIP3    H148503   2.308   4.744  13.559 -0.2958  0.7325  0.2692
 9004TIP3    H248504   2.459   4.747  13.567 -0.2714  0.8234 -0.1956
 9005TIP3   OH248505   6.787   2.707   0.102 -0.2381  0.6341 -0.7341
 9005TIP3    H148506   6.765   2.800   0.097  0.3933  0.9903  1.7382
 9005TIP3    H248507   6.835   2.698   0.185 -0.9937 -2.0354 -0.4848
 9006TIP3   OH248508   1.679   3.710   5.613  0.3403 -0.0148  0.7137
 9006TIP3    H148509   1.596   3.662   5.612  0.3858 -0.1043 -0.5478
 9006TIP3    H248510   1.727   3.676   5.537  2.0589 -0.8643  2.0941
 9007TIP3   OH248511   2.287   2.850   1.434 -0.4736  0.0481 -0.0164
 9007TIP3    H148512   2.340   2.784   1.389 -0.7454 -0.8405  0.9225
 9007TIP3    H248513   2.342   2.928   1.437  0.9282 -0.9413  1.2047
 9008TIP3   OH248514   4.621   4.776   6.804 -0.0389 -0.3107  0.3030
 9008TIP3    H148515   4.533   4.814   6.802 -0.1075 -0.4864 -0.1658
 9008TIP3    H248516   4.665   4.814   6.729  0.4147  0.0649  0.7507
 9009TIP3   OH248517   3.872   2.088  10.580 -0.0345 -0.0791 -0.1185
 9009TIP3    H148518   3.847   2.155  10.517  2.0410  0.5304 -0.3711
 9009TIP3    H248519   3.944   2.041  10.538 -1.0904 -2.1706  0.2746
 9010TIP3   OH248520   2.160   2.244   1.817 -0.6948  0.0198 -0.1874
 9010TIP3    H148521   2.121   2.317   1.864  0.5052 -0.4595  1.6658
 9010TIP3    H248522   2.133   2.166   1.866  1.6114 -0.4008  0.5587
 9011TIP3   OH248523   2.720   0.226  13.051  0.6330  0.7995  0.3292
 9011TIP3    H148524   2.745   0.252  12.963 -0.8557 -0.8237 -0.6420
 9011TIP3    H248525   2.780   0.155  13.074 -1.1503 -1.2660 -0.9306
 9012TIP3   OH248526   0.835   5.206  16.313 -0.9598  0.3668  0.2416
 9012TIP3    H148527   0.763   5.174  16.259 -0.2555 -0.8234 -0.0402
 9012TIP3    H248528   0.861   5.130  16.366  1.2611  0.1828 -0.9809
 9013TIP3   OH248529   1.163   6.822   1.820 -0.0249 -0.1697 -0.1786
 9013TIP3    H148530   1.108   6.893   1.786  0.2961  0.9185  1.4384
 9013TIP3    H248531   1.102   6.757   1.853 -0.3215 -0.1224 -0.6261
 9014TIP3   OH248532   2.308   1.093  16.200 -0.2218 -0.0374 -0.6985
 9014TIP3    H148533   2.261   1.110  16.282  0.8375 -0.1884 -0.0438
 9014TIP3    H248534   2.316   0.998  16.196  0.4538  0.0061 -0.5439
 9015TIP3   OH248535   0.419   4.280   3.409  0.5994  0.5531 -0.4005
 9015TIP3    H148536   0.481   4.324   3.351  1.2047  0.5882  0.2589
 9015TIP3    H248537   0.354   4.242   3.350  1.2037  0.5784 -1.1051
 9016TIP3   OH248538   6.359   5.466  13.402  0.1958 -1.0351  0.3906
 9016TIP3    H148539   6.289   5.403  13.420  0.3484 -1.5732 -0.8226
 9016TIP3    H248540   6.437   5.412  13.388  0.7407 -0.4664  1.1641
 9017TIP3   OH248541   0.174   1.242  14.314  0.1355  0.2093 -0.6781
 9017TIP3    H148542   0.262   1.271  14.338 -0.4778  1.7158 -0.1429
 9017TIP3    H248543   0.152   1.176  14.381 -0.0979  1.6476  0.7187
 9018TIP3   OH248544   6.171   0.498  15.467 -0.0944  0.2416  0.4761
 9018TIP3    H148545   6.224   0.459  15.397 -1.1732  0.5156 -0.5375
 9018TIP3    H248546   6.082   0.473  15.446 -0.5279  1.0199  1.3106
 9019TIP3   OH248547   5.426   6.184   5.439 -0.4304  0.0508 -0.1420
 9019TIP3    H148548   5.501   6.242   5.451 -0.0162 -0.6253  0.6479
 9019TIP3    H248549   5.465   6.098   5.420 -0.9278 -0.6333  1.6984
 9020TIP3   OH248550   4.424   5.461  11.844  0.1929 -0.5185  0.2499
 9020TIP3    H148551   4.341   5.498  11.814 -0.9285 -2.1940  1.1074
 9020TIP3    H248552   4.446   5.512  11.922 -0.4908 -0.5837  0.4994
 9021TIP3   OH248553   0.418   5.706  14.814  0.2029 -0.4034  0.9247
 9021TIP3    H148554   0.496   5.749  14.779 -1.5903 -0.1740 -3.4238
 9021TIP3    H248555   0.446   5.617  14.836  2.1395  0.4090  1.9133
 9022TIP3   OH248556   6.463   3.230   2.096 -0.0850 -0.1455  0.2172
 9022TIP3    H148557   6.515   3.302   2.061 -0.0012  0.3100  1.2181
 9022TIP3    H248558   6.521   3.153   2.092  0.1025  0.0154 -0.1394
 9023TIP3   OH248559   4.830   2.944   2.990  0.0980  0.2369 -0.4826
 9023TIP3    H148560   4.788   2.872   3.037 -0.3709  1.0178  0.3223
 9023TIP3    H248561   4.760   2.980   2.935  0.7456 -0.9436 -2.1753
 9024TIP3   OH248562   1.110   5.400  13.456  0.4269  0.4643 -0.5633
 9024TIP3    H148563   1.127   5.306  13.465  1.1498  0.5352 -1.0639
 9024TIP3    H248564   1.132   5.419  13.365  0.7212  1.2001 -0.3441
 9025TIP3   OH248565   0.316   3.687  16.867 -0.3732  0.0663 -0.3362
 9025TIP3    H148566   0.340   3.625  16.936 -2.2212  0.1969  0.4596
 9025TIP3    H248567   0.400   3.717  16.832  0.6453  0.6344  2.3969
 9026TIP3   OH248568   6.020   6.677  13.392  0.1661  0.2603  0.6408
 9026TIP3    H148569   6.086   6.747  13.393 -0.8938  1.3369 -0.7088
 9026TIP3    H248570   6.038   6.626  13.471  1.4577  1.6042  1.2614
 9027TIP3   OH248571   3.387   5.353   3.655  0.0607  0.2346  0.7785
 9027TIP3    H148572   3.476   5.383   3.670 -0.2840  0.2144  3.2931
 9027TIP3    H248573   3.342   5.429   3.618  1.3835 -0.2120 -2.0590
 9028TIP3   OH248574   1.929   3.788  16.781 -0.4443 -0.1630  0.3134
 9028TIP3    H148575   1.953   3.880  16.769 -0.7874 -0.0491  0.4552
 9028TIP3    H248576   2.012   3.740  16.778 -0.3687  0.0075 -0.9778
 9029TIP3   OH248577   2.428   0.205  14.612 -0.4821 -0.7525  0.2080
 9029TIP3    H148578   2.469   0.269  14.555 -0.3315  0.5201  1.6812
 9029TIP3    H248579   2.389   0.141  14.552 -1.3173  1.1110 -1.3622
 9030TIP3   OH248580   2.336   0.164   4.400 -0.5100  0.1343 -0.8905
 9030TIP3    H148581   2.338   0.108   4.322  2.1701 -0.4755 -0.4810
 9030TIP3    H248582   2.300   0.247   4.369 -3.0852 -1.2357 -1.8683
 9031TIP3   OH248583   6.409   3.590  13.652  0.4458 -0.0834 -0.0509
 9031TIP3    H148584   6.384   3.509  13.697  0.9857 -0.7134 -0.8679
 9031TIP3    H248585   6.330   3.617  13.607  0.5178 -0.6996 -0.5692
 9032TIP3   OH248586   2.211   5.685  14.488 -0.1006 -0.0711 -0.0795
 9032TIP3    H148587   2.156   5.764  14.488  0.7304  0.5237 -0.7938
 9032TIP3    H248588   2.192   5.643  14.404 -0.0133 -0.2494 -0.0097
 9033TIP3   OH248589   4.916   6.389   0.242  0.5320 -0.1202 -0.7297
 9033TIP3    H148590   5.012   6.382   0.249  0.4004 -0.6613  0.9045
 9033TIP3    H248591   4.902   6.443   0.164  2.2128  0.9844 -0.3239
 9034TIP3   OH248592   1.472   1.618   1.344 -0.5034 -0.0543 -0.0432
 9034TIP3    H148593   1.543   1.557   1.366  0.6870  1.3043  0.0573
 9034TIP3    H248594   1.505   1.665   1.267 -1.8507 -0.2535 -0.7718
 9035TIP3   OH248595   0.248   1.114  11.936  0.7351  0.3906  0.0525
 9035TIP3    H148596   0.262   1.054  12.008  1.1239 -1.5236 -1.5279
 9035TIP3    H248597   0.326   1.169  11.935 -0.1027  1.7549  2.1769
 9036TIP3   OH248598   4.642   2.951  10.876 -0.0851  0.5037 -0.2472
 9036TIP3    H148599   4.658   2.862  10.906  1.8578  0.5141 -1.0713
 9036TIP3    H248600   4.647   2.946  10.781 -0.8410  1.3592 -0.3542
 9037TIP3   OH248601   4.792   0.251   3.062  0.8273  0.2149 -0.1936
 9037TIP3    H148602   4.885   0.271   3.065  0.7997  0.4072 -0.5016
 9037TIP3    H248603   4.749   0.335   3.076  0.6992  0.9962 -4.1863
 9038TIP3   OH248604   2.406   0.740   2.329  0.6272  0.2752 -0.1646
 9038TIP3    H148605   2.415   0.776   2.241  0.2063  1.8135  0.3895
 9038TIP3    H248606   2.463   0.794   2.383  0.2661 -0.1381  0.6489
 9039TIP3   OH248607   5.796   2.833   6.047 -0.2890 -0.5748 -0.6140
 9039TIP3    H148608   5.836   2.861   5.965 -0.9505  0.9158 -0.4719
 9039TIP3    H248609   5.703   2.853   6.037 -0.4541 -0.8179  0.3156
 9040TIP3   OH248610   4.319   6.302   4.197 -0.1491  0.1375 -0.0502
 9040TIP3    H148611   4.399   6.352   4.209  1.2560 -1.6469 -1.4615
 9040TIP3    H248612   4.345   6.210   4.204 -2.3123 -0.4946  0.7388
 9041TIP3   OH248613   3.409   6.667  16.812  0.2210 -0.4659  0.2858
 9041TIP3    H148614   3.361   6.648  16.892  1.3387 -1.4473  0.7453
 9041TIP3    H248615   3.362   6.741  16.773 -2.1176 -1.8304  0.3165
 9042TIP3   OH248616   6.262   5.692  13.586  0.1053  0.1743 -0.1765
 9042TIP3    H148617   6.335   5.673  13.527 -0.7114 -1.5225 -0.7098
 9042TIP3    H248618   6.300   5.748  13.653  1.7210 -0.0585 -0.8430
 9043TIP3   OH248619   4.418   1.395   5.205  0.3509 -0.3431  0.1663
 9043TIP3    H148620   4.379   1.480   5.223 -0.4019 -0.9728  1.6780
 9043TIP3    H248621   4.419   1.389   5.109 -1.0552  0.6970  0.0500
 9044TIP3   OH248622   6.093   5.944   4.326  1.1166  0.2018  0.1779
 9044TIP3    H148623   6.111   5.959   4.419 -0.5940 -2.4835  1.0623
 9044TIP3    H248624   6.174   5.905   4.292  1.4884  0.4897  0.7156
 9045TIP3   OH248625   1.563   1.675   3.842 -0.0668 -0.3791 -0.0954
 9045TIP3    H148626   1.593   1.587   3.864  3.5682  0.5079 -0.7406
 9045TIP3    H248627   1.578   1.726   3.922  0.3205  0.1306 -0.4845
 9046TIP3   OH248628   4.355   0.634  14.405  0.0119 -1.0343 -0.1927
 9046TIP3    H148629   4.289   0.606  14.341  1.8883  0.0871 -2.8367
 9046TIP3    H248630   4.413   0.559  14.414  0.5024 -0.7668 -0.9508
 9047TIP3   OH248631   3.612   2.856   0.585  0.5700  0.1695  0.3916
 9047TIP3    H148632   3.652   2.925   0.638  1.5516 -0.4833  0.5344
 9047TIP3    H248633   3.668   2.780   0.600 -0.0961 -0.4666 -0.3068
 9048TIP3   OH248634   3.958   2.862   3.050 -0.4417 -0.2060  0.0796
 9048TIP3    H148635   3.950   2.797   3.120 -0.7510 -0.0864  0.1574
 9048TIP3    H248636   3.998   2.815   2.977 -0.7878 -0.5166  0.0903
 9049TIP3   OH248637   1.657   4.857   4.605 -0.7867  0.0455 -0.4263
 9049TIP3    H148638   1.725   4.821   4.548 -1.0038 -2.2506  0.6461
 9049TIP3    H248639   1.702   4.920   4.661  0.0450 -0.0008 -1.0294
 9050TIP3   OH248640   5.712   5.492  13.326  0.0100 -0.4120 -0.4009
 9050TIP3    H148641   5.785   5.455  13.376 -0.0811  0.0435  0.0796
 9050TIP3    H248642   5.637   5.489  13.386  0.4213  2.2856  0.3784
 9051TIP3   OH248643   1.294   6.620  10.629 -0.2354  1.0256  0.5043
 9051TIP3    H148644   1.213   6.607  10.677 -0.2381  0.2127  0.2955
 9051TIP3    H248645   1.301   6.715  10.618 -0.7964  1.1427  1.1294
 9052TIP3   OH248646   3.484   4.817  11.569 -0.4187  0.5429 -0.4393
 9052TIP3    H148647   3.496   4.912  11.574 -0.0703  0.4189  2.1183
 9052TIP3    H248648   3.416   4.797  11.633 -0.9797 -0.8796 -1.4286
 9053TIP3   OH248649   2.532   6.453  15.102  0.3643 -0.4682 -0.4475
 9053TIP3    H148650   2.504   6.367  15.134 -1.7530  1.0080  2.0706
 9053TIP3    H248651   2.623   6.461  15.129 -0.2538 -0.8420  1.9621
 9054TIP3   OH248652   3.762   1.771  16.987 -0.8209  0.2673  0.0031
 9054TIP3    H148653   3.845   1.818  16.995 -0.3678 -0.3595 -0.8483
 9054TIP3    H248654   3.695   1.840  16.986 -0.1958  0.8803 -0.9045
 9055TIP3   OH248655   3.326   6.568  13.741 -0.4380  0.4794 -0.4873
 9055TIP3    H148656   3.365   6.490  13.701  1.2166  1.2340 -0.4398
 9055TIP3    H248657   3.323   6.632  13.670  0.5281  1.1422  0.0429
 9056TIP3   OH248658   5.715   4.334   4.056  0.2254  0.2467  0.2394
 9056TIP3    H148659   5.622   4.353   4.068  0.4104  0.2065  2.0851
 9056TIP3    H248660   5.759   4.411   4.090  0.8857 -0.8962  2.1090
 9057TIP3   OH248661   1.163   0.552   3.011  0.6126 -0.6158 -0.1793
 9057TIP3    H148662   1.238   0.522   3.063 -0.0446  0.4645  1.4842
 9057TIP3    H248663   1.163   0.647   3.022 -0.6945 -0.5464 -0.5631
 9058TIP3   OH248664   2.895   3.611  14.796  0.2112 -0.2787  1.1062
 9058TIP3    H148665   2.961   3.672  14.764 -1.4556  1.4410  0.7515
 9058TIP3    H248666   2.823   3.618  14.733 -0.3952 -2.0026  1.5318
 9059TIP3   OH248667   0.789   3.053  11.754 -0.0454 -0.5238  0.7024
 9059TIP3    H148668   0.830   3.028  11.837  1.0739  0.1675  0.3821
 9059TIP3    H248669   0.792   2.973  11.702 -0.4850 -0.8830  1.2168
 9060TIP3   OH248670   3.607   6.391  12.856 -0.4088  0.6097  0.1279
 9060TIP3    H148671   3.693   6.355  12.837 -1.1592 -1.2350  0.0128
 9060TIP3    H248672   3.589   6.363  12.946 -1.6367 -0.6625 -0.4779
 9061TIP3   OH248673   5.861   3.885   3.725  0.3118  0.1470 -0.2401
 9061TIP3    H148674   5.775   3.909   3.691 -0.4131  2.1433  2.6009
 9061TIP3    H248675   5.852   3.794   3.753 -1.0405  0.4477  0.3805
 9062TIP3   OH248676   3.837   2.371  14.932  0.4055 -0.2770  0.7587
 9062TIP3    H148677   3.919   2.377  14.883  0.4233  0.2707  0.8454
 9062TIP3    H248678   3.779   2.320  14.876  0.0311  1.3478 -0.4254
 9063TIP3   OH248679   4.282   3.772   2.154 -0.3621 -0.5136 -0.1080
 9063TIP3    H148680   4.278   3.814   2.239 -0.0788 -1.2920  0.3057
 9063TIP3    H248681   4.201   3.722   2.147  0.9967 -3.1282  1.1908
 9064TIP3   OH248682   2.127   4.039  13.553 -0.1755 -0.1842 -0.4251
 9064TIP3    H148683   2.049   4.033  13.610 -0.2370  2.2446 -0.1240
 9064TIP3    H248684   2.200   4.020  13.611 -0.4264 -0.4904 -0.2057
 9065TIP3   OH248685   3.135   3.761   1.898 -0.1897  0.2851 -0.1754
 9065TIP3    H148686   3.173   3.812   1.827  0.1605  1.1745  0.6285
 9065TIP3    H248687   3.049   3.734   1.865  0.7654 -1.0815 -1.7127
 9066TIP3   OH248688   1.873   0.814   2.114  0.0102 -0.6031 -0.4905
 9066TIP3    H148689   1.940   0.748   2.132  0.2763 -0.4534 -0.9084
 9066TIP3    H248690   1.888   0.882   2.180  0.7947 -0.1893 -1.0815
 9067TIP3   OH248691   5.372   1.931  12.137  0.0186  0.6142  0.2318
 9067TIP3    H148692   5.319   1.906  12.212 -1.0281 -2.2140 -1.2993
 9067TIP3    H248693   5.321   1.999  12.093 -0.3331  0.8415  0.9749
 9068TIP3   OH248694   2.779   2.353   1.457  0.3109 -0.3853 -0.6203
 9068TIP3    H148695   2.761   2.328   1.366 -1.7441 -0.1687 -0.3304
 9068TIP3    H248696   2.700   2.328   1.504  0.9719  0.3606  0.9379
 9069TIP3   OH248697   5.369   3.947  12.507  0.0166 -0.5316  0.3204
 9069TIP3    H148698   5.366   3.970  12.600  0.5894 -3.7584  1.2437
 9069TIP3    H248699   5.459   3.966  12.481  0.8681 -2.6986  1.4191
 9070TIP3   OH248700   0.706   0.926   1.817 -0.2195  0.7749 -0.2128
 9070TIP3    H148701   0.677   0.894   1.902  0.2065 -0.3489 -0.4740
 9070TIP3    H248702   0.755   1.006   1.837  2.4439 -1.0112  0.9537
 9071TIP3   OH248703   5.138   3.572   6.388 -0.2014 -0.2758  0.1472
 9071TIP3    H148704   5.191   3.506   6.433  2.5444  2.2081  0.8252
 9071TIP3    H248705   5.131   3.644   6.451 -2.4083  0.4702 -0.8603
 9072TIP3   OH248706   1.712   4.617  12.991  0.0264  0.2455  0.9173
 9072TIP3    H148707   1.711   4.694  12.934  1.3151  0.3507  1.0104
 9072TIP3    H248708   1.805   4.600  13.007 -0.2147 -1.4354  0.7525
 9073TIP3   OH248709   4.170   0.246   1.835 -0.1200 -0.2999 -0.2786
 9073TIP3    H148710   4.075   0.257   1.832 -0.2982 -1.5073  0.5287
 9073TIP3    H248711   4.187   0.195   1.914  1.2311  0.1297 -0.2561
 9074TIP3   OH248712   3.679   5.185  11.497  0.3647  0.8639  0.4562
 9074TIP3    H148713   3.688   5.250  11.567 -1.8640  1.3005  0.4246
 9074TIP3    H248714   3.603   5.215  11.446 -0.2853 -1.3460  0.0060
 9075TIP3   OH248715   6.033   4.531  16.229 -0.0924 -0.2657  0.2094
 9075TIP3    H148716   6.124   4.512  16.250 -0.3580 -1.9827 -0.0621
 9075TIP3    H248717   5.988   4.448  16.242 -1.8313  0.8024  1.3879
 9076TIP3   OH248718   3.455   6.714   3.017 -0.3578 -0.3618  0.3571
 9076TIP3    H148719   3.538   6.696   3.061 -0.8994 -2.0533  0.7317
 9076TIP3    H248720   3.388   6.696   3.083 -1.1572 -2.3980 -0.9290
 9077TIP3   OH248721   4.337   0.839   1.465  0.5243 -0.8620 -0.2910
 9077TIP3    H148722   4.367   0.929   1.452 -1.1633 -0.0706  0.9317
 9077TIP3    H248723   4.307   0.811   1.378  0.7145 -0.1218 -0.6039
 9078TIP3   OH248724   0.698   1.380  17.171  0.2604  0.1371  0.0726
 9078TIP3    H148725   0.680   1.343  17.257  0.1118 -0.3978 -0.1848
 9078TIP3    H248726   0.611   1.402  17.135  0.1888 -1.1208 -0.5842
 9079TIP3   OH248727   3.086   6.515  14.400 -0.2621  0.5758  0.1087
 9079TIP3    H148728   3.001   6.530  14.359 -0.2985 -1.1780 -0.5741
 9079TIP3    H248729   3.137   6.593  14.379 -0.3292 -0.1498 -3.2593
 9080TIP3   OH248730   5.369   0.337   3.107 -0.2029 -0.1354  0.0774
 9080TIP3    H148731   5.378   0.304   3.018 -2.7450  0.2159 -0.3857
 9080TIP3    H248732   5.450   0.385   3.123  0.0520  0.3491 -2.3033
 9081TIP3   OH248733   4.915   1.950  15.674  0.2181 -0.2657  0.1146
 9081TIP3    H148734   4.857   1.895  15.622 -1.9567 -1.1689  3.2250
 9081TIP3    H248735   4.870   2.034  15.682  0.1028 -0.4065  1.1493
 9082TIP3   OH248736   4.605   1.153   5.537  0.4369 -0.0833 -0.1488
 9082TIP3    H148737   4.624   1.183   5.448  1.1100 -0.7115 -0.2249
 9082TIP3    H248738   4.531   1.093   5.527  1.0958 -0.8650 -0.4151
 9083TIP3   OH248739   6.775   4.761   0.419 -0.4900  0.1427 -0.0548
 9083TIP3    H148740   6.863   4.735   0.391 -0.0511  3.1678 -1.8817
 9083TIP3    H248741   6.716   4.709   0.363 -0.1548 -3.3852  2.4895
 9084TIP3   OH248742   3.052   1.678  16.003 -0.1900  0.6139 -0.4770
 9084TIP3    H148743   3.117   1.724  16.055 -0.4233  0.0687  0.3182
 9084TIP3    H248744   3.040   1.733  15.926  0.3881  1.2821 -0.1070
 9085TIP3   OH248745   1.647   6.128   4.659 -0.3549  0.1621  0.0284
 9085TIP3    H148746   1.661   6.216   4.695 -1.4935 -0.0302  1.0218
 9085TIP3    H248747   1.724   6.111   4.604  1.0444  0.8427  1.6946
 9086TIP3   OH248748   1.997   3.427  15.044  0.5471 -0.3730 -0.5819
 9086TIP3    H148749   1.904   3.442  15.025  0.5069 -0.9918 -0.9126
 9086TIP3    H248750   2.031   3.384  14.965  0.8234 -1.2853  0.0126
 9087TIP3   OH248751   3.458   2.480   3.921  0.2058 -0.3725 -0.3439
 9087TIP3    H148752   3.505   2.554   3.961  0.1447  0.1930 -1.2944
 9087TIP3    H248753   3.524   2.411   3.915  1.4142  0.8748 -2.9973
 9088TIP3   OH248754   3.953   3.295   0.401 -0.4226  0.1159 -0.1806
 9088TIP3    H148755   4.038   3.307   0.360 -0.1580 -0.6767  0.1107
 9088TIP3    H248756   3.930   3.382   0.434  0.4748  0.2547  0.1102
 9089TIP3   OH248757   5.712   4.120   6.188 -0.0033  0.3881  0.6287
 9089TIP3    H148758   5.625   4.117   6.227  0.8823 -0.4551  2.7248
 9089TIP3    H248759   5.744   4.208   6.206 -0.7004  0.9716 -0.8757
 9090TIP3   OH248760   1.935   0.828  11.971  0.2281  0.3092  0.4681
 9090TIP3    H148761   1.915   0.816  11.878 -0.1621  0.7028  0.5003
 9090TIP3    H248762   2.023   0.866  11.972  0.5069 -0.3012  0.2876
 9091TIP3   OH248763   1.604   6.607  11.030  0.1498  0.5728 -0.7548
 9091TIP3    H148764   1.544   6.574  10.963  1.1363  0.3128 -1.5439
 9091TIP3    H248765   1.585   6.701  11.034 -0.1387  0.5389 -1.1718
 9092TIP3   OH248766   5.717   4.050   4.361 -0.5753 -0.0387  0.0977
 9092TIP3    H148767   5.717   3.996   4.441 -1.9684 -0.6576 -0.3026
 9092TIP3    H248768   5.809   4.078   4.352  0.3586 -2.8388 -0.0154
 9093TIP3   OH248769   4.790   2.426  12.979 -0.4113  0.3162  0.3061
 9093TIP3    H148770   4.792   2.373  12.899  0.4752  1.0148 -0.1416
 9093TIP3    H248771   4.758   2.512  12.950  0.0255  0.6053  0.6841
 9094TIP3   OH248772   3.682   6.728   0.124 -0.1867 -0.1918 -0.0763
 9094TIP3    H148773   3.766   6.761   0.092  0.0508  0.3590  1.0682
 9094TIP3    H248774   3.633   6.707   0.045  1.0250 -0.5142 -0.7552
 9095TIP3   OH248775   2.779   4.474  15.758  0.4617 -0.2568 -0.3132
 9095TIP3    H148776   2.845   4.527  15.713  0.9580 -1.3203 -0.8679
 9095TIP3    H248777   2.808   4.384  15.747 -0.0522 -0.6303  1.1222
 9096TIP3   OH248778   1.478   2.918   2.190 -0.6305  0.8820  0.3675
 9096TIP3    H148779   1.420   2.950   2.260 -0.5026 -0.1620  0.9749
 9096TIP3    H248780   1.465   2.824   2.190  0.0149  0.7839 -0.4643
 9097TIP3   OH248781   0.437   3.423  16.981 -0.5188 -0.0210 -0.3172
 9097TIP3    H148782   0.455   3.338  17.021 -1.0102  0.1141  0.2052
 9097TIP3    H248783   0.434   3.405  16.887  0.0564 -0.4536 -0.2589
 9098TIP3   OH248784   1.873   1.372  15.969  0.2563 -0.4521  0.1838
 9098TIP3    H148785   1.850   1.358  15.878 -0.7124  0.4603  0.2705
 9098TIP3    H248786   1.802   1.331  16.019  0.3759 -0.2677  0.5122
 9099TIP3   OH248787   0.674   0.745  11.593 -0.2717 -0.2768 -0.4483
 9099TIP3    H148788   0.719   0.816  11.640 -1.3665  0.2508 -0.1796
 9099TIP3    H248789   0.722   0.737  11.511  1.2128 -0.6983  0.4118
 9100TIP3   OH248790   0.888   6.537  12.750 -0.4333  0.4524 -0.1810
 9100TIP3    H148791   0.964   6.479  12.753  0.3732  1.3906 -1.2519
 9100TIP3    H248792   0.843   6.522  12.833 -1.2117 -2.8808 -1.0698
 9101TIP3   OH248793   4.629   0.056   2.549  0.1159 -0.1835 -0.2228
 9101TIP3    H148794   4.659   0.035   2.638 -0.4815 -1.8708 -0.3862
 9101TIP3    H248795   4.536   0.076   2.561 -0.0856 -0.9230 -0.5301
 9102TIP3   OH248796   5.790   4.769   2.384  0.0228  0.4072 -0.3896
 9102TIP3    H148797   5.769   4.862   2.378  2.8896  1.2740  1.2512
 9102TIP3    H248798   5.879   4.766   2.418  1.4395 -2.9111 -3.6375
 9103TIP3   OH248799   4.020   2.019   3.701  0.1510 -0.2855  0.3784
 9103TIP3    H148800   4.069   1.991   3.624  1.2090 -2.2261  1.6597
 9103TIP3    H248801   4.023   2.114   3.698  1.0850 -0.3168 -1.3820
 9104TIP3   OH248802   5.698   3.678  16.434  0.5728  0.1723 -0.6740
 9104TIP3    H148803   5.786   3.706  16.408  1.1177  1.0929  1.8765
 9104TIP3    H248804   5.641   3.751  16.410  1.0722  1.0408  0.6734
 9105TIP3   OH248805   4.405   1.511   4.142 -0.1112  0.3097  0.1226
 9105TIP3    H148806   4.454   1.591   4.163  0.7035 -0.6725  2.1991
 9105TIP3    H248807   4.336   1.541   4.082  0.7260  2.3974  0.1069
 9106TIP3   OH248808   1.621   0.714  10.700 -0.5455 -0.1025  0.3933
 9106TIP3    H148809   1.686   0.764  10.650 -0.4755 -0.2128  0.3741
 9106TIP3    H248810   1.646   0.727  10.791 -1.1711  0.7895  0.4434
 9107TIP3   OH248811   4.829   1.161   2.803 -0.8812  0.9398 -0.7883
 9107TIP3    H148812   4.872   1.092   2.854 -1.3621  0.8223 -0.5359
 9107TIP3    H248813   4.901   1.216   2.772 -0.6206  1.4452  0.6509
 9108TIP3   OH248814   4.075   2.864   3.873  0.2001  0.4284  0.4043
 9108TIP3    H148815   4.162   2.905   3.875  0.6727 -0.4036 -1.1805
 9108TIP3    H248816   4.093   2.771   3.853 -0.9981  0.0381  1.0524
 9109TIP3   OH248817   1.819   5.002   5.489 -0.2128 -0.0577 -0.3392
 9109TIP3    H148818   1.802   5.083   5.537  2.2352  0.5926 -0.4386
 9109TIP3    H248819   1.775   4.934   5.540  0.7410  0.8728  1.8536
 9110TIP3   OH248820   0.783   5.999  16.711  0.0584 -0.0409  0.0786
 9110TIP3    H148821   0.870   6.032  16.734 -0.3125  0.7543  0.3859
 9110TIP3    H248822   0.779   5.913  16.752  1.0203 -0.4754 -0.6762
 9111TIP3   OH248823   2.745   3.859  13.375 -0.0833 -0.2210  0.9155
 9111TIP3    H148824   2.685   3.795  13.337 -0.8517 -0.9677  3.1817
 9111TIP3    H248825   2.832   3.826  13.356 -0.4646 -1.2990  0.9879
 9112TIP3   OH248826   2.633   6.276  15.733 -0.0887  0.5467  0.1779
 9112TIP3    H148827   2.555   6.310  15.689  0.0764  0.7526  0.0454
 9112TIP3    H248828   2.599   6.237  15.814 -0.5124 -0.6498 -0.5400
 9113TIP3   OH248829   6.475   5.193   3.119 -0.4162  0.4449 -0.0449
 9113TIP3    H148830   6.444   5.115   3.073 -0.4402  1.0897 -1.1414
 9113TIP3    H248831   6.403   5.217   3.177 -0.2331 -0.6022  0.6490
 9114TIP3   OH248832   3.006   2.662  14.901  0.6868  0.5339  0.4863
 9114TIP3    H148833   2.949   2.677  14.977  0.2139  2.4988 -0.1863
 9114TIP3    H248834   2.950   2.615  14.839  0.2135  1.2430  0.3604
 9115TIP3   OH248835   2.541   1.122   1.199 -0.3398  0.6467  0.8560
 9115TIP3    H148836   2.471   1.121   1.264  0.6512  0.0237  1.9651
 9115TIP3    H248837   2.533   1.037   1.155 -0.4430  0.6779  0.8152
 9116TIP3   OH248838   1.442   3.653   1.827  0.3634  0.2619  0.2345
 9116TIP3    H148839   1.499   3.729   1.818  1.0513 -0.2139  0.5026
 9116TIP3    H248840   1.427   3.623   1.738  0.1236  0.6800  0.1300
 9117TIP3   OH248841   0.922   3.223  16.693  0.0123  0.1968  0.0073
 9117TIP3    H148842   0.855   3.246  16.756 -0.7366  0.2093 -0.7782
 9117TIP3    H248843   0.990   3.290  16.705 -0.2034  0.3055  0.6595
 9118TIP3   OH248844   4.308   1.025  10.843 -0.5196 -0.2515 -0.1650
 9118TIP3    H148845   4.372   0.955  10.853 -0.5186 -0.0586  1.4437
 9118TIP3    H248846   4.336   1.093  10.905 -0.3421  1.3334 -1.8775
 9119TIP3   OH248847   6.156   4.529   1.582 -0.7909  0.4490 -0.5386
 9119TIP3    H148848   6.081   4.513   1.524 -1.1919 -0.1842  0.1386
 9119TIP3    H248849   6.177   4.442   1.617 -1.0299  0.9215  0.8215
 9120TIP3   OH248850   0.133   2.742   0.328  0.6469  0.2677 -0.7115
 9120TIP3    H148851   0.093   2.766   0.412  1.1096 -0.8601 -0.1497
 9120TIP3    H248852   0.176   2.658   0.345 -0.3916 -0.6778 -2.4254
 9121TIP3   OH248853   4.535   1.038  15.431  0.5003 -0.2558  0.1379
 9121TIP3    H148854   4.491   1.094  15.495  1.6307  1.1678 -0.2743
 9121TIP3    H248855   4.614   1.087  15.407  1.7916 -2.2633  0.1100
 9122TIP3   OH248856   5.537   0.153  12.419 -0.0188  0.0088  0.4790
 9122TIP3    H148857   5.580   0.068  12.435 -0.1741  0.1951  2.1457
 9122TIP3    H248858   5.602   0.218  12.449 -0.2709  0.4339  0.1120
 9123TIP3   OH248859   2.315   2.288  12.616  0.6491  0.4424 -0.5260
 9123TIP3    H148860   2.238   2.333  12.581  0.7478 -0.0121 -1.3402
 9123TIP3    H248861   2.339   2.225  12.548  0.3170 -1.0786  0.7122
 9124TIP3   OH248862   4.279   3.975  15.389  0.1069  0.2187  0.0587
 9124TIP3    H148863   4.308   4.054  15.343  1.4434 -1.4750 -2.2642
 9124TIP3    H248864   4.202   4.002  15.438  0.6124  2.9741 -0.5026
 9125TIP3   OH248865   3.766   4.232  13.379  1.1094  0.2611 -0.3813
 9125TIP3    H148866   3.776   4.155  13.323 -0.3385 -1.2518  1.2877
 9125TIP3    H248867   3.824   4.215  13.454 -0.3390  0.0240  0.7238
 9126TIP3   OH248868   2.119   5.147  11.451 -0.2784 -0.1342 -0.6522
 9126TIP3    H148869   2.202   5.146  11.403 -0.3272 -1.1347 -0.7317
 9126TIP3    H248870   2.106   5.057  11.480 -1.6183 -0.1218 -1.1265
 9127TIP3   OH248871   4.879   2.118   1.263  0.6189 -0.0609  0.3920
 9127TIP3    H148872   4.863   2.207   1.297 -0.5797  0.0562 -0.4208
 9127TIP3    H248873   4.967   2.122   1.227  0.5717  0.8139  0.3394
 9128TIP3   OH248874   4.555   1.248   2.789  0.9510 -0.2978  0.0956
 9128TIP3    H148875   4.561   1.324   2.732 -0.6018 -0.4825 -0.3670
 9128TIP3    H248876   4.642   1.208   2.785  0.4463 -1.4312 -3.7541
 9129TIP3   OH248877   5.226   3.353   3.039  0.1533  0.2788  0.9310
 9129TIP3    H148878   5.145   3.403   3.027  0.6609  0.8436 -0.3662
 9129TIP3    H248879   5.294   3.408   3.002  0.5628 -1.8899 -1.9281
 9130TIP3   OH248880   0.528   6.044   2.133  0.2986 -0.0557  0.1402
 9130TIP3    H148881   0.522   6.127   2.085 -2.2254 -0.1834  0.1010
 9130TIP3    H248882   0.528   5.977   2.064 -0.8452 -0.1582  0.2221
 9131TIP3   OH248883   0.312   0.372   2.042  0.0512 -0.0467  0.3875
 9131TIP3    H148884   0.297   0.342   1.953  1.4387 -0.8067  0.3841
 9131TIP3    H248885   0.349   0.297   2.088  1.1549  0.8675  1.0775
 9132TIP3   OH248886   1.521   1.807  13.423  0.1523  0.4923 -0.0200
 9132TIP3    H148887   1.465   1.794  13.346  0.6017  0.1050 -0.2948
 9132TIP3    H248888   1.604   1.838  13.386 -0.1942  2.0371  0.4619
 9133TIP3   OH248889   2.499   0.021  16.092  0.2642 -0.3396  0.6877
 9133TIP3    H148890   2.459  -0.037  16.156 -0.4454 -0.0383  0.5315
 9133TIP3    H248891   2.427   0.044  16.032  0.7676 -0.1186  0.1556
 9134TIP3   OH248892   0.969   3.231  13.743  0.3747 -0.6105 -0.5166
 9134TIP3    H148893   0.987   3.173  13.818  1.5064  1.6221  1.0596
 9134TIP3    H248894   1.046   3.221  13.687  0.6659 -0.5010 -0.1457
 9135TIP3   OH248895   6.011   6.562  16.711  0.0571  0.0690 -0.7612
 9135TIP3    H148896   6.057   6.637  16.675  0.9446 -0.3175 -0.4638
 9135TIP3    H248897   6.013   6.575  16.805  0.2361 -0.3285 -0.7055
 9136TIP3   OH248898   2.410   5.323  14.954  0.1528 -0.0887  0.4130
 9136TIP3    H148899   2.338   5.386  14.959 -0.4482 -0.8326  1.3482
 9136TIP3    H248900   2.387   5.266  14.881 -0.3058 -0.4287  0.8144
 9137TIP3   OH248901   5.049   1.041   1.189 -0.2531  0.1569 -0.3760
 9137TIP3    H148902   4.984   1.005   1.249 -1.3958  1.7770 -0.5704
 9137TIP3    H248903   5.003   1.112   1.144  2.0450  2.3370  0.5177
 9138TIP3   OH248904   0.527   0.640  11.095  0.0373 -0.1675  0.3073
 9138TIP3    H148905   0.508   0.675  11.008 -0.6423 -1.1959  0.0264
 9138TIP3    H248906   0.622   0.649  11.104 -0.1565  2.1569  0.4590
 9139TIP3   OH248907   1.057   3.849  12.773  0.0580  0.4149  0.2262
 9139TIP3    H148908   1.082   3.796  12.696 -0.0104  0.7541 -0.0294
 9139TIP3    H248909   1.140   3.867  12.817  0.0702 -0.0018  0.3770
 9140TIP3   OH248910   4.509   2.437  10.810 -0.2412  0.7194  0.6681
 9140TIP3    H148911   4.485   2.464  10.899  0.7332 -1.2618  1.5924
 9140TIP3    H248912   4.580   2.496  10.786  0.5363  0.3081  1.8567
 9141TIP3   OH248913   6.793   2.284  14.171 -0.7071  0.1961  0.3688
 9141TIP3    H148914   6.777   2.266  14.079  0.9377  0.8537 -0.0727
 9141TIP3    H248915   6.731   2.227  14.217 -0.2246 -1.6183 -1.0893
 9142TIP3   OH248916   5.818   2.712   1.285  0.2821  0.2652 -0.0023
 9142TIP3    H148917   5.802   2.739   1.194 -0.4647 -1.1158 -0.3151
 9142TIP3    H248918   5.865   2.629   1.277  0.4371  0.2581  0.8839
 9143TIP3   OH248919   5.734   2.599   3.143  0.1563 -0.0572 -0.0343
 9143TIP3    H148920   5.693   2.583   3.058 -1.6994 -0.8004  0.9169
 9143TIP3    H248921   5.666   2.642   3.195  0.1638 -2.1696  1.9310
 9144TIP3   OH248922   5.410   0.246  13.291 -0.2945 -0.1853 -0.2681
 9144TIP3    H148923   5.330   0.296  13.306  0.8549  1.6812  0.0706
 9144TIP3    H248924   5.381   0.157  13.275 -2.2811 -0.1678  2.6011
 9145TIP3   OH248925   4.635   1.848   2.928 -0.4437  0.1955  0.2388
 9145TIP3    H148926   4.652   1.805   2.845 -0.2560 -0.4244  0.5939
 9145TIP3    H248927   4.541   1.864   2.929 -0.4002  0.5009 -0.2275
 9146TIP3   OH248928   4.139   6.467   2.294  0.1561  0.2071 -0.5133
 9146TIP3    H148929   4.064   6.472   2.236 -0.1316  0.6771 -0.1137
 9146TIP3    H248930   4.101   6.458   2.382  0.5878 -1.2537 -0.4527
 9147TIP3   OH248931   0.115   2.766  11.633 -0.3117 -0.0294  0.0344
 9147TIP3    H148932   0.139   2.780  11.541  0.4396  1.4683  0.4346
 9147TIP3    H248933   0.128   2.851  11.675  0.9594 -1.0834  1.8992
 9148TIP3   OH248934   0.962   1.601  15.642 -0.8095 -0.2492  0.3944
 9148TIP3    H148935   0.942   1.531  15.704 -1.2639 -0.5187 -0.0452
 9148TIP3    H248936   1.056   1.596  15.629 -0.9681 -1.5236 -0.4806
 9149TIP3   OH248937   2.947   5.763  11.843 -0.5101 -0.0563  0.4692
 9149TIP3    H148938   2.872   5.707  11.863  1.0344 -3.2958 -1.7625
 9149TIP3    H248939   3.012   5.740  11.909 -1.0424  2.0418  1.8184
 9150TIP3   OH248940   0.441   1.826  15.749 -0.0719 -0.5409 -0.4469
 9150TIP3    H148941   0.451   1.740  15.790  0.0365 -0.9967 -1.4118
 9150TIP3    H248942   0.503   1.826  15.677  1.2411  1.0377  0.5977
 9151TIP3   OH248943   5.551   5.646   1.089  0.4559 -0.6219  0.3990
 9151TIP3    H148944   5.628   5.608   1.131  0.1243 -1.5813  0.1777
 9151TIP3    H248945   5.575   5.650   0.996  1.5784  2.4335  0.6993
 9152TIP3   OH248946   1.080   0.997  15.491  0.2998  0.2252  0.3374
 9152TIP3    H148947   1.045   0.920  15.535 -0.4589  0.2615 -0.1873
 9152TIP3    H248948   1.115   0.964  15.408  2.5163  0.0116  1.2694
 9153TIP3   OH248949   0.022   2.768   3.928 -0.4717 -0.1579 -0.1949
 9153TIP3    H148950   0.040   2.859   3.954  1.9021 -0.6344  0.0195
 9153TIP3    H248951   0.051   2.716   4.002 -1.9248 -1.1320 -0.2727
 9154TIP3   OH248952   6.742   5.783  15.497  0.4642  0.4154  0.6778
 9154TIP3    H148953   6.807   5.811  15.562  0.2883  1.8803  0.2361
 9154TIP3    H248954   6.674   5.849  15.501 -0.9714 -1.0152  1.0137
 9155TIP3   OH248955   6.070   3.237   5.555 -0.2189  0.2102 -0.4733
 9155TIP3    H148956   6.145   3.264   5.503 -0.3237  2.1937  0.3151
 9155TIP3    H248957   6.016   3.185   5.496  0.0969  1.6564 -2.0972
 9156TIP3   OH248958   0.555   3.531  15.459  0.4756  0.1868  0.3356
 9156TIP3    H148959   0.565   3.570  15.546  3.1925  1.5752 -0.4867
 9156TIP3    H248960   0.545   3.606  15.400 -2.8314 -0.7501 -0.5394
 9157TIP3   OH248961   2.871   0.967  14.132 -0.1242  0.5772  0.1093
 9157TIP3    H148962   2.922   0.917  14.069  0.5817  0.8378  0.4735
 9157TIP3    H248963   2.830   0.901  14.188 -0.5022  0.3551 -0.4177
 9158TIP3   OH248964   6.823   1.527  16.970  0.3220  0.2622  0.0952
 9158TIP3    H148965   6.731   1.545  16.989  0.6407  0.9368  1.0687
 9158TIP3    H248966   6.869   1.550  17.051  1.0883 -2.3270  0.4887
 9159TIP3   OH248967   0.536   4.559  15.741 -0.0220 -0.1330 -0.3713
 9159TIP3    H148968   0.449   4.588  15.713 -0.3116 -2.6847 -2.5452
 9159TIP3    H248969   0.521   4.476  15.785  1.2079  0.2071  0.7460
 9160TIP3   OH248970   2.810   6.288  12.412  0.1677 -0.3234 -0.1357
 9160TIP3    H148971   2.857   6.206  12.404  1.3217 -0.0464  2.6616
 9160TIP3    H248972   2.877   6.356  12.401  0.3423  0.0892  2.6918
 9161TIP3   OH248973   2.182   2.030  11.488  0.0451  0.1577  0.3648
 9161TIP3    H148974   2.257   1.984  11.449 -2.1669 -1.5856 -2.2409
 9161TIP3    H248975   2.178   2.113  11.441  1.3212  1.0749  1.7949
 9162TIP3   OH248976   5.768   4.179  16.999 -0.0729 -0.2199  0.3894
 9162TIP3    H148977   5.699   4.161  16.934  0.1657  0.8995 -0.2007
 9162TIP3    H248978   5.846   4.135  16.963  0.1544  0.7118 -0.3113
 9163TIP3   OH248979   1.029   4.337  17.071  0.0819  0.4305 -0.0429
 9163TIP3    H148980   1.108   4.374  17.111 -1.1174  1.4171  1.4970
 9163TIP3    H248981   0.958   4.392  17.102 -1.7435 -2.6793  1.7347
 9164TIP3   OH248982   6.636   6.606  12.307 -0.3834  0.0241  0.4854
 9164TIP3    H148983   6.578   6.577  12.236 -2.7925 -0.1354  2.3738
 9164TIP3    H248984   6.681   6.682  12.271 -0.1871 -1.0660 -1.7784
 9165TIP3   OH248985   0.261   2.572   2.561  0.1404 -0.4642 -0.2460
 9165TIP3    H148986   0.316   2.578   2.640  1.4867  0.3772 -1.1968
 9165TIP3    H248987   0.287   2.648   2.509 -0.1136 -1.4699 -1.8857
 9166TIP3   OH248988   1.939   1.792   5.751  0.9132 -0.2411  0.9052
 9166TIP3    H148989   1.940   1.855   5.823 -3.4088 -0.3635  1.3133
 9166TIP3    H248990   1.921   1.708   5.793 -1.7219 -0.3128 -0.1927
 9167TIP3   OH248991   5.410   1.912   1.005 -0.2663  0.2474 -0.3186
 9167TIP3    H148992   5.498   1.879   1.016  1.0165  3.0115 -1.2388
 9167TIP3    H248993   5.371   1.855   0.938  1.1546 -0.4256 -0.6034
 9168TIP3   OH248994   0.410   2.803  15.855 -0.2996 -0.1258 -0.1657
 9168TIP3    H148995   0.423   2.882  15.908 -3.2737  0.6422 -0.3956
 9168TIP3    H248996   0.371   2.740  15.916 -2.5909  0.3481 -1.0327
 9169TIP3   OH248997   4.892   1.893  12.976 -0.0482  0.1951  0.2474
 9169TIP3    H148998   4.832   1.879  12.903  2.7554  0.7774 -2.3847
 9169TIP3    H248999   4.889   1.987  12.992 -0.7724  0.0488  1.0426
 9170TIP3   OH249000   2.155   4.538  14.919 -0.2533 -0.4562 -0.2564
 9170TIP3    H149001   2.226   4.474  14.909 -3.2250 -3.9534 -1.1508
 9170TIP3    H249002   2.115   4.517  15.003 -0.3562  1.4438  0.2227
 9171TIP3   OH249003   1.312   1.864  11.362 -0.5663  0.0265  0.1679
 9171TIP3    H149004   1.318   1.812  11.443 -0.9363  2.9884  2.2693
 9171TIP3    H249005   1.345   1.805  11.294  0.8903 -2.2641  2.6105
 9172TIP3   OH249006   0.645   3.709  13.789 -0.0252 -0.0652 -0.0321
 9172TIP3    H149007   0.665   3.691  13.881  1.4000 -0.1223 -0.3320
 9172TIP3    H249008   0.667   3.628  13.743  0.0707  0.2298 -0.5220
 9173TIP3   OH249009   3.827   2.049   5.041 -0.0465 -0.1111  0.2135
 9173TIP3    H149010   3.828   2.113   4.971 -1.7769 -0.4164 -0.1500
 9173TIP3    H249011   3.825   2.101   5.122 -0.5699  0.2805 -0.0493
 9174TIP3   OH249012   6.085   5.319   1.181 -0.2827 -0.1839  0.0105
 9174TIP3    H149013   6.164   5.367   1.205  0.1114 -0.6750 -0.2788
 9174TIP3    H249014   6.056   5.278   1.263 -0.5746  0.4561  0.2414
 9175TIP3   OH249015   6.213   0.759  10.970 -0.6993 -0.1593  0.5314
 9175TIP3    H149016   6.202   0.667  10.995  0.3231 -0.6605 -0.7165
 9175TIP3    H249017   6.178   0.764  10.881 -0.6381  0.6322  0.5436
 9176TIP3   OH249018   3.604   3.580   6.192  0.0774  0.3087 -0.1781
 9176TIP3    H149019   3.537   3.525   6.151  1.3646 -0.6819 -1.0242
 9176TIP3    H249020   3.587   3.572   6.286  1.6602 -3.5735 -0.0643
 9177TIP3   OH249021   2.222   4.519   4.157  0.1296  0.1404 -0.4530
 9177TIP3    H149022   2.263   4.454   4.212 -0.9018 -0.3691 -0.2521
 9177TIP3    H249023   2.206   4.474   4.074 -0.4659  0.1642 -0.3572
 9178TIP3   OH249024   5.568   0.509  14.354 -0.1788  0.1106 -0.1054
 9178TIP3    H149025   5.641   0.553  14.397 -0.8711 -1.3563  2.8559
 9178TIP3    H249026   5.609   0.439  14.302  0.5783 -0.3482  1.0778
 9179TIP3   OH249027   1.646   0.254  13.572 -0.1676 -0.4092  0.0752
 9179TIP3    H149028   1.698   0.277  13.495  2.1218 -0.3927  1.5467
 9179TIP3    H249029   1.632   0.159  13.564 -0.2575 -0.3466 -0.5280
 9180TIP3   OH249030   4.449   1.090   4.046 -0.0246 -0.3787 -0.2074
 9180TIP3    H149031   4.497   1.020   4.001  0.3620  0.6593 -1.4824
 9180TIP3    H249032   4.389   1.124   3.980  1.6885  2.2664 -0.5609
 9181TIP3   OH249033   2.057   2.188   2.300  0.2355 -0.2492 -0.1702
 9181TIP3    H149034   2.148   2.200   2.272  0.3260  0.1989  0.2907
 9181TIP3    H249035   2.008   2.182   2.219  0.7140 -0.8243 -0.4288
 9182TIP3   OH249036   1.572   2.783  15.140 -0.0877 -0.1467 -0.5223
 9182TIP3    H149037   1.495   2.726  15.143  0.2904 -0.6348  0.4423
 9182TIP3    H249038   1.646   2.723  15.131  0.1160  0.4002 -3.2817
 9183TIP3   OH249039   4.942   3.943  15.377 -0.4288 -0.3811  0.1170
 9183TIP3    H149040   4.865   3.990  15.410  0.1560  0.1407  0.7471
 9183TIP3    H249041   4.913   3.907  15.293 -0.8022  1.3667 -0.5501
 9184TIP3   OH249042   5.032   6.079   2.679  0.4027  0.1173  0.0507
 9184TIP3    H149043   4.995   6.102   2.594  0.5423  2.0437  0.4504
 9184TIP3    H249044   5.108   6.024   2.659 -0.0296 -0.1077 -1.0120
 9185TIP3   OH249045   3.418   3.928   0.910 -0.1493 -0.0725  0.5693
 9185TIP3    H149046   3.388   4.003   0.962  1.7527  0.9405  0.2932
 9185TIP3    H249047   3.471   3.876   0.972  0.0096 -0.2344  0.2982
 9186TIP3   OH249048   3.297   5.803  16.130  0.4142  0.2355 -0.3102
 9186TIP3    H149049   3.250   5.856  16.194 -1.2765  0.7284 -1.8763
 9186TIP3    H249050   3.390   5.816  16.152 -0.0805  0.9563  1.5412
 9187TIP3   OH249051   1.010   3.210  17.052  0.0598 -0.2943 -0.1677
 9187TIP3    H149052   0.968   3.130  17.020  0.9523 -0.6167 -0.5612
 9187TIP3    H249053   0.943   3.277  17.045 -0.4601 -0.8484 -0.5664
 9188TIP3   OH249054   6.628   1.932  15.238 -0.6422  0.7057  0.1432
 9188TIP3    H149055   6.534   1.939  15.222 -0.5680  1.3727 -0.0508
 9188TIP3    H249056   6.638   1.955  15.331 -0.6370  1.0260  0.0671
 9189TIP3   OH249057   2.547   2.074  15.948 -0.4879 -0.3402  0.2852
 9189TIP3    H149058   2.484   2.134  15.907  0.2892  1.3720  1.4874
 9189TIP3    H249059   2.498   2.035  16.020 -0.4282  0.3647  0.7146
 9190TIP3   OH249060   3.711   4.380   0.407  0.4090  0.5937  0.1552
 9190TIP3    H149061   3.715   4.430   0.326  2.1916  3.5894  1.9299
 9190TIP3    H249062   3.799   4.343   0.417  0.0978 -0.0519  0.5925
 9191TIP3   OH249063   5.537   4.008   4.886  0.3555 -0.0233  0.6353
 9191TIP3    H149064   5.590   3.934   4.858 -0.7248 -0.4657 -0.3390
 9191TIP3    H249065   5.544   4.072   4.815  0.1390  0.2031  0.8143
 9192TIP3   OH249066   5.727   2.407   5.046 -0.4480  0.0306  0.1520
 9192TIP3    H149067   5.809   2.393   5.093 -0.6522  0.8947  0.7927
 9192TIP3    H249068   5.753   2.452   4.966 -0.3746  1.1761  0.8009
 9193TIP3   OH249069   3.318   1.887  13.339 -0.6790 -0.2957 -0.1861
 9193TIP3    H149070   3.378   1.947  13.386 -0.1751 -0.0709 -1.0922
 9193TIP3    H249071   3.255   1.945  13.297 -1.3234 -0.5154  0.4528
 9194TIP3   OH249072   1.597   5.639   4.970 -0.1833  0.4285 -0.4649
 9194TIP3    H149073   1.526   5.581   4.997  0.3706  0.8161  2.0659
 9194TIP3    H249074   1.645   5.589   4.904 -1.9730 -0.3879 -1.2166
 9195TIP3   OH249075   3.502   0.274   5.173 -0.8800  0.0931 -0.0688
 9195TIP3    H149076   3.555   0.262   5.094 -0.2458  1.6031  0.1017
 9195TIP3    H249077   3.502   0.187   5.214 -0.3824 -0.4696 -1.2019
 9196TIP3   OH249078   6.623   5.295   0.016 -0.6225 -0.3123  0.1348
 9196TIP3    H149079   6.642   5.382  -0.020  0.0212 -1.0530 -1.3921
 9196TIP3    H249080   6.709   5.253   0.024 -0.7134 -0.2011  2.6364
 9197TIP3   OH249081   1.475   3.542   4.740 -0.6548 -0.2196 -0.8622
 9197TIP3    H149082   1.550   3.491   4.710 -0.6658 -0.3086 -0.7384
 9197TIP3    H249083   1.491   3.631   4.707  0.4903  0.2542  0.8115
 9198TIP3   OH249084   2.467   2.216  11.029  0.0275  0.2426  0.1912
 9198TIP3    H149085   2.549   2.214  10.979 -0.3004 -0.6029 -0.3419
 9198TIP3    H249086   2.488   2.170  11.110  0.3057  0.7903  0.4379
 9199TIP3   OH249087   0.546   3.837   1.701  0.1115  0.5430 -0.4040
 9199TIP3    H149088   0.575   3.746   1.694 -0.1942  0.2377  1.6567
 9199TIP3    H249089   0.511   3.844   1.790  1.1679  2.9918 -0.1209
 9200TIP3   OH249090   2.534   0.267   0.991 -0.2878  0.3840  0.6315
 9200TIP3    H149091   2.537   0.182   1.034 -0.5740 -0.8466 -1.6166
 9200TIP3    H249092   2.458   0.312   1.028 -0.1517 -0.3399  1.8085
 9201TIP3   OH249093   4.619   5.391  13.948  0.5816 -0.3285 -0.3536
 9201TIP3    H149094   4.580   5.324  13.892 -0.0153 -0.2318 -0.0549
 9201TIP3    H249095   4.709   5.400  13.915  0.7686 -1.4708 -0.2276
 9202TIP3   OH249096   4.692   0.407   4.999  0.4052  0.2626  0.1717
 9202TIP3    H149097   4.741   0.328   5.022  0.3783  0.4749  1.0059
 9202TIP3    H249098   4.620   0.376   4.944  1.0263 -0.1477 -0.4137
 9203TIP3   OH249099   6.137   6.749  13.046  0.1830 -0.1940 -0.5174
 9203TIP3    H149100   6.045   6.757  13.071  0.4152  2.8380 -0.3130
 9203TIP3    H249101   6.137   6.759  12.951  0.5082  3.8301 -0.2297
 9204TIP3   OH249102   6.150   1.849  15.450  0.0272 -0.0740  0.4351
 9204TIP3    H149103   6.106   1.787  15.391  0.3422  0.2528 -0.1475
 9204TIP3    H249104   6.146   1.933  15.404  3.3488 -0.4601 -0.7731
 9205TIP3   OH249105   4.013   5.829  11.064 -0.1015  0.0129  0.1851
 9205TIP3    H149106   4.095   5.786  11.039  0.4009  0.4873  0.9721
 9205TIP3    H249107   3.961   5.760  11.106 -0.1237 -0.2912 -0.3267
 9206TIP3   OH249108   1.773   1.843  13.309  0.5296 -0.1793  0.2558
 9206TIP3    H149109   1.839   1.904  13.343 -0.1618  1.2302 -0.7987
 9206TIP3    H249110   1.818   1.794  13.241  0.5855  0.5407 -0.2319
 9207TIP3   OH249111   6.144   2.053   0.927 -0.2557  0.2619 -0.2224
 9207TIP3    H149112   6.126   1.959   0.917  0.4530 -0.1036  1.5311
 9207TIP3    H249113   6.064   2.096   0.896 -2.2869 -1.1212  2.6484
 9208TIP3   OH249114   5.907   1.777   2.735 -0.1491  0.9629 -0.3653
 9208TIP3    H149115   5.825   1.810   2.772  0.3462  0.8404  0.8840
 9208TIP3    H249116   5.974   1.801   2.800  0.5976 -0.1959 -0.6788
 9209TIP3   OH249117   2.757   3.495   0.390  0.0060 -0.0038  0.7066
 9209TIP3    H149118   2.677   3.444   0.379  0.3246 -1.0791  2.8820
 9209TIP3    H249119   2.785   3.477   0.479  2.5051  0.6192  0.1289
 9210TIP3   OH249120   1.049   0.271  10.360  0.0358 -0.2234 -0.0153
 9210TIP3    H149121   1.052   0.287  10.454 -0.7754  3.5890 -0.4738
 9210TIP3    H249122   1.133   0.303  10.328 -0.0441 -0.6526 -0.6657
 9211TIP3   OH249123   2.536   4.239  12.497 -0.0976  0.4062  0.0916
 9211TIP3    H149124   2.601   4.247  12.567 -1.2815  0.2342  1.2461
 9211TIP3    H249125   2.574   4.175  12.436  0.3551 -0.4928  1.2813
 9212TIP3   OH249126   5.817   2.384   0.651 -0.4232  0.4279 -0.0775
 9212TIP3    H149127   5.909   2.368   0.629 -0.4219  1.2823 -0.7347
 9212TIP3    H249128   5.771   2.309   0.614 -0.0607  0.3146 -0.3106
 9213TIP3   OH249129   0.436   3.109   1.755  0.1768 -0.1514  0.0534
 9213TIP3    H149130   0.405   3.101   1.846  0.1792  1.6979  0.2556
 9213TIP3    H249131   0.531   3.120   1.764  0.0931  0.7362 -0.1164
 9214TIP3   OH249132   2.283   2.476  14.733 -0.4080  0.1171  0.6853
 9214TIP3    H149133   2.362   2.421  14.736 -0.1718  0.4627  0.8467
 9214TIP3    H249134   2.212   2.416  14.753 -0.5252 -0.8196 -2.1420
 9215TIP3   OH249135   3.540   5.420  14.523  0.4510  0.2136 -0.9033
 9215TIP3    H149136   3.547   5.370  14.442  1.1609  0.4664 -0.9983
 9215TIP3    H249137   3.548   5.512  14.496  0.3628  0.3176 -0.5844
 9216TIP3   OH249138   2.396   1.958  16.209  0.1650  0.3702  1.3403
 9216TIP3    H149139   2.469   1.898  16.190  0.3949  0.8079  0.8048
 9216TIP3    H249140   2.359   1.926  16.291 -0.5184 -1.2988  0.4426
 9217TIP3   OH249141   5.681   5.987   5.556  0.4411  0.3094  0.1988
 9217TIP3    H149142   5.775   6.003   5.570  0.1971  0.2799  2.1800
 9217TIP3    H249143   5.666   5.899   5.591 -0.0730 -0.3109 -1.4957
 9218TIP3   OH249144   1.521   4.523   3.632  0.1347 -0.4158  0.2272
 9218TIP3    H149145   1.607   4.485   3.646 -0.7261 -2.6725 -0.2114
 9218TIP3    H249146   1.491   4.549   3.719  1.7813  1.7754  0.2254
 9219TIP3   OH249147   4.899   3.221   3.953 -0.2535  0.9722 -0.2964
 9219TIP3    H149148   4.988   3.242   3.982 -0.4575  0.7351  0.5308
 9219TIP3    H249149   4.887   3.129   3.976 -1.0557  1.2638  0.5021
 9220TIP3   OH249150   3.530   4.934  16.210 -0.2265  0.0066  0.2384
 9220TIP3    H149151   3.568   4.849  16.233 -1.2279 -0.5151  0.0193
 9220TIP3    H249152   3.459   4.913  16.149  0.2804  1.1010 -0.7716
 9221TIP3   OH249153   3.150   1.291   5.554 -0.0203 -0.3729 -0.2490
 9221TIP3    H149154   3.203   1.312   5.477 -1.0651  1.0273 -0.6211
 9221TIP3    H249155   3.210   1.302   5.628  0.0881  1.9293 -0.6048
 9222TIP3   OH249156   5.394   5.790   4.911 -0.3031  0.7067 -0.2149
 9222TIP3    H149157   5.403   5.851   4.838 -2.8394 -0.1400 -1.3416
 9222TIP3    H249158   5.343   5.838   4.976 -1.6840  0.0860 -0.8053
 9223TIP3   OH249159   1.884   3.539   2.415  0.2614 -0.1152 -0.4948
 9223TIP3    H149160   1.944   3.572   2.482  0.2694  1.5022 -1.2506
 9223TIP3    H249161   1.888   3.605   2.345 -2.5721  0.2005 -0.4644
 9224TIP3   OH249162   3.173   6.309   2.255 -0.4542  0.4555  0.7959
 9224TIP3    H149163   3.156   6.403   2.262 -0.2041  0.4725  1.2575
 9224TIP3    H249164   3.101   6.268   2.304 -1.1374  0.3516 -0.2749
 9225TIP3   OH249165   0.117   5.876   4.170  0.1015 -0.4181  0.7062
 9225TIP3    H149166   0.053   5.811   4.140  0.7693 -0.3023 -1.0961
 9225TIP3    H249167   0.194   5.860   4.117  1.3277 -0.0467  2.3040
 9226TIP3   OH249168   0.532   0.274   3.195  0.5595  0.6101 -0.0949
 9226TIP3    H149169   0.624   0.247   3.201  0.5536  0.8305  1.7751
 9226TIP3    H249170   0.490   0.204   3.144  1.4454 -0.4528  0.5749
 9227TIP3   OH249171   0.791   3.306   4.506  0.6709  0.7176 -0.3495
 9227TIP3    H149172   0.715   3.255   4.534  0.5601 -0.0171 -1.8738
 9227TIP3    H249173   0.765   3.397   4.519 -0.0735  0.4509  0.1183
 9228TIP3   OH249174   2.570   5.083   0.227 -0.3351  0.0821  0.3055
 9228TIP3    H149175   2.579   5.156   0.288  1.2414 -0.1857  0.4405
 9228TIP3    H249176   2.652   5.035   0.235 -0.8881 -1.0706 -0.6103
 9229TIP3   OH249177   6.203   2.653   5.982  0.2714 -0.5557  0.3898
 9229TIP3    H149178   6.120   2.612   6.009 -1.3118  0.5558 -2.3763
 9229TIP3    H249179   6.235   2.597   5.911  0.1362  0.7943 -0.7671
 9230TIP3   OH249180   6.612   5.343  13.355  0.0697  0.3345 -0.1243
 9230TIP3    H149181   6.560   5.263  13.344  0.2685 -0.0224  1.3694
 9230TIP3    H249182   6.692   5.326  13.304  0.1035 -0.4289  0.1594
 9231TIP3   OH249183   6.295   2.554  14.392  0.6886  0.1417 -0.4881
 9231TIP3    H149184   6.378   2.601  14.388  0.1661  1.1123 -0.3774
 9231TIP3    H249185   6.257   2.566  14.304  1.0655 -1.0761 -0.8304
 9232TIP3   OH249186   1.625   6.536  13.823 -0.0107 -0.3007 -0.0891
 9232TIP3    H149187   1.551   6.513  13.878  0.7931 -1.7915  0.4218
 9232TIP3    H249188   1.676   6.597  13.877  0.0228 -0.6353  0.2693
 9233TIP3   OH249189   2.634   1.821   5.604 -0.4912 -0.5348  0.4333
 9233TIP3    H149190   2.689   1.858   5.535  1.3563  3.2400  3.5621
 9233TIP3    H249191   2.547   1.859   5.589  0.1022  0.9435  0.5751
 9234TIP3   OH249192   6.119   2.373   5.672 -0.1713 -0.6277  0.6602
 9234TIP3    H149193   6.182   2.406   5.608 -0.0176 -0.9305  0.6548
 9234TIP3    H249194   6.037   2.418   5.650 -0.2704 -1.1738 -0.1423
 9235TIP3   OH249195   1.972   5.939   0.802  0.2079  0.3506 -0.9069
 9235TIP3    H149196   1.921   5.951   0.883 -0.1714  1.0970 -1.2491
 9235TIP3    H249197   1.964   5.846   0.783 -0.9341  0.4280 -0.8866
 9236TIP3   OH249198   1.602   1.064   5.244  0.2689  0.2689 -0.1621
 9236TIP3    H149199   1.618   1.024   5.158 -2.3351 -0.5661 -0.3484
 9236TIP3    H249200   1.603   1.158   5.227  0.1356  0.1182 -1.0580
 9237TIP3   OH249201   5.578   6.231  12.426 -0.3840 -0.4872  0.3834
 9237TIP3    H149202   5.564   6.137  12.426 -0.9413 -0.4069 -0.1517
 9237TIP3    H249203   5.490   6.269  12.421 -0.1428  0.0560  0.0972
 9238TIP3   OH249204   3.442   5.150   5.078  0.2454 -0.2400 -0.5622
 9238TIP3    H149205   3.458   5.189   5.164 -0.9410 -1.2503  0.1516
 9238TIP3    H249206   3.352   5.118   5.083  0.4606 -1.1133 -1.8700
 9239TIP3   OH249207   6.389   3.048  12.154  0.7339 -0.3698  0.6762
 9239TIP3    H149208   6.316   2.986  12.161  1.0084 -0.6205  1.4249
 9239TIP3    H249209   6.347   3.133  12.142  0.3232 -0.5576  0.7537
 9240TIP3   OH249210   0.757   6.028  15.568  0.3970  0.3478  0.4393
 9240TIP3    H149211   0.805   6.104  15.599 -0.6772  0.6779  1.3506
 9240TIP3    H249212   0.666   6.046  15.588  0.1220 -1.2190  0.7740
 9241TIP3   OH249213   2.256   0.483   1.565  0.4511 -0.2773 -0.0201
 9241TIP3    H149214   2.207   0.502   1.644  1.2556  0.3792  0.3352
 9241TIP3    H249215   2.345   0.463   1.595  0.5726 -0.8315 -0.6948
 9242TIP3   OH249216   6.411   0.333   3.049  0.1542 -0.1703  0.3721
 9242TIP3    H149217   6.451   0.396   3.110 -0.8699  1.7598 -0.8210
 9242TIP3    H249218   6.324   0.370   3.032 -0.8978 -2.5131  0.3886
 9243TIP3   OH249219   1.572   5.989   4.984 -0.3390  0.1677  0.1247
 9243TIP3    H149220   1.481   6.003   4.958 -0.3995  0.2808  0.3912
 9243TIP3    H249221   1.567   5.923   5.053 -0.2299  0.2479  0.2104
 9244TIP3   OH249222   0.621   4.609  11.953 -0.1684 -0.3421 -0.2927
 9244TIP3    H149223   0.556   4.677  11.971 -1.6812 -1.9042  0.4436
 9244TIP3    H249224   0.571   4.540  11.908  1.1128 -1.3483 -0.2290
 9245TIP3   OH249225   2.173   0.586  12.265 -0.8003 -0.8785  0.1990
 9245TIP3    H149226   2.199   0.495  12.280 -0.1696 -0.7576 -0.1442
 9245TIP3    H249227   2.230   0.616  12.194 -1.4968 -0.4343 -0.1843
 9246TIP3   OH249228   3.341   5.138   2.847  0.0327  0.0277 -0.4227
 9246TIP3    H149229   3.403   5.114   2.778  1.1436 -0.1443  0.5919
 9246TIP3    H249230   3.260   5.093   2.822  0.1155  0.7135 -2.0772
 9247TIP3   OH249231   3.524   5.926  16.249 -0.7695  0.0164  0.7925
 9247TIP3    H149232   3.570   5.920  16.333  1.0684 -0.0698 -0.1786
 9247TIP3    H249233   3.563   6.001  16.205 -1.6273 -0.0021 -0.0379
 9248TIP3   OH249234   2.801   5.985  15.086  0.3834  0.0571 -0.5046
 9248TIP3    H149235   2.818   5.964  14.994  2.2221  2.2136 -0.7340
 9248TIP3    H249236   2.843   6.070  15.100  1.1818 -0.7150  2.6339
 9249TIP3   OH249237   2.073   2.775  16.423 -0.1045  0.0278  0.0087
 9249TIP3    H149238   2.128   2.852  16.406  0.1206 -0.2231 -0.4122
 9249TIP3    H249239   1.991   2.795  16.378 -0.0404  0.0189 -0.1155
 9250TIP3   OH249240   4.411   4.136   0.014  0.0125  0.0304 -0.0767
 9250TIP3    H149241   4.372   4.106   0.096  0.6906 -1.6354 -0.3110
 9250TIP3    H249242   4.458   4.215   0.037 -0.6418  0.1505  0.9224
 9251TIP3   OH249243   5.256   6.027  12.053  0.1723 -0.0620  0.2997
 9251TIP3    H149244   5.174   5.979  12.068  0.7422 -1.0981  0.1223
 9251TIP3    H249245   5.321   5.980  12.104  0.3919  1.6813  1.7572
 9252TIP3   OH249246   2.911   2.037   3.241 -0.5303  1.0881 -0.2656
 9252TIP3    H149247   2.857   2.116   3.232 -1.5418  0.4468 -0.0285
 9252TIP3    H249248   2.957   2.030   3.158 -2.7754  0.2548 -1.5444
 9253TIP3   OH249249   2.668   0.209   5.520 -0.2538  0.6874  0.1243
 9253TIP3    H149250   2.603   0.170   5.578  1.0804 -0.1823  1.0675
 9253TIP3    H249251   2.680   0.145   5.450  0.6126  0.1995  0.7089
 9254TIP3   OH249252   5.559   2.272   0.841  0.1525 -0.0230 -0.1464
 9254TIP3    H149253   5.597   2.247   0.757 -0.8065 -2.5527  0.0928
 9254TIP3    H249254   5.631   2.310   0.890  1.6486 -1.8945 -0.7919
 9255TIP3   OH249255   6.147   4.072   3.691  0.2443  0.2403 -0.3108
 9255TIP3    H149256   6.158   3.977   3.693  1.8265  0.4173  0.1219
 9255TIP3    H249257   6.105   4.094   3.774  2.1486  0.1647  0.7042
 9256TIP3   OH249258   0.948   0.530   1.627  0.0982  0.2980 -1.0410
 9256TIP3    H149259   0.977   0.571   1.708  0.4243  0.2267 -1.1215
 9256TIP3    H249260   0.938   0.602   1.565 -1.3978  0.5271 -0.5881
 9257TIP3   OH249261   3.033   4.490   5.545  0.2908 -0.8115 -0.6092
 9257TIP3    H149262   3.081   4.560   5.589  1.0364 -2.4225  1.3613
 9257TIP3    H249263   3.091   4.462   5.474  1.7324 -1.7850  0.8618
 9258TIP3   OH249264   5.664   4.430   1.642  0.3655 -0.1883  0.4602
 9258TIP3    H149265   5.661   4.383   1.726  1.4725  1.8457  1.6954
 9258TIP3    H249266   5.588   4.488   1.645  0.3591 -0.1671 -0.0171
 9259TIP3   OH249267   4.313   4.027   0.252  0.1497 -0.9823 -0.9289
 9259TIP3    H149268   4.227   3.991   0.275  0.2236 -0.5508  0.0632
 9259TIP3    H249269   4.371   3.951   0.250 -0.6171 -1.5972 -3.6548
 9260TIP3   OH249270   6.101   3.520   6.296 -0.0825  0.5700  0.0828
 9260TIP3    H149271   6.079   3.457   6.365  1.2019 -0.0631 -0.0643
 9260TIP3    H249272   6.016   3.548   6.262 -0.8553  1.9855  2.8343
 9261TIP3   OH249273   2.821   1.946   6.365  0.0704  0.6480  0.2950
 9261TIP3    H149274   2.781   1.964   6.450  1.3492 -0.7697  1.2432
 9261TIP3    H249275   2.840   2.032   6.328 -0.7344  1.2821  1.3336
 9262TIP3   OH249276   2.111   1.146   2.472 -0.0292 -0.5604 -0.1630
 9262TIP3    H149277   2.184   1.106   2.424 -0.2057 -0.7886 -0.2456
 9262TIP3    H249278   2.101   1.233   2.434 -0.5000 -0.9299 -0.8896
 9263TIP3   OH249279   3.013   3.431  12.219 -0.0646  0.1326 -0.0400
 9263TIP3    H149280   2.985   3.515  12.255 -1.3287 -0.0153 -0.6253
 9263TIP3    H249281   3.087   3.453  12.162 -1.8136  1.2157 -2.0112
 9264TIP3   OH249282   5.524   4.922   4.541  0.4204 -0.0870  0.3462
 9264TIP3    H149283   5.488   4.996   4.492 -0.2870 -0.1307  0.8028
 9264TIP3    H249284   5.608   4.904   4.497  0.6896  1.0901  0.3414
 9265TIP3   OH249285   6.043   1.900  13.021 -0.1832  0.0112  0.3120
 9265TIP3    H149286   6.049   1.823  13.079  0.3360  0.1630  0.4642
 9265TIP3    H249287   6.117   1.891  12.961  0.0689  0.5511  0.5317
 9266TIP3   OH249288   4.535   2.112  14.709 -0.1833  0.0460  0.3360
 9266TIP3    H149289   4.501   2.156  14.631 -0.6935 -0.6302  0.1678
 9266TIP3    H249290   4.607   2.168  14.738 -0.6000  0.8126 -0.0600
 9267TIP3   OH249291   5.196   2.661  13.585 -0.3687  0.1805  0.2433
 9267TIP3    H149292   5.173   2.680  13.675 -1.2762 -1.2973  0.3490
 9267TIP3    H249293   5.160   2.734  13.534  0.4865  1.2159  1.0905
 9268TIP3   OH249294   3.820   1.261  10.669 -0.3701  0.0884 -0.2111
 9268TIP3    H149295   3.860   1.304  10.594 -0.6285 -1.9790 -1.6191
 9268TIP3    H249296   3.743   1.314  10.690 -0.9390  0.1061 -2.1731
 9269TIP3   OH249297   4.433   4.008   6.517  0.1135  0.0224 -0.3384
 9269TIP3    H149298   4.343   4.026   6.545 -0.2280 -2.2373  0.2373
 9269TIP3    H249299   4.433   3.915   6.497  2.3706 -0.0504 -0.2235
 9270TIP3   OH249300   5.696   6.678   0.295 -0.1961 -0.0332 -0.8138
 9270TIP3    H149301   5.737   6.599   0.261  0.4177  0.8733 -2.3147
 9270TIP3    H249302   5.604   6.670   0.271 -0.5251 -1.1106  0.6939
 9271TIP3   OH249303   0.792   3.456  13.369  0.2854 -0.0084 -0.3681
 9271TIP3    H149304   0.882   3.434  13.343  0.8840  0.8848  0.8500
 9271TIP3    H249305   0.743   3.375  13.355  0.5674  0.2775 -3.8736
 9272TIP3   OH249306   5.899   1.333  12.300  0.9081  0.6361 -0.7907
 9272TIP3    H149307   5.907   1.428  12.286 -1.5278  1.1976  0.9348
 9272TIP3    H249308   5.812   1.322  12.337  1.1901 -2.3043 -0.8114
 9273TIP3   OH249309   1.096   0.254  16.274  0.3973  0.2042  0.3368
 9273TIP3    H149310   1.139   0.170  16.260  2.0010  1.1068 -0.3790
 9273TIP3    H249311   1.074   0.285  16.187 -1.4409 -0.0484  0.6646
 9274TIP3   OH249312   6.513   4.405  11.208 -0.1259 -0.1009  0.0060
 9274TIP3    H149313   6.455   4.417  11.133 -1.3157 -2.0177  0.5428
 9274TIP3    H249314   6.489   4.477  11.267 -1.7901 -0.6731  0.0848
 9275TIP3   OH249315   2.848   1.578  11.237 -0.4354 -0.9783  0.2352
 9275TIP3    H149316   2.817   1.665  11.212 -1.3330 -1.2994  0.1840
 9275TIP3    H249317   2.943   1.588  11.249 -0.3267 -0.2810 -1.0257
 9276TIP3   OH249318   5.035   4.516   5.136  0.1265 -0.1728  0.0267
 9276TIP3    H149319   4.983   4.449   5.092 -1.0536  0.9731 -0.4038
 9276TIP3    H249320   5.029   4.494   5.229  0.7026 -1.2895 -0.1906
 9277TIP3   OH249321   2.433   6.715  16.924 -0.6163 -0.7633 -0.1861
 9277TIP3    H149322   2.472   6.771  16.990  1.5698 -0.7682 -1.3478
 9277TIP3    H249323   2.355   6.678  16.965  0.3646 -0.3685  2.1689
 9278TIP3   OH249324   1.705   0.437   5.492  0.2626 -0.5087  0.4467
 9278TIP3    H149325   1.778   0.472   5.544  0.1936  0.3472 -0.0168
 9278TIP3    H249326   1.632   0.497   5.510 -0.6253 -1.9031  1.6553
 9279TIP3   OH249327   2.469   6.210   5.814 -0.3246 -0.8162 -0.0684
 9279TIP3    H149328   2.470   6.252   5.901  0.1580 -3.7070  1.4530
 9279TIP3    H249329   2.382   6.229   5.779 -0.7171  0.0104  1.2712
 9280TIP3   OH249330   6.549   6.406   1.625 -0.2498  0.0855  0.5503
 9280TIP3    H149331   6.455   6.412   1.639 -0.1197  0.4355  1.3317
 9280TIP3    H249332   6.558   6.367   1.537 -1.1261  1.6874 -0.2939
 9281TIP3   OH249333   1.982   3.389  10.890  0.2932 -0.0156  0.5146
 9281TIP3    H149334   2.073   3.362  10.898  0.2294 -0.2740  0.3561
 9281TIP3    H249335   1.974   3.465  10.949  0.7413  0.3401  0.1207
 9282TIP3   OH249336   1.783   4.840  12.815  0.1543  0.1900 -0.5678
 9282TIP3    H149337   1.866   4.879  12.787  0.6661  0.9529  1.8000
 9282TIP3    H249338   1.729   4.913  12.843 -0.8071 -0.4181 -0.7736
 9283TIP3   OH249339   1.309   5.643  13.361 -0.2307  0.3068  0.2207
 9283TIP3    H149340   1.299   5.571  13.299  0.1088  1.0100 -0.6674
 9283TIP3    H249341   1.232   5.697  13.347 -0.6110 -0.0052  1.0638
 9284TIP3   OH249342   4.226   1.724  14.412 -0.1798 -0.4507 -0.0809
 9284TIP3    H149343   4.217   1.785  14.485  0.9961 -0.3871  0.0326
 9284TIP3    H249344   4.210   1.778  14.334 -0.4631 -0.3010  0.0786
 9285TIP3   OH249345   0.161   5.865  13.477 -0.6224  0.2864  0.1056
 9285TIP3    H149346   0.089   5.813  13.513 -1.2809  0.2285 -1.2493
 9285TIP3    H249347   0.121   5.917  13.408  0.4074  1.1989  0.1794
 9286TIP3   OH249348   6.708   3.483   3.383 -0.0083  0.0968  0.0576
 9286TIP3    H149349   6.637   3.476   3.319 -2.2208  2.2066  2.0505
 9286TIP3    H249350   6.775   3.536   3.339 -0.1573 -0.8821 -1.4281
 9287TIP3   OH249351   5.866   1.079  12.749  0.0764  1.1262 -0.1827
 9287TIP3    H149352   5.822   1.014  12.695  0.9431  0.5655 -0.2323
 9287TIP3    H249353   5.959   1.067  12.730  0.5916 -0.3088  2.6868
 9288TIP3   OH249354   1.356   5.360   0.509 -0.0130  0.2058 -0.4687
 9288TIP3    H149355   1.357   5.271   0.473 -1.0907  0.6416 -1.6803
 9288TIP3    H249356   1.263   5.382   0.515  0.2085  0.8765  0.8185
 9289TIP3   OH249357   4.943   4.458  11.291 -0.0765 -0.5495  0.3264
 9289TIP3    H149358   4.861   4.504  11.308 -0.1644 -0.4486 -0.3583
 9289TIP3    H249359   4.945   4.387  11.355  0.1771  0.5400  1.5618
 9290TIP3   OH249360   4.003   1.284  16.834 -0.4510 -0.3362  0.4878
 9290TIP3    H149361   3.959   1.351  16.782 -0.6187 -0.1780  0.8247
 9290TIP3    H249362   3.934   1.252  16.893 -0.9301 -2.2624 -1.0447
 9291TIP3   OH249363   3.543   0.249  11.577  0.2346  0.2264  0.0188
 9291TIP3    H149364   3.504   0.336  11.571 -0.5263  0.0655  1.9881
 9291TIP3    H249365   3.472   0.189  11.558  0.7806 -0.0099 -1.4289
 9292TIP3   OH249366   6.417   2.350  15.655 -0.0760  0.3075 -0.1325
 9292TIP3    H149367   6.460   2.435  15.653  1.4541 -0.4188  0.4573
 9292TIP3    H249368   6.485   2.289  15.684 -1.2367 -1.0595 -0.1677
 9293TIP3   OH249369   5.344   0.051  17.083  0.1605  0.3941 -0.1287
 9293TIP3    H149370   5.294   0.130  17.064 -0.4259 -0.2795 -1.4552
 9293TIP3    H249371   5.289  -0.021  17.054  0.9775 -0.4882  0.4188
 9294TIP3   OH249372   1.674   1.819   6.228  0.1102 -0.6851  0.1587
 9294TIP3    H149373   1.637   1.889   6.175  1.9424 -1.2947 -2.0949
 9294TIP3    H249374   1.598   1.768   6.257 -1.0208  0.1266 -1.2500
 9295TIP3   OH249375   0.681   2.297   2.571 -0.1995 -0.1300 -0.5892
 9295TIP3    H149376   0.754   2.314   2.631  0.1448 -1.8753 -0.4521
 9295TIP3    H249377   0.610   2.266   2.627 -1.0944  1.5464 -0.7261
 9296TIP3   OH249378   2.175   4.601   2.858  0.4388 -0.3050 -0.7372
 9296TIP3    H149379   2.266   4.621   2.881  0.6788  1.1110 -2.6847
 9296TIP3    H249380   2.167   4.507   2.873  1.9386 -0.2942  0.3473
 9297TIP3   OH249381   2.744   0.760   5.041 -0.5206  0.3336 -0.4100
 9297TIP3    H149382   2.658   0.780   5.079  0.6214 -0.8283  3.2053
 9297TIP3    H249383   2.733   0.674   5.000 -0.6903 -0.8093  1.8862
 9298TIP3   OH249384   5.369   6.651   5.437  0.1392 -0.2140  0.6303
 9298TIP3    H149385   5.433   6.617   5.499  1.6435  1.0155 -0.1922
 9298TIP3    H249386   5.369   6.746   5.452  0.0660  0.0331 -0.8017
 9299TIP3   OH249387   3.736   1.554   4.924  0.1660  0.4764  0.1505
 9299TIP3    H149388   3.704   1.644   4.935 -0.1819  0.4529 -0.6063
 9299TIP3    H249389   3.685   1.502   4.987  3.0585  1.3253  3.5701
 9300TIP3   OH249390   6.105   2.660  11.032 -0.1100  0.4177  0.1453
 9300TIP3    H149391   6.081   2.577  10.992  1.4626  0.3625 -0.7425
 9300TIP3    H249392   6.078   2.651  11.124  3.8426 -2.8887  1.3076
 9301TIP3   OH249393   3.999   2.580   0.759  0.0380  0.1915 -0.3848
 9301TIP3    H149394   4.062   2.649   0.776 -0.8476  0.6667  1.1589
 9301TIP3    H249395   3.957   2.564   0.844  1.6218 -3.7062 -0.1134
 9302TIP3   OH249396   5.748   5.103  12.460  0.1969 -0.8344  0.0319
 9302TIP3    H149397   5.754   5.128  12.367 -1.6862 -1.9466 -0.4336
 9302TIP3    H249398   5.678   5.158  12.495  1.8220  0.5992  1.2238
 9303TIP3   OH249399   6.316   1.686   1.841  0.1556 -0.3326  0.1120
 9303TIP3    H149400   6.360   1.643   1.914  0.7165 -0.3496 -0.2282
 9303TIP3    H249401   6.349   1.642   1.763  2.1503  1.8369 -0.3831
 9304TIP3   OH249402   0.619   1.290  14.895  0.3529  0.8822  0.3510
 9304TIP3    H149403   0.709   1.312  14.919  0.1083  1.0873  1.1058
 9304TIP3    H249404   0.565   1.351  14.945 -0.2339  0.2538  0.5050
 9305TIP3   OH249405   5.892   3.014   2.577  0.0138  0.1131  0.0372
 9305TIP3    H149406   5.846   2.937   2.543 -3.5912  1.8937  0.4416
 9305TIP3    H249407   5.900   2.997   2.671  2.8802 -1.3696 -0.3617
 9306TIP3   OH249408   1.853   1.393  16.298 -0.3201  0.3054 -0.0790
 9306TIP3    H149409   1.921   1.351  16.245 -0.8834 -0.2233 -0.3895
 9306TIP3    H249410   1.893   1.400  16.385 -0.0434 -0.4690 -0.1293
 9307TIP3   OH249411   4.560   5.635   3.616  0.2409  0.2875 -0.1450
 9307TIP3    H149412   4.580   5.718   3.572  0.9191  0.4170  0.4071
 9307TIP3    H249413   4.640   5.584   3.610 -0.0111 -0.1314 -0.0112
 9308TIP3   OH249414   4.215   1.368  17.025  0.0566 -0.2024 -0.2331
 9308TIP3    H149415   4.169   1.344  16.945 -0.8652  0.7077 -0.0063
 9308TIP3    H249416   4.172   1.449  17.053  0.7094 -0.2306  0.9000
 9309TIP3   OH249417   5.443   4.279  17.095 -0.1806 -0.5408 -0.7315
 9309TIP3    H149418   5.521   4.238  17.059  1.4562  0.4949  1.4414
 9309TIP3    H249419   5.390   4.205  17.126  0.9841 -1.2071 -0.2406
 9310TIP3   OH249420   4.966   6.241  16.819 -0.5234 -0.1264 -0.4630
 9310TIP3    H149421   4.949   6.202  16.733  0.1626  0.8269 -1.0437
 9310TIP3    H249422   4.923   6.181  16.880 -2.5802  0.0961 -1.5723
 9311TIP3   OH249423   2.201   4.073   4.026  0.4840  0.5719  0.0641
 9311TIP3    H149424   2.218   4.034   4.111  1.9345  0.2488 -0.3435
 9311TIP3    H249425   2.130   4.021   3.989  1.3025 -0.6750  0.1977
 9312TIP3   OH249426   0.287   4.410  14.073 -0.5206  0.1049 -0.9091
 9312TIP3    H149427   0.378   4.420  14.098 -0.7159  0.3121 -0.2774
 9312TIP3    H249428   0.286   4.428  13.979  0.5326 -2.5127 -1.5170
 9313TIP3   OH249429   1.622   3.646  10.909 -0.3537  0.4776 -0.3856
 9313TIP3    H149430   1.582   3.688  10.832  1.5059 -0.6811 -2.0752
 9313TIP3    H249431   1.656   3.563  10.876  3.4518  1.3646  0.8274
 9314TIP3   OH249432   2.657   4.659  15.953 -0.5143 -0.1769  0.2389
 9314TIP3    H149433   2.656   4.740  15.902 -2.4437 -0.3974 -0.1255
 9314TIP3    H249434   2.703   4.596  15.897 -1.3521 -0.0290 -0.6380
 9315TIP3   OH249435   0.371   3.970  14.745  0.2632  0.3486  0.0315
 9315TIP3    H149436   0.414   3.955  14.830 -1.6856 -0.4088  0.9391
 9315TIP3    H249437   0.282   3.937  14.757 -0.1172  0.3904 -2.2789
 9316TIP3   OH249438   1.292   6.482  15.504  0.1579  0.2145 -0.0591
 9316TIP3    H149439   1.331   6.425  15.570  0.6711  1.5346  0.8096
 9316TIP3    H249440   1.338   6.459  15.423 -0.7350 -1.6768 -0.0774
 9317TIP3   OH249441   3.134   2.866  11.698 -0.3544  0.0527  0.2054
 9317TIP3    H149442   3.085   2.824  11.627  0.6849  1.5506 -1.5001
 9317TIP3    H249443   3.095   2.954  11.704  0.7266  0.5390  0.2561
 9318TIP3   OH249444   1.002   3.080  13.093  0.5995  0.1322 -0.9459
 9318TIP3    H149445   1.030   3.171  13.101  2.2021 -0.3566 -0.6480
 9318TIP3    H249446   0.907   3.084  13.096  0.6511  1.7668 -0.5723
 9319TIP3   OH249447   1.805   3.014  11.945 -0.1529  0.3174  0.0611
 9319TIP3    H149448   1.762   3.053  12.021 -2.2025 -0.4051 -0.6716
 9319TIP3    H249449   1.865   2.949  11.983 -0.1336  0.9130  1.0864
 9320TIP3   OH249450   3.811   1.423   2.151 -0.1418 -0.2627 -0.6311
 9320TIP3    H149451   3.839   1.332   2.164 -2.2356 -0.7836  0.7233
 9320TIP3    H249452   3.876   1.475   2.199  0.9160 -1.0534 -1.1731
 9321TIP3   OH249453   6.581   5.144  13.958 -0.3497 -0.4163  0.4159
 9321TIP3    H149454   6.489   5.169  13.974  0.2039  1.5913  0.8387
 9321TIP3    H249455   6.581   5.049  13.960 -2.6233 -0.5105 -0.7553
 9322TIP3   OH249456   2.044   1.098   0.724 -0.1150 -0.3989 -0.4999
 9322TIP3    H149457   2.066   1.095   0.817  0.5627 -1.8647 -0.6716
 9322TIP3    H249458   2.117   1.143   0.683  0.3772 -1.1597 -0.4934
 9323TIP3   OH249459   0.920   4.652  16.652 -0.3270  0.6208  0.5538
 9323TIP3    H149460   0.921   4.746  16.672  0.1050  0.4487  1.4046
 9323TIP3    H249461   0.996   4.640  16.595 -0.0470  0.7012  0.9037
 9324TIP3   OH249462   2.554   1.900  13.023  0.3568 -0.2488 -0.2150
 9324TIP3    H149463   2.635   1.943  12.999 -0.3988  0.4073 -1.6607
 9324TIP3    H249464   2.486   1.966  13.009 -0.7894 -1.7468 -2.1903
 9325TIP3   OH249465   6.074   1.026  13.123  0.3763 -0.3682  0.0774
 9325TIP3    H149466   6.054   1.042  13.216 -0.1648 -0.6375  0.0122
 9325TIP3    H249467   5.993   0.989  13.087  0.3049  0.5199 -0.7012
 9326TIP3   OH249468   4.198   1.342   2.038  0.6984 -0.1973  0.4042
 9326TIP3    H149469   4.194   1.438   2.036 -0.2285 -0.2354 -0.2784
 9326TIP3    H249470   4.140   1.314   1.968  0.8103 -1.2735  0.7179
 9327TIP3   OH249471   4.465   3.659   3.484 -0.1637 -0.1007  0.6200
 9327TIP3    H149472   4.423   3.742   3.460  0.1610  0.2666  1.3069
 9327TIP3    H249473   4.505   3.628   3.403 -1.5498 -0.3428 -0.0051
 9328TIP3   OH249474   4.052   2.635  12.667 -0.0383  0.9053  0.1243
 9328TIP3    H149475   4.035   2.694  12.741 -2.5429  0.2682  0.1756
 9328TIP3    H249476   3.965   2.621  12.628  0.4732 -2.4667 -0.0895
 9329TIP3   OH249477   4.139   5.045  12.289  0.0708 -0.1101  0.2661
 9329TIP3    H149478   4.150   5.121  12.346 -1.4220  0.1039  0.3260
 9329TIP3    H249479   4.136   5.081  12.201 -1.3649  0.0178  0.3429
 9330TIP3   OH249480   1.323   2.418   0.315 -0.2262  0.2758  0.4339
 9330TIP3    H149481   1.356   2.490   0.262  0.1679 -1.5254 -1.8966
 9330TIP3    H249482   1.232   2.408   0.288  0.4875 -1.8616 -1.4350
 9331TIP3   OH249483   2.845   1.734  11.914 -0.1335 -0.7082  0.6933
 9331TIP3    H149484   2.771   1.674  11.898 -0.5893  0.0456 -0.1030
 9331TIP3    H249485   2.902   1.722  11.837 -0.7958  0.6899 -0.0504
 9332TIP3   OH249486   2.165   3.615   4.489 -0.1554  0.3699 -0.4254
 9332TIP3    H149487   2.208   3.640   4.571  0.3982 -0.4435 -0.4566
 9332TIP3    H249488   2.235   3.616   4.424 -0.4324  0.2385 -0.7280
 9333TIP3   OH249489   0.993   5.681   1.547  0.1853  0.7900  0.1137
 9333TIP3    H149490   1.083   5.709   1.565  0.4078  0.0926  0.1339
 9333TIP3    H249491   0.988   5.593   1.583 -0.1840  0.4103 -0.8281
 9334TIP3   OH249492   3.110   0.452  16.643 -0.2526  0.2714  0.1727
 9334TIP3    H149493   3.075   0.534  16.609  1.0786  1.0575  0.6157
 9334TIP3    H249494   3.136   0.403  16.565  2.3369  1.8553 -0.0652
 9335TIP3   OH249495   1.658   0.183  13.865  0.1813  1.3337 -0.6345
 9335TIP3    H149496   1.729   0.119  13.862 -0.8084 -0.1510  2.5478
 9335TIP3    H249497   1.631   0.194  13.774  3.2864  0.6556 -1.7680
 9336TIP3   OH249498   5.002   4.534  13.679  0.3285  0.6369 -0.4279
 9336TIP3    H149499   5.014   4.440  13.693  1.3168  0.5903 -1.4830
 9336TIP3    H249500   4.935   4.540  13.610  1.6859  0.6340 -1.7826
 9337TIP3   OH249501   4.186   0.551   3.414 -0.5670 -0.6530  0.0689
 9337TIP3    H149502   4.095   0.531   3.392 -0.5637 -0.5509 -0.0410
 9337TIP3    H249503   4.184   0.570   3.508 -0.7032 -0.3982  0.0152
 9338TIP3   OH249504   1.317   5.394   4.559 -0.0199  0.3770  0.2902
 9338TIP3    H149505   1.396   5.380   4.507 -0.1430 -2.0264  0.6435
 9338TIP3    H249506   1.349   5.417   4.646  0.1954  2.7296 -0.3352
 9339TIP3   OH249507   4.700   1.795  12.284 -0.5051 -0.5149 -0.1266
 9339TIP3    H149508   4.779   1.798  12.337 -1.6626 -0.8545  1.6990
 9339TIP3    H249509   4.731   1.797  12.194  1.4870  1.1017  0.5402
 9340TIP3   OH249510   6.622   1.526  11.530 -0.3743 -0.2930  0.1210
 9340TIP3    H149511   6.703   1.478  11.514 -1.3018 -1.9172  0.1336
 9340TIP3    H249512   6.600   1.566  11.446  0.1412 -0.3158 -0.0261
 9341TIP3   OH249513   6.395   6.153   0.691  0.3377  0.0974  0.0751
 9341TIP3    H149514   6.426   6.243   0.685 -1.8255  0.8013 -1.5761
 9341TIP3    H249515   6.355   6.135   0.606 -1.4243 -1.5582  1.1649
 9342TIP3   OH249516   4.503   6.770   5.725  0.2203 -0.1947 -0.2752
 9342TIP3    H149517   4.511   6.832   5.798  0.9644 -0.8226  0.1947
 9342TIP3    H249518   4.559   6.805   5.657  0.5001 -0.2569 -0.0773
 9343TIP3   OH249519   4.338   0.353   3.319  0.1613 -0.4963  0.2915
 9343TIP3    H149520   4.314   0.413   3.390  1.3537 -0.3198  0.5701
 9343TIP3    H249521   4.409   0.397   3.274 -0.1696 -0.8970 -0.6403
 9344TIP3   OH249522   4.187   1.990   0.699  0.2234 -0.3527  0.4655
 9344TIP3    H149523   4.175   1.987   0.794 -0.5128  1.2573  0.4607
 9344TIP3    H249524   4.111   1.944   0.664 -0.9300  1.3151  0.6464
 9345TIP3   OH249525   1.080   5.471  11.589  0.8240  0.2863 -0.2264
 9345TIP3    H149526   0.992   5.480  11.554  0.7536 -0.3352 -0.2291
 9345TIP3    H249527   1.115   5.393  11.546  1.3543  0.4993 -0.1882
 9346TIP3   OH249528   6.661   5.281  14.261 -0.5934  0.4420 -0.1449
 9346TIP3    H149529   6.722   5.207  14.255 -0.9297  0.1151  0.3913
 9346TIP3    H249530   6.669   5.325  14.176  1.2065  1.0518  0.2779
 9347TIP3   OH249531   0.591   1.297   5.343  0.2707 -0.7020 -0.1391
 9347TIP3    H149532   0.523   1.331   5.285 -0.7151 -2.6625 -0.2028
 9347TIP3    H249533   0.660   1.364   5.341 -1.2722  0.9393 -0.7327
 9348TIP3   OH249534   0.879   6.758  11.621 -0.3091  0.1815 -0.6969
 9348TIP3    H149535   0.868   6.743  11.715  0.1356 -0.7167 -0.7727
 9348TIP3    H249536   0.895   6.670  11.585  0.0454  0.5835 -1.5365
 9349TIP3   OH249537   0.706   3.287   2.507  0.0979 -0.2835  0.5057
 9349TIP3    H149538   0.729   3.264   2.597 -1.5348 -2.4417  0.4459
 9349TIP3    H249539   0.720   3.207   2.457  0.8461  0.8463 -1.1655
 9350TIP3   OH249540   6.027   2.509  12.050  0.2423  0.1129  0.0382
 9350TIP3    H149541   5.934   2.500  12.033  0.6091 -2.0042 -1.1548
 9350TIP3    H249542   6.055   2.422  12.077  2.2328  0.1786 -1.5659
 9351TIP3   OH249543   5.954   0.279   0.645 -0.6912  0.0650 -0.4384
 9351TIP3    H149544   5.986   0.334   0.716 -0.8215 -1.0969  0.5638
 9351TIP3    H249545   5.859   0.291   0.647 -0.6917  0.0608 -0.4362
 9352TIP3   OH249546   2.444   4.711   4.160  0.5931  0.1391 -0.2899
 9352TIP3    H149547   2.355   4.676   4.155  0.7890 -0.4162  0.0263
 9352TIP3    H249548   2.435   4.803   4.134  0.1490 -0.2621 -1.6627
 9353TIP3   OH249549   1.297   4.559  11.245  0.0944 -0.1588  0.9103
 9353TIP3    H149550   1.376   4.532  11.292  1.2046  2.6609  0.8691
 9353TIP3    H249551   1.233   4.577  11.313 -0.0401 -1.0375  1.0254
 9354TIP3   OH249552   5.384   1.823  15.701  0.2582 -0.1058 -0.1917
 9354TIP3    H149553   5.456   1.836  15.763 -0.0899 -2.1769  0.7275
 9354TIP3    H249554   5.418   1.759  15.639  0.6896  2.1128 -2.4173
 9355TIP3   OH249555   0.250   0.231   4.063  0.0951 -0.3271  0.3239
 9355TIP3    H149556   0.333   0.262   4.100  1.1458 -1.7378 -0.7399
 9355TIP3    H249557   0.251   0.262   3.973 -1.3809  1.0980  0.7345
 9356TIP3   OH249558   5.361   1.931   5.241  0.4973  0.5389  0.2044
 9356TIP3    H149559   5.360   1.939   5.146 -1.5736  1.4563  0.2494
 9356TIP3    H249560   5.332   1.842   5.259 -0.0859  0.6831 -0.0169
 9357TIP3   OH249561   0.881   4.256   2.077 -0.4788  0.0807  0.2385
 9357TIP3    H149562   0.815   4.265   2.146  0.2075 -2.2918  1.3088
 9357TIP3    H249563   0.833   4.225   2.001 -0.8827  0.3717  0.3725
 9358TIP3   OH249564   5.395   0.765  13.045  0.2712  0.2271  0.0516
 9358TIP3    H149565   5.350   0.689  13.006  0.8787  0.5827 -1.4006
 9358TIP3    H249566   5.475   0.728  13.082  0.4378  0.1060 -0.4171
 9359TIP3   OH249567   3.000   1.227  15.816  0.2537 -0.3243  0.4779
 9359TIP3    H149568   2.920   1.232  15.764  1.0948 -1.7573 -1.0705
 9359TIP3    H249569   2.979   1.166  15.886 -0.8163  1.4292  1.7488
 9360TIP3   OH249570   2.541   6.016  11.445  0.5951  0.6832 -0.6785
 9360TIP3    H149571   2.555   5.930  11.486 -5.0524 -0.0422  0.6809
 9360TIP3    H249572   2.533   5.997  11.352 -2.4156 -0.8575 -0.2369
 9361TIP3   OH249573   1.269   5.286   3.159  0.0049 -0.1073 -0.1938
 9361TIP3    H149574   1.216   5.215   3.121 -0.6251  0.3674 -0.2240
 9361TIP3    H249575   1.318   5.244   3.229  0.2314 -0.7360 -0.7230
 9362TIP3   OH249576   6.706   3.228  16.220  0.1991 -0.3125  0.5991
 9362TIP3    H149577   6.686   3.144  16.178  0.0677 -1.5328  2.9020
 9362TIP3    H249578   6.620   3.264  16.243  0.2990 -0.3740  1.0863
 9363TIP3   OH249579   6.644   5.115  12.194 -0.1915  0.0976 -0.4656
 9363TIP3    H149580   6.601   5.054  12.254 -2.9279  1.4535 -0.8570
 9363TIP3    H249581   6.664   5.191  12.249  3.0312 -0.9528 -0.0188
 9364TIP3   OH249582   3.988   2.554  13.523 -0.1861 -0.5387 -0.1073
 9364TIP3    H149583   4.002   2.521  13.434  2.7348 -1.0018  0.4118
 9364TIP3    H249584   4.043   2.632  13.528 -0.0916 -0.6768  1.3572
 9365TIP3   OH249585   2.705   4.480   3.146 -0.1264  0.3263 -0.0045
 9365TIP3    H149586   2.640   4.417   3.176  1.5870 -1.8814 -0.6572
 9365TIP3    H249587   2.729   4.449   3.059  0.9289  1.8099 -0.2749
 9366TIP3   OH249588   4.644   5.050  12.977 -0.5246  0.3920  0.5127
 9366TIP3    H149589   4.681   5.021  12.893  1.0667  1.3438  0.8460
 9366TIP3    H249590   4.645   4.971  13.032 -0.8922 -0.0670 -0.1294
 9367TIP3   OH249591   1.852   6.787  11.892  0.3271  0.2773 -0.4139
 9367TIP3    H149592   1.790   6.748  11.831  0.6797 -1.1345  0.0722
 9367TIP3    H249593   1.832   6.745  11.976  0.8781  1.0125  0.0960
 9368TIP3   OH249594   3.326   2.639  17.046 -0.1935  0.0741 -0.1935
 9368TIP3    H149595   3.234   2.666  17.048 -0.6052 -1.1520 -0.9143
 9368TIP3    H249596   3.374   2.715  17.077 -1.3383  1.2612 -1.1741
 9369TIP3   OH249597   1.374   3.754   3.206  0.4416  0.2377 -0.1319
 9369TIP3    H149598   1.465   3.759   3.177  0.3760 -0.2885 -0.4470
 9369TIP3    H249599   1.360   3.834   3.257  0.8674  0.6656 -0.6775
 9370TIP3   OH249600   0.426   1.997  12.911 -0.3248 -0.7171  0.3132
 9370TIP3    H149601   0.352   1.965  12.962 -0.0828 -1.0425  0.4612
 9370TIP3    H249602   0.492   2.019  12.977 -0.4884  0.0896  0.2165
 9371TIP3   OH249603   6.617   4.830   1.627 -0.4878 -0.0591  0.0146
 9371TIP3    H149604   6.602   4.875   1.544  0.8892 -0.5278 -0.5115
 9371TIP3    H249605   6.558   4.755   1.625  0.2529 -0.6378 -1.0102
 9372TIP3   OH249606   6.816   5.596  11.593  0.5263  0.3784  0.3742
 9372TIP3    H149607   6.793   5.519  11.541 -2.9128  0.9579  0.8594
 9372TIP3    H249608   6.819   5.668  11.530  2.2078  0.1709  0.1657
 9373TIP3   OH249609   6.713   0.049   0.044  0.6482 -0.0100  0.2638
 9373TIP3    H149610   6.733  -0.018  -0.021  0.4972  1.1392 -1.0091
 9373TIP3    H249611   6.730   0.132  -0.000  1.7371  0.8160  2.0926
 9374TIP3   OH249612   4.640   3.786   0.389 -0.1581  0.0217 -0.6934
 9374TIP3    H149613   4.712   3.848   0.378 -1.1360  0.8733 -3.1356
 9374TIP3    H249614   4.596   3.814   0.469  0.0203  1.9325 -1.2088
 9375TIP3   OH249615   1.895   1.681  14.316  0.1699  0.3344  0.0060
 9375TIP3    H149616   1.978   1.669  14.271 -0.5619 -1.0449 -1.0691
 9375TIP3    H249617   1.874   1.774  14.304  0.2019  0.0982 -2.2003
 9376TIP3   OH249618   4.471   1.405  12.130 -0.3388 -0.2111  0.3142
 9376TIP3    H149619   4.427   1.338  12.182 -1.4833  1.1439  1.1623
 9376TIP3    H249620   4.400   1.459  12.095  0.5415  0.4768 -0.4803
 9377TIP3   OH249621   3.656   0.435  16.278 -0.4455  0.1837 -0.2029
 9377TIP3    H149622   3.589   0.411  16.342 -1.2378 -0.7375 -1.3183
 9377TIP3    H249623   3.706   0.355  16.264 -0.9688  0.0496 -1.4922
 9378TIP3   OH249624   6.456   0.647   3.065 -0.3042 -0.6599 -0.7033
 9378TIP3    H149625   6.385   0.695   3.107  0.9774  0.4485  0.2490
 9378TIP3    H249626   6.498   0.599   3.136 -0.0924 -1.3093 -1.2616
 9379TIP3   OH249627   0.981   1.718  12.157  0.2072  0.4958  0.6153
 9379TIP3    H149628   0.923   1.688  12.087 -1.3616  2.6167  0.8954
 9379TIP3    H249629   0.951   1.670  12.235 -1.5132  1.8208  0.8344
 9380TIP3   OH249630   3.680   5.987   1.218  0.3237  0.7855 -0.2316
 9380TIP3    H149631   3.723   6.021   1.139  1.5931 -0.2351 -0.0106
 9380TIP3    H249632   3.640   5.905   1.189  0.0550  0.8387 -0.0080
 9381TIP3   OH249633   3.270   2.500  15.128 -0.3411  0.6054  0.1062
 9381TIP3    H149634   3.185   2.481  15.088 -0.8792 -0.5605  1.7124
 9381TIP3    H249635   3.334   2.477  15.061 -1.2591  0.8538 -0.8831
 9382TIP3   OH249636   4.600   3.188  16.159  0.7836  0.3984 -0.4110
 9382TIP3    H149637   4.600   3.099  16.125  0.6548  1.0310 -2.1752
 9382TIP3    H249638   4.675   3.230  16.117 -0.0645  1.5531 -0.8107
 9383TIP3   OH249639   1.202   4.257   0.814  0.0583 -0.1740  0.5665
 9383TIP3    H149640   1.170   4.169   0.835  0.3959 -0.8623 -1.5689
 9383TIP3    H249641   1.297   4.249   0.815  0.1948 -0.9729 -3.4283
 9384TIP3   OH249642   4.306   0.741  16.010 -0.5661  0.2729  0.0179
 9384TIP3    H149643   4.320   0.781  16.096 -0.0254  2.1186 -0.8882
 9384TIP3    H249644   4.393   0.742  15.969 -0.8045 -0.6583 -0.5271
 9385TIP3   OH249645   6.651   3.855   2.473  0.0627  0.3564  0.4460
 9385TIP3    H149646   6.715   3.859   2.401  0.6693 -2.5063  0.7015
 9385TIP3    H249647   6.567   3.873   2.432  0.6499  0.9179 -0.5477
 9386TIP3   OH249648   4.190   6.751   0.655  0.3165  0.4835 -0.0320
 9386TIP3    H149649   4.219   6.799   0.577 -2.5411  0.3565 -1.2879
 9386TIP3    H249650   4.169   6.663   0.624 -0.7936  0.3997  0.8690
 9387TIP3   OH249651   0.120   4.449   2.970  0.1779  0.0378 -0.4716
 9387TIP3    H149652   0.127   4.453   3.066  0.5546  0.5276 -0.5136
 9387TIP3    H249653   0.099   4.358   2.951 -1.3906  0.2291  0.1689
 9388TIP3   OH249654   3.087   1.748  17.123  0.5173  0.4221 -0.1363
 9388TIP3    H149655   3.048   1.811  17.183 -0.7026 -0.0413 -0.4126
 9388TIP3    H249656   3.025   1.674  17.122  0.5322  0.3803 -1.8793
 9389TIP3   OH249657   0.497   5.327  15.636  0.1658  0.3106 -1.2931
 9389TIP3    H149658   0.473   5.416  15.658 -3.8978 -0.5063 -1.6643
 9389TIP3    H249659   0.466   5.274  15.709  2.2487 -0.8985 -1.2022
 9390TIP3   OH249660   0.252   0.303  14.684 -0.4092  0.4087  0.7981
 9390TIP3    H149661   0.178   0.283  14.742 -1.8288 -0.3154 -1.1471
 9390TIP3    H249662   0.238   0.394  14.658 -0.4383  0.3789  0.7069
 9391TIP3   OH249663   1.250   6.647  11.447  0.6409 -0.7219 -0.0733
 9391TIP3    H149664   1.227   6.721  11.503 -0.0883 -0.6652 -0.4413
 9391TIP3    H249665   1.296   6.586  11.505  1.9329  0.3431  0.0668
 9392TIP3   OH249666   2.109   3.616  13.994  0.0491 -0.0734 -0.2038
 9392TIP3    H149667   2.186   3.653  13.950  0.1357  0.2371  0.1959
 9392TIP3    H249668   2.040   3.617  13.927  0.4713 -0.6460 -0.6591
 9393TIP3   OH249669   3.436   0.569  11.153 -0.1708  0.2411  0.0515
 9393TIP3    H149670   3.362   0.517  11.121  0.7403 -0.3749 -1.1622
 9393TIP3    H249671   3.507   0.506  11.162  0.4492  0.9713  0.3548
 9394TIP3   OH249672   1.373   2.364  15.157 -0.4121  0.0860  0.5077
 9394TIP3    H149673   1.324   2.379  15.077  0.0352  0.4298  0.2949
 9394TIP3    H249674   1.416   2.448  15.175  1.9960 -0.8352 -0.5990
 9395TIP3   OH249675   6.107   1.475  10.864  0.3071  0.0790 -0.4086
 9395TIP3    H149676   6.133   1.552  10.915  2.7566  0.9028 -2.6985
 9395TIP3    H249677   6.023   1.501  10.824 -0.6703  0.1371  1.5251
 9396TIP3   OH249678   2.726   4.805   3.415 -0.0386 -0.2561 -0.5696
 9396TIP3    H149679   2.784   4.753   3.471  0.1312  2.2171  1.8027
 9396TIP3    H249680   2.768   4.805   3.329  3.5479  1.2736  0.9739
 9397TIP3   OH249681   5.791   6.587   6.361  0.2092  0.4520 -0.1796
 9397TIP3    H149682   5.783   6.657   6.296 -1.1092  0.1279 -0.3847
 9397TIP3    H249683   5.794   6.633   6.445 -0.0992  0.7860 -0.3459
 9398TIP3   OH249684   2.039   4.954  16.842 -0.0228  0.4247 -0.0121
 9398TIP3    H149685   1.973   4.986  16.780  1.0798  2.0259 -0.4323
 9398TIP3    H249686   2.033   4.859  16.836 -2.5214  0.4862  0.2337
 9399TIP3   OH249687   2.353   3.738  13.910 -0.1833  0.0554 -0.0221
 9399TIP3    H149688   2.435   3.690  13.923 -0.7854 -0.9965  0.0447
 9399TIP3    H249689   2.338   3.784  13.992  0.4287  0.3894 -0.0981
 9400TIP3   OH249690   5.300   0.241   0.272 -0.1049  0.4263 -0.2512
 9400TIP3    H149691   5.310   0.220   0.179 -2.7678 -0.9163 -0.3250
 9400TIP3    H249692   5.338   0.165   0.318  0.8849  0.9267 -0.2131
 9401TIP3   OH249693   3.337   0.559  10.752 -0.3075  0.0148  0.1683
 9401TIP3    H149694   3.407   0.586  10.693  0.1483 -0.2566  0.5702
 9401TIP3    H249695   3.332   0.464  10.742 -0.1983 -0.0392  0.5924
 9402TIP3   OH249696   2.162   3.169   0.026  0.3646  0.3390  0.1791
 9402TIP3    H149697   2.172   3.173  -0.069  2.3723  0.8210  0.3735
 9402TIP3    H249698   2.072   3.200   0.041 -1.2804 -2.9892 -1.7270
 9403TIP3   OH249699   2.037   0.964  15.430  0.1222 -0.5039  0.2755
 9403TIP3    H149700   1.953   0.924  15.452 -0.0373  0.3291  1.2300
 9403TIP3    H249701   2.081   0.975  15.514  0.3623  0.8796 -0.0101
 9404TIP3   OH249702   6.041   1.808   2.108 -0.1030 -0.1279 -0.3930
 9404TIP3    H149703   5.991   1.732   2.137  0.8801 -0.5284  0.2832
 9404TIP3    H249704   6.114   1.815   2.170  1.5034 -0.4196 -2.1287
 9405TIP3   OH249705   0.203   3.933   2.624  0.3670 -0.2144  0.6318
 9405TIP3    H149706   0.162   3.981   2.696 -0.6662  0.7245 -0.5444
 9405TIP3    H249707   0.297   3.950   2.635  0.1084  1.2434  0.8597
 9406TIP3   OH249708   5.013   4.267   1.900 -0.3125 -0.4512 -0.0383
 9406TIP3    H149709   4.969   4.260   1.984 -0.1291 -0.9498  0.0192
 9406TIP3    H249710   4.971   4.341   1.856 -1.0356 -0.7728  0.1136
 9407TIP3   OH249711   4.937   2.388  14.241  0.1181 -0.1748  0.8663
 9407TIP3    H149712   4.948   2.327  14.168  1.0451  1.1805 -0.1774
 9407TIP3    H249713   5.001   2.360  14.306  1.3649  0.3278 -0.0926
 9408TIP3   OH249714   5.488   0.733  13.668 -0.4053  0.2738 -0.3850
 9408TIP3    H149715   5.510   0.704  13.580  0.8190 -1.7265  0.5149
 9408TIP3    H249716   5.434   0.663  13.704  1.7177 -0.5418  1.4811
 9409TIP3   OH249717   6.101   5.674  15.883 -0.1483  0.6775 -0.4671
 9409TIP3    H149718   6.126   5.596  15.835  1.3026  1.4300 -1.0046
 9409TIP3    H249719   6.092   5.645  15.973  0.0470 -0.1711 -0.7119
 9410TIP3   OH249720   6.474   0.942  13.904 -0.2883 -0.3117  0.1972
 9410TIP3    H149721   6.483   0.938  13.809  0.0903  1.3188  0.1373
 9410TIP3    H249722   6.396   0.996  13.918 -1.8770 -2.6344  0.8298
 9411TIP3   OH249723   0.663   0.449  12.046 -0.5714  1.2257  0.0906
 9411TIP3    H149724   0.652   0.383  12.115  1.4294  1.5146  0.7432
 9411TIP3    H249725   0.748   0.489  12.064  0.0613  1.2787 -2.6096
 9412TIP3   OH249726   3.444   4.302   0.348  0.2679 -0.1011 -0.4051
 9412TIP3    H149727   3.535   4.305   0.379 -0.3740  2.9851  1.7093
 9412TIP3    H249728   3.449   4.329   0.256  1.5473 -0.5973 -0.4930
 9413TIP3   OH249729   0.973   2.617  14.047 -0.4800  0.0724  0.1748
 9413TIP3    H149730   1.058   2.619  14.091  0.1049  0.3803 -0.9397
 9413TIP3    H249731   0.932   2.701  14.069 -0.8244 -0.3639  1.2962
 9414TIP3   OH249732   5.744   2.385   2.444 -0.4016 -0.4767  0.4005
 9414TIP3    H149733   5.794   2.442   2.386 -0.5181 -1.1701 -0.4085
 9414TIP3    H249734   5.809   2.348   2.504 -0.1205 -0.5447  0.0525
 9415TIP3   OH249735   1.987   4.380   5.742  0.3805  0.4133 -0.0586
 9415TIP3    H149736   1.952   4.317   5.680  0.9406 -1.3678  1.3284
 9415TIP3    H249737   1.963   4.466   5.707 -2.3022 -0.6086 -0.9045
 9416TIP3   OH249738   0.525   2.451  13.476 -0.2835 -0.4942  0.1929
 9416TIP3    H149739   0.460   2.417  13.416 -0.3936 -1.7999  1.0042
 9416TIP3    H249740   0.523   2.390  13.551  0.6107  0.4441  1.0175
 9417TIP3   OH249741   1.672   6.763  14.767 -0.0671 -0.0721 -0.0493
 9417TIP3    H149742   1.596   6.710  14.791 -1.4255  1.3661 -0.9533
 9417TIP3    H249743   1.650   6.851  14.796 -0.2393  1.0368 -3.2069
 9418TIP3   OH249744   0.645   1.762   4.083 -0.0558  0.0160 -0.0574
 9418TIP3    H149745   0.680   1.835   4.133 -0.7776 -0.6374  1.4539
 9418TIP3    H249746   0.698   1.686   4.109 -1.2673 -0.5867  0.7638
 9419TIP3   OH249747   0.163   4.698  13.338  0.1875 -0.2728  0.0535
 9419TIP3    H149748   0.084   4.751  13.347 -0.4351 -1.4289  2.0482
 9419TIP3    H249749   0.229   4.760  13.306 -1.1307  1.0546 -0.2698
 9420TIP3   OH249750   1.123   2.789  15.774 -0.1791  0.8758 -0.5370
 9420TIP3    H149751   1.090   2.868  15.816 -0.8368 -0.0202  0.6848
 9420TIP3    H249752   1.099   2.799  15.681 -3.7721  0.4155  0.1971
 9421TIP3   OH249753   3.891   2.172   4.267 -0.5331  0.1667  0.0833
 9421TIP3    H149754   3.959   2.196   4.330 -1.2666 -1.9231  1.8174
 9421TIP3    H249755   3.938   2.127   4.197  0.0708  0.3825  0.3462
 9422TIP3   OH249756   1.999   4.485   4.482  0.3335  0.0592 -0.0131
 9422TIP3    H149757   1.944   4.440   4.546 -1.1286  1.2134 -0.4266
 9422TIP3    H249758   2.075   4.427   4.472 -1.1754 -2.0460 -0.0784
 9423TIP3   OH249759   2.401   4.457   4.348  0.5715  0.0370  0.2135
 9423TIP3    H149760   2.393   4.551   4.365  2.0289  0.0431  1.0451
 9423TIP3    H249761   2.391   4.416   4.433 -0.2769 -0.5882 -0.1772
 9424TIP3   OH249762   6.380   3.330  11.835  0.0622  1.1255 -0.0116
 9424TIP3    H149763   6.379   3.284  11.751  0.7597 -2.0920  1.6160
 9424TIP3    H249764   6.466   3.312  11.872 -0.5057  1.8094  1.7584
 9425TIP3   OH249765   5.363   6.474  16.347  0.1843  0.4120  0.0572
 9425TIP3    H149766   5.320   6.534  16.409  1.0011  0.3768  0.6872
 9425TIP3    H249767   5.330   6.387  16.371  0.6413  0.3769  0.5859
 9426TIP3   OH249768   4.460   3.467   2.337  0.1872 -0.0482 -0.0426
 9426TIP3    H149769   4.549   3.501   2.336  0.0938  0.2070  0.2175
 9426TIP3    H249770   4.461   3.395   2.273  0.3957  0.4135 -0.5621
 9427TIP3   OH249771   6.081   6.816  14.816  0.1122  0.0483 -0.1054
 9427TIP3    H149772   6.006   6.828  14.875 -0.8895 -0.9468 -1.1209
 9427TIP3    H249773   6.139   6.756  14.863 -0.9356 -1.1800 -0.3359
 9428TIP3   OH249774   1.697   3.123   1.625  0.6228 -0.3720  0.3631
 9428TIP3    H149775   1.724   3.035   1.597 -0.4914 -0.3312 -0.9586
 9428TIP3    H249776   1.725   3.129   1.716  0.5133 -2.2000  0.5584
 9429TIP3   OH249777   1.858   6.569   5.118  0.2731 -0.0590 -0.2333
 9429TIP3    H149778   1.858   6.535   5.207  1.1446  0.9179  0.1644
 9429TIP3    H249779   1.936   6.625   5.114 -0.6782  1.2599 -1.0754
 9430TIP3   OH249780   5.872   0.014  15.006  0.1733 -0.0788  0.0127
 9430TIP3    H149781   5.779  -0.003  14.988  0.3260 -1.1013  0.1454
 9430TIP3    H249782   5.878   0.110  15.009 -0.7163  0.0264 -0.8362
 9431TIP3   OH249783   6.429   1.773   3.336  0.0626 -0.0690 -0.1565
 9431TIP3    H149784   6.387   1.769   3.422  0.5864  0.1378  0.1102
 9431TIP3    H249785   6.501   1.834   3.347  0.5379 -0.5436 -0.5768
 9432TIP3   OH249786   2.245   0.871   4.474 -0.0082  0.5535  0.3368
 9432TIP3    H149787   2.208   0.923   4.402 -0.1900 -2.0235 -1.6059
 9432TIP3    H249788   2.336   0.898   4.479 -0.1177  1.1398 -0.5423
 9433TIP3   OH249789   1.823   0.431   1.732  0.0031 -0.3500  0.3634
 9433TIP3    H149790   1.781   0.516   1.734  0.2500 -0.2454  1.2154
 9433TIP3    H249791   1.914   0.448   1.757  0.1589 -0.8017  0.1215
 9434TIP3   OH249792   2.536   4.704  11.986 -0.0664 -0.2291  0.2973
 9434TIP3    H149793   2.585   4.777  11.948 -0.5319 -0.0810 -0.0434
 9434TIP3    H249794   2.539   4.719  12.080  3.1576 -1.9043  0.5891
 9435TIP3   OH249795   2.183   6.575  13.619 -0.2943  0.8571 -0.0037
 9435TIP3    H149796   2.191   6.664  13.654  1.9798  0.5006  0.5518
 9435TIP3    H249797   2.111   6.536  13.669  0.1026  1.7294  1.3086
 9436TIP3   OH249798   0.999   2.184  14.968  0.4884 -0.5301 -0.4123
 9436TIP3    H149799   1.077   2.238  14.982  0.6174 -0.8312  0.0566
 9436TIP3    H249800   0.968   2.209  14.881  0.6512  0.1662 -0.2799
 9437TIP3   OH249801   4.302   4.792  15.097  0.0307  0.1443 -0.8851
 9437TIP3    H149802   4.313   4.861  15.163  1.7139 -1.8655  1.1352
 9437TIP3    H249803   4.249   4.726  15.141  2.0518 -1.7159 -1.0829
 9438TIP3   OH249804   4.895   1.725   5.854 -0.6333 -0.1925 -0.5813
 9438TIP3    H149805   4.858   1.811   5.832 -1.6814 -0.9569 -1.9612
 9438TIP3    H249806   4.834   1.689   5.919 -1.3598 -0.7208 -1.5358
 9439TIP3   OH249807   6.634   5.430   5.171 -0.3737 -0.5058  0.0200
 9439TIP3    H149808   6.680   5.369   5.229  0.1501  0.1055  0.2582
 9439TIP3    H249809   6.677   5.514   5.186 -1.4841  0.0556  0.1441
 9440TIP3   OH249810   2.164   4.420  16.504  0.8031  0.1511  0.0376
 9440TIP3    H149811   2.099   4.473  16.459  0.3720  0.7897  1.3727
 9440TIP3    H249812   2.227   4.396  16.435 -0.5338 -0.0581 -1.1726
 9441TIP3   OH249813   3.840   5.428   1.529 -0.1384 -0.9473  0.3811
 9441TIP3    H149814   3.862   5.519   1.553 -0.9824 -0.7221  0.3323
 9441TIP3    H249815   3.910   5.376   1.568  1.5766 -0.1049 -1.4251
 9442TIP3   OH249816   6.608   5.446   0.302  0.3187  0.2216 -0.5346
 9442TIP3    H149817   6.585   5.398   0.382 -1.2091  2.8423  0.7155
 9442TIP3    H249818   6.593   5.383   0.232 -1.2427 -1.2768  1.0327
 9443TIP3   OH249819   2.173   0.827   1.281  0.0111 -0.0288  0.0913
 9443TIP3    H149820   2.199   0.902   1.227 -0.9329  0.0038 -0.3340
 9443TIP3    H249821   2.104   0.784   1.231  0.8760 -1.4794  0.0966
 9444TIP3   OH249822   2.517   5.835   0.980  0.1197 -0.1470  0.2031
 9444TIP3    H149823   2.600   5.836   0.933 -0.9778 -0.7103 -1.8632
 9444TIP3    H249824   2.461   5.775   0.930 -1.4602 -0.0100  1.6821
 9445TIP3   OH249825   6.688   0.137  15.505 -0.3827 -0.1674  0.3034
 9445TIP3    H149826   6.757   0.111  15.444  0.5671 -0.9077  1.6484
 9445TIP3    H249827   6.665   0.057  15.552 -3.1982 -0.2608 -1.0465
 9446TIP3   OH249828   0.576   0.738  12.411  0.1721  0.1204 -0.1443
 9446TIP3    H149829   0.587   0.795  12.487  0.3738  0.5018 -0.4553
 9446TIP3    H249830   0.492   0.695  12.426 -0.2932  0.9701 -0.2029
 9447TIP3   OH249831   0.491   4.467   3.144 -0.0324  0.3750 -0.0291
 9447TIP3    H149832   0.517   4.554   3.115 -1.2094  0.3411 -1.2582
 9447TIP3    H249833   0.411   4.481   3.194 -0.3136 -0.0178 -0.3614
 9448TIP3   OH249834   6.324   5.458  13.695 -0.3120 -0.4136  0.0582
 9448TIP3    H149835   6.287   5.535  13.651  2.0775  0.0178 -1.3897
 9448TIP3    H249836   6.308   5.386  13.635 -0.8684 -0.6856  0.5288
 9449TIP3   OH249837   3.050   6.193  11.928 -0.2140  0.3060 -0.3345
 9449TIP3    H149838   3.093   6.138  11.994 -0.4044 -0.1223 -0.5640
 9449TIP3    H249839   2.994   6.251  11.978 -0.7549 -0.3693 -0.1396
 9450TIP3   OH249840   3.558   1.494  11.782 -0.2989  0.0592 -0.6301
 9450TIP3    H149841   3.542   1.414  11.732  0.6069 -1.4569  1.3787
 9450TIP3    H249842   3.645   1.523  11.755  0.4568 -1.1109  0.4327
 9451TIP3   OH249843   0.774   6.081  14.730 -0.1855  0.1304  0.0775
 9451TIP3    H149844   0.866   6.056  14.740 -0.2673  0.0631  0.6678
 9451TIP3    H249845   0.767   6.164  14.777 -0.4514  0.0850  0.1178
 9452TIP3   OH249846   5.212   2.392  14.738  0.0870 -0.4497  0.2894
 9452TIP3    H149847   5.253   2.320  14.690  0.1778 -0.7712  0.8340
 9452TIP3    H249848   5.285   2.435  14.782 -0.2186 -1.6634  2.1116
 9453TIP3   OH249849   3.360   3.949  14.178  0.4385 -0.8657 -0.3063
 9453TIP3    H149850   3.401   3.986  14.257  0.2510 -2.1103  0.3898
 9453TIP3    H249851   3.356   4.023  14.117  0.0931  0.2682  1.0337
 9454TIP3   OH249852   0.995   5.197   2.618 -0.3770  0.2789  0.4924
 9454TIP3    H149853   0.969   5.111   2.653 -0.6883  0.6594  1.2193
 9454TIP3    H249854   0.919   5.225   2.566  0.6180 -0.9210 -1.7615
 9455TIP3   OH249855   5.925   4.695  13.665 -0.1886 -0.4350  0.2597
 9455TIP3    H149856   5.969   4.694  13.580 -0.9720 -1.3135 -0.1543
 9455TIP3    H249857   5.844   4.745  13.650  0.3236  0.6005  0.8474
 9456TIP3   OH249858   6.009   0.785  10.767  0.3993 -0.6141  0.3199
 9456TIP3    H149859   6.038   0.793  10.676 -0.6938  1.6590  0.1059
 9456TIP3    H249860   5.913   0.781  10.761  0.3233 -0.5167  1.3546
 9457TIP3   OH249861   2.404   3.770  15.713 -0.4031 -0.5705  0.2159
 9457TIP3    H149862   2.402   3.720  15.631  1.7645 -1.7241  0.7983
 9457TIP3    H249863   2.480   3.827  15.704 -0.4555 -0.3345  1.2155
 9458TIP3   OH249864   1.769   6.370   4.773 -0.2380  0.3615  0.3909
 9458TIP3    H149865   1.761   6.331   4.860  0.3337  1.0116  0.7429
 9458TIP3    H249866   1.682   6.405   4.754 -1.0696 -1.8988 -0.3600
 9459TIP3   OH249867   6.047   1.583  11.140  0.3976 -0.3545 -0.0200
 9459TIP3    H149868   6.037   1.513  11.204 -0.3608  1.8100  2.4424
 9459TIP3    H249869   5.967   1.579  11.087 -0.0322 -0.8796  0.6433
 9460TIP3   OH249870   6.014   1.761  12.626  0.1475  0.2577 -0.6045
 9460TIP3    H149871   5.994   1.798  12.712  0.5084 -0.3608 -0.2451
 9460TIP3    H249872   5.939   1.783  12.572 -0.9254 -0.9300  0.3603
 9461TIP3   OH249873   5.949   4.571  13.996 -0.2821 -0.3705 -0.2182
 9461TIP3    H149874   5.942   4.573  13.901  1.0848 -1.9810 -0.4026
 9461TIP3    H249875   5.977   4.482  14.016  1.4080  0.4823  1.5368
 9462TIP3   OH249876   5.114   5.854  13.519  0.2352  0.3864 -0.5399
 9462TIP3    H149877   5.190   5.907  13.544 -0.1810  0.5886  0.3342
 9462TIP3    H249878   5.105   5.790  13.590 -0.4192  0.3741 -0.6304
 9463TIP3   OH249879   3.390   4.687   5.983 -0.6843 -0.5014 -0.2344
 9463TIP3    H149880   3.365   4.748   5.913 -0.3141 -0.3362 -0.2260
 9463TIP3    H249881   3.441   4.741   6.044  3.6646 -1.6982 -2.4459
 9464TIP3   OH249882   0.871   3.756  10.505 -0.4123 -0.2468 -0.4836
 9464TIP3    H149883   0.790   3.707  10.518  0.0255 -0.8628 -0.0070
 9464TIP3    H249884   0.864   3.831  10.563 -1.1213  0.3152 -1.2742
 9465TIP3   OH249885   4.940   2.726   1.316 -0.2101  0.3212 -0.2981
 9465TIP3    H149886   4.957   2.676   1.236  1.2771 -2.1114  1.3562
 9465TIP3    H249887   5.023   2.769   1.335 -0.5085  0.7733 -0.0054
 9466TIP3   OH249888   4.977   1.995  13.513 -0.1646  0.5944  0.2853
 9466TIP3    H149889   5.044   2.044  13.466  0.6026 -1.5040 -0.9526
 9466TIP3    H249890   4.943   1.933  13.448 -1.1826 -0.4219  1.7267
 9467TIP3   OH249891   4.258   6.296  15.558 -0.1978 -0.5025 -0.0976
 9467TIP3    H149892   4.252   6.206  15.590  1.2570 -0.8137 -0.5906
 9467TIP3    H249893   4.209   6.348  15.621 -0.7202 -1.5935  0.4144
 9468TIP3   OH249894   2.801   4.476  11.896  0.5619  0.1827 -0.4923
 9468TIP3    H149895   2.740   4.489  11.969 -1.3656 -0.7142 -1.8433
 9468TIP3    H249896   2.866   4.545  11.907 -0.2411  0.7072  1.4834
 9469TIP3   OH249897   2.980   1.725   0.701 -0.3288  0.3046  0.5444
 9469TIP3    H149898   3.049   1.790   0.716 -0.4663  0.7921 -0.7343
 9469TIP3    H249899   2.992   1.660   0.771  0.1705  1.4017  1.5063
 9470TIP3   OH249900   5.829   3.278   4.612 -0.2669 -0.0080  0.2517
 9470TIP3    H149901   5.793   3.312   4.694 -1.6670 -0.1808 -0.2643
 9470TIP3    H249902   5.831   3.183   4.624  0.7126  0.0485  0.5467
 9471TIP3   OH249903   0.722   1.525   5.296 -1.1383 -0.8080 -0.2196
 9471TIP3    H149904   0.816   1.532   5.313 -1.0168 -1.7977 -0.4427
 9471TIP3    H249905   0.700   1.608   5.253 -0.4441 -0.4137  0.1608
 9472TIP3   OH249906   0.397   0.694   4.529  0.1449  0.1299  0.1900
 9472TIP3    H149907   0.349   0.615   4.556 -1.7713  0.4276 -1.9851
 9472TIP3    H249908   0.346   0.766   4.566 -0.1116  0.4095 -0.6933
 9473TIP3   OH249909   2.478   0.948  12.875  0.1541  0.2624  0.0249
 9473TIP3    H149910   2.532   1.015  12.833  0.5579 -0.3550 -0.4604
 9473TIP3    H249911   2.539   0.896  12.926  0.1967 -1.0175 -1.2628
 9474TIP3   OH249912   2.861   5.704  16.803  0.2787  0.0685 -0.2316
 9474TIP3    H149913   2.955   5.708  16.786  0.4081 -0.6273  0.2603
 9474TIP3    H249914   2.855   5.685  16.897 -0.3836  2.4516  0.2724
 9475TIP3   OH249915   1.496   2.296   3.558 -0.1319 -0.0773  0.2722
 9475TIP3    H149916   1.437   2.357   3.602 -0.8029 -1.1479  0.9316
 9475TIP3    H249917   1.512   2.335   3.473 -2.4330 -0.0795 -0.2379
 9476TIP3   OH249918   4.798   5.666  16.925  0.0217 -0.1821  0.3498
 9476TIP3    H149919   4.874   5.674  16.982  0.8706 -1.1097 -0.6011
 9476TIP3    H249920   4.786   5.571  16.914 -1.5347 -0.0713  0.7970
 9477TIP3   OH249921   2.261   4.463   0.707  0.5095 -0.5081  0.2586
 9477TIP3    H149922   2.350   4.452   0.673  0.2256  0.4949 -0.8820
 9477TIP3    H249923   2.225   4.374   0.708  1.4517 -0.8971  0.5538
 9478TIP3   OH249924   2.283   4.025  12.178 -0.2667 -0.3036 -0.2540
 9478TIP3    H149925   2.224   4.086  12.134 -0.4365  0.8090  1.4282
 9478TIP3    H249926   2.370   4.061  12.163 -0.3321  0.1296  0.3515
 9479TIP3   OH249927   6.038   2.865   1.686 -0.2779 -0.5942  0.4158
 9479TIP3    H149928   6.046   2.895   1.595 -1.6904  1.1097  0.8241
 9479TIP3    H249929   5.949   2.830   1.692 -0.1944 -0.6936  1.1472
 9480TIP3   OH249930   4.100   6.817  14.041  0.1696  0.6760 -0.1691
 9480TIP3    H149931   4.134   6.729  14.021 -2.1706 -0.2965 -0.2111
 9480TIP3    H249932   4.023   6.826  13.985 -0.5265  2.1479  0.9599
 9481TIP3   OH249933   1.567   2.068   5.306  0.2434 -0.3052  0.5696
 9481TIP3    H149934   1.527   2.093   5.389  0.3401 -0.1925  0.5833
 9481TIP3    H249935   1.561   1.973   5.305 -2.1249 -0.2110 -0.4912
 9482TIP3   OH249936   1.528   2.293   2.023 -0.1213  0.3450 -0.1836
 9482TIP3    H149937   1.505   2.256   1.937 -0.1862 -0.8116  0.3138
 9482TIP3    H249938   1.562   2.381   2.003 -0.9136  0.4142 -1.3120
 9483TIP3   OH249939   2.121   2.273  15.438  0.0865 -0.0833 -0.2807
 9483TIP3    H149940   2.197   2.330  15.451  0.4964 -0.7170  0.1049
 9483TIP3    H249941   2.148   2.188  15.471 -1.0199 -0.1583  0.5146
 9484TIP3   OH249942   1.145   2.494   2.648  0.4056  0.3223  1.2186
 9484TIP3    H149943   1.192   2.508   2.731  1.2953  0.7377  0.6541
 9484TIP3    H249944   1.187   2.555   2.587 -0.1710 -0.0680  0.4322
 9485TIP3   OH249945   6.631   1.818   3.090 -0.0399  0.4146 -0.0043
 9485TIP3    H149946   6.591   1.901   3.115  0.8229  0.7758  0.1803
 9485TIP3    H249947   6.722   1.839   3.069 -0.3490 -0.0981 -2.1146
 9486TIP3   OH249948   5.426   4.430  10.966 -0.1002  0.6058  0.2758
 9486TIP3    H149949   5.494   4.363  10.956  0.5187  1.0208  1.4652
 9486TIP3    H249950   5.344   4.381  10.968  0.2340  0.0124 -0.2968
 9487TIP3   OH249951   1.576   5.471  16.776  0.4208  0.7005 -0.4300
 9487TIP3    H149952   1.561   5.379  16.753 -2.4549  0.4859  1.6818
 9487TIP3    H249953   1.667   5.487  16.752  1.5335 -3.1344  0.4553
 9488TIP3   OH249954   1.477   3.459  11.113 -0.7998  0.0038 -0.4051
 9488TIP3    H149955   1.518   3.467  11.027 -0.4030  0.4531 -0.1759
 9488TIP3    H249956   1.481   3.365  11.132  0.8466  0.1190 -0.0446
 9489TIP3   OH249957   4.780   3.428   2.298  0.5367  0.1319  0.2775
 9489TIP3    H149958   4.708   3.405   2.239  0.1746 -2.3657  1.5805
 9489TIP3    H249959   4.846   3.468   2.241 -0.6712 -0.1849 -1.4223
 9490TIP3   OH249960   3.539   3.887  14.869 -0.1052 -0.4243  0.0824
 9490TIP3    H149961   3.517   3.977  14.848 -1.6060 -0.8888 -0.4211
 9490TIP3    H249962   3.628   3.876  14.835  0.2900  0.9893  0.5889
 9491TIP3   OH249963   4.979   5.557  12.484  0.3579 -0.2351 -0.4586
 9491TIP3    H149964   5.047   5.503  12.523 -0.4979 -1.0466 -0.0435
 9491TIP3    H249965   4.985   5.640  12.531  1.5269 -0.0254 -0.9421
 9492TIP3   OH249966   3.023   5.306   3.801 -0.1164 -0.3278 -0.1029
 9492TIP3    H149967   2.968   5.336   3.873 -0.5177 -1.1130 -0.0648
 9492TIP3    H249968   3.088   5.250   3.843  1.2601  1.2488 -0.0383
 9493TIP3   OH249969   5.366   1.021  16.876 -0.3941  0.2894  0.4061
 9493TIP3    H149970   5.432   1.090  16.885 -0.2424 -0.1138  3.2859
 9493TIP3    H249971   5.345   0.997  16.966 -4.8561  0.7094 -0.3190
 9494TIP3   OH249972   1.232   2.047   1.788 -0.2517  0.2425  0.3922
 9494TIP3    H149973   1.198   2.026   1.701  0.3887 -0.0936  0.2139
 9494TIP3    H249974   1.179   1.993   1.847  0.1894 -0.5442  0.0888
 9495TIP3   OH249975   6.295   4.801   2.282  0.1477  0.6910  0.2416
 9495TIP3    H149976   6.222   4.740   2.296 -1.5988  2.3658 -1.0271
 9495TIP3    H249977   6.311   4.796   2.188  1.5462  0.5491  0.4679
 9496TIP3   OH249978   5.093   0.570   0.295 -0.0902  0.9234 -0.3493
 9496TIP3    H149979   5.102   0.487   0.343  0.0340  0.9863 -0.2631
 9496TIP3    H249980   5.172   0.576   0.242 -0.0932  0.9916 -0.3465
 9497TIP3   OH249981   3.015   2.530  15.664 -0.2725 -0.2900  0.4614
 9497TIP3    H149982   3.068   2.543  15.742  1.7742 -0.6997 -0.7993
 9497TIP3    H249983   2.983   2.618  15.642 -1.2811 -0.2292  1.9653
 9498TIP3   OH249984   2.834   4.987   0.245 -0.4070 -0.1806 -0.0341
 9498TIP3    H149985   2.833   5.000   0.151 -0.1342  1.2497  0.1333
 9498TIP3    H249986   2.926   4.966   0.265 -0.5542 -0.9413 -0.1299
 9499TIP3   OH249987   4.903   6.012  16.005 -0.2402  0.1031  0.0521
 9499TIP3    H149988   4.891   6.092  15.955  3.4757 -0.0124 -1.3389
 9499TIP3    H249989   4.870   5.942  15.949 -0.4111  0.3871 -0.1980
 9500TIP3   OH249990   1.323   2.885   4.087  0.0589 -0.1192  0.0754
 9500TIP3    H149991   1.390   2.923   4.029 -1.2225  1.0306 -0.7130
 9500TIP3    H249992   1.274   2.825   4.030 -1.5574  1.4231 -0.2518
 9501TIP3   OH249993   1.294   1.290  11.850 -0.2290 -0.0411 -0.1115
 9501TIP3    H149994   1.386   1.294  11.825 -0.5187  1.2836 -1.1492
 9501TIP3    H249995   1.252   1.240  11.780 -0.2065 -1.2839  0.7390
 9502TIP3   OH249996   6.611   2.370   2.542 -0.4798 -0.2609  0.3270
 9502TIP3    H149997   6.702   2.394   2.557  0.1744 -1.4968 -1.4494
 9502TIP3    H249998   6.569   2.452   2.516  0.0122  0.3838  1.4785
 9503TIP3   OH249999   6.180   2.316  14.072  0.0070 -0.0256  0.5342
 9503TIP3    H150000   6.127   2.396  14.070 -0.9714 -0.6547 -1.5002
 9503TIP3    H250001   6.129   2.253  14.021  1.5018 -1.4641  0.7560
 9504TIP3   OH250002   0.162   0.432   4.368 -0.2279 -0.0434 -0.0567
 9504TIP3    H150003   0.103   0.506   4.354  0.1527  0.2581 -0.1043
 9504TIP3    H250004   0.169   0.390   4.282 -0.7928 -0.4044  0.0693
 9505TIP3   OH250005   6.069   0.689  16.519  0.1868  0.2335  0.5146
 9505TIP3    H150006   6.017   0.760  16.557  1.4058  1.4984 -0.0971
 9505TIP3    H250007   6.154   0.696  16.562  1.2432  1.0087 -1.5386
 9506TIP3   OH250008   2.798   0.085  14.371  0.0015  0.1793 -0.2133
 9506TIP3    H150009   2.712   0.062  14.407  0.6352 -1.0085  0.6396
 9506TIP3    H250010   2.849   0.004  14.379  1.2195  0.8856 -0.6222
 9507TIP3   OH250011   5.827   6.118   1.749  0.2522  0.1433  0.7211
 9507TIP3    H150012   5.885   6.055   1.792  2.0077  1.9248  1.0837
 9507TIP3    H250013   5.845   6.201   1.792 -1.6953  1.0156 -0.0319
 9508TIP3   OH250014   3.319   4.982   0.947 -0.2132  0.1498 -0.2754
 9508TIP3    H150015   3.272   5.065   0.951 -0.9938 -0.3153  0.3521
 9508TIP3    H250016   3.335   4.958   1.038 -3.3665 -2.2432 -0.1956
 9509TIP3   OH250017   1.403   6.610  12.537 -0.0587 -0.4329  0.0522
 9509TIP3    H150018   1.340   6.658  12.590 -0.0025 -1.1353  0.7662
 9509TIP3    H250019   1.470   6.580  12.598  0.1139 -1.0832 -0.4324
 9510TIP3   OH250020   0.440   1.257  15.680  0.7597  0.0089 -0.3953
 9510TIP3    H150021   0.390   1.226  15.756 -0.4605 -2.1933 -1.9930
 9510TIP3    H250022   0.529   1.223  15.696  0.3904 -0.8914 -0.1844
 9511TIP3   OH250023   4.762   2.127  14.147  0.0723 -0.4860  0.2480
 9511TIP3    H150024   4.814   2.132  14.227  0.1634  2.5551  0.1221
 9511TIP3    H250025   4.824   2.150  14.078 -0.5637 -0.7388 -0.4159
 9512TIP3   OH250026   5.314   4.780   2.250  0.0956  0.0625  0.1944
 9512TIP3    H150027   5.276   4.765   2.163 -1.4410 -0.1995  0.8733
 9512TIP3    H250028   5.239   4.794   2.307  0.9625 -1.3477  1.7906
 9513TIP3   OH250029   3.476   2.697   6.338  0.5674  0.4305 -0.0359
 9513TIP3    H150030   3.418   2.654   6.400  0.1932  1.1184  0.1081
 9513TIP3    H250031   3.505   2.777   6.383 -0.3693  1.3689 -1.0310
 9514TIP3   OH250032   3.649   0.777   6.460  0.7580 -0.1467 -0.2834
 9514TIP3    H150033   3.616   0.864   6.435  0.9782  0.0218  0.0042
 9514TIP3    H250034   3.576   0.718   6.442  1.4482 -0.2993 -2.8643
 9515TIP3   OH250035   5.730   2.398  15.406 -0.1848 -0.3354 -0.5068
 9515TIP3    H150036   5.742   2.305  15.424 -0.8094 -0.4412 -0.6244
 9515TIP3    H250037   5.649   2.403  15.355 -0.0944  0.2603 -0.6025
 9516TIP3   OH250038   0.547   3.827  12.212  0.2541 -0.4082  0.0807
 9516TIP3    H150039   0.532   3.755  12.150  0.1161  0.1994 -0.6164
 9516TIP3    H250040   0.463   3.873  12.216  0.4712 -0.0111  0.1553
 9517TIP3   OH250041   4.865   5.552   1.792 -0.6605  0.2806  0.5752
 9517TIP3    H150042   4.845   5.529   1.701 -0.8825  1.1103  0.4055
 9517TIP3    H250043   4.916   5.633   1.786  0.1242 -0.1584  1.1550
 9518TIP3   OH250044   4.098   2.056  16.706  0.0305  0.2872  0.7332
 9518TIP3    H150045   4.181   2.010  16.717 -0.0380  0.5646  2.9547
 9518TIP3    H250046   4.032   1.993  16.735 -0.6275 -0.0667 -1.3735
 9519TIP3   OH250047   2.540   6.251   5.550  0.0919  0.0155  0.2662
 9519TIP3    H150048   2.552   6.344   5.536  0.4858 -0.0278  0.3082
 9519TIP3    H250049   2.511   6.243   5.641  0.7987  0.0410  0.4982
 9520TIP3   OH250050   3.796   3.768   4.968  0.0924 -0.3788  0.3965
 9520TIP3    H150051   3.841   3.727   4.894 -0.4306 -0.0884 -0.0905
 9520TIP3    H250052   3.798   3.862   4.949  1.3420 -0.1433  1.5371
 9521TIP3   OH250053   5.451   4.737   0.619 -0.0462  0.4582 -0.0045
 9521TIP3    H150054   5.457   4.832   0.609 -1.0945  0.4153 -1.2653
 9521TIP3    H250055   5.535   4.712   0.658  0.4268  1.8380 -0.0726
 9522TIP3   OH250056   4.495   6.655   5.245  0.5433 -0.5811 -0.8968
 9522TIP3    H150057   4.494   6.740   5.200 -0.3471  0.3589  0.8022
 9522TIP3    H250058   4.425   6.605   5.204  1.2163 -0.6004 -2.0627
 9523TIP3   OH250059   3.414   1.521  15.769  0.3676 -0.3965  0.0027
 9523TIP3    H150060   3.351   1.449  15.767  0.6760 -0.6522 -0.7412
 9523TIP3    H250061   3.426   1.544  15.677  1.6710 -0.6123  0.1058
 9524TIP3   OH250062   5.267   0.884  15.566 -0.3342 -0.1692  0.2432
 9524TIP3    H150063   5.343   0.827  15.578  0.3470  0.7013  0.0867
 9524TIP3    H250064   5.262   0.936  15.647  0.7254  1.5089 -0.7256
 9525TIP3   OH250065   3.956   5.725  12.209 -0.0199  0.2124  0.3134
 9525TIP3    H150066   3.875   5.757  12.248  0.2004  0.9027  0.2110
 9525TIP3    H250067   4.025   5.779  12.247  0.4718 -0.8068  0.8997
 9526TIP3   OH250068   2.480   5.136  14.767  0.3334  0.2159 -0.6005
 9526TIP3    H150069   2.430   5.054  14.766  0.9458 -0.1750 -2.0641
 9526TIP3    H250070   2.518   5.142  14.679  1.1862  1.5321 -0.1734
 9527TIP3   OH250071   0.366   2.025  14.333 -0.6109  0.9992  0.2915
 9527TIP3    H150072   0.279   1.996  14.360 -1.7819 -1.7424 -4.8695
 9527TIP3    H250073   0.351   2.104  14.282 -0.1507  0.5329 -0.6024
 9528TIP3   OH250074   1.324   3.465   1.119 -0.1344  0.0067  0.3865
 9528TIP3    H150075   1.417   3.469   1.140 -0.5950  1.1715  2.4745
 9528TIP3    H250076   1.282   3.523   1.182 -2.2187  0.1306 -0.9999
 9529TIP3   OH250077   1.003   1.500   0.203 -0.6554 -0.4055  0.4456
 9529TIP3    H150078   1.058   1.517   0.279  2.5098 -0.0180 -1.7384
 9529TIP3    H250079   1.001   1.404   0.196  0.4338 -0.4102  0.1034
 9530TIP3   OH250080   5.802   3.074   1.480  0.1742 -0.5272 -0.4706
 9530TIP3    H150081   5.787   3.071   1.574  0.5508  0.2976 -0.3751
 9530TIP3    H250082   5.885   3.027   1.467  0.3423 -0.2694 -0.3371
 9531TIP3   OH250083   0.165   4.416   2.540 -0.1837  0.1101 -0.0640
 9531TIP3    H150084   0.229   4.346   2.525  0.3618  0.9193 -1.6376
 9531TIP3    H250085   0.208   4.475   2.601  1.0344  1.1708 -1.8704
 9532TIP3   OH250086   4.056   4.664  12.007 -0.1708  0.3946  0.0611
 9532TIP3    H150087   4.047   4.670  12.102 -0.0858 -0.4348  0.1249
 9532TIP3    H250088   4.150   4.653  11.992 -0.4268 -2.3749  0.0712
 9533TIP3   OH250089   2.667   4.270   1.132 -0.3557  0.6674 -0.1651
 9533TIP3    H150090   2.579   4.294   1.162 -1.3081 -1.4990 -0.9515
 9533TIP3    H250091   2.718   4.350   1.138 -0.8583  0.9331  5.3934
 9534TIP3   OH250092   5.235   2.265   5.707 -0.3323 -0.7564 -0.2256
 9534TIP3    H150093   5.253   2.175   5.681  0.1433 -0.4884 -0.8648
 9534TIP3    H250094   5.289   2.318   5.648 -0.5377 -0.0580  0.2006
 9535TIP3   OH250095   3.423   4.874   5.787 -0.2919  0.4304 -0.5344
 9535TIP3    H150096   3.480   4.934   5.739 -1.7819  1.4532 -1.1184
 9535TIP3    H250097   3.451   4.787   5.760  2.3569  0.7798  0.8188
 9536TIP3   OH250098   4.678   0.467   3.512 -0.0542 -0.1058 -0.3082
 9536TIP3    H150099   4.649   0.523   3.440 -2.0836 -2.7774 -1.7712
 9536TIP3    H250100   4.767   0.443   3.488  0.1007  0.8358 -0.7373
 9537TIP3   OH250101   4.903   6.125   3.863 -0.3382 -0.0037  0.7090
 9537TIP3    H150102   4.993   6.145   3.890  0.5725 -1.2730 -1.1946
 9537TIP3    H250103   4.850   6.192   3.906  1.6340  1.4732  0.9898
 9538TIP3   OH250104   6.317   0.096   2.061  0.5250 -0.1923  0.4035
 9538TIP3    H150105   6.351   0.152   2.130 -0.0334 -0.4931  0.9370
 9538TIP3    H250106   6.378   0.022   2.057  0.9307  0.1599  0.1086
 9539TIP3   OH250107   4.677   0.450   1.068 -0.6402  0.3983  0.5872
 9539TIP3    H150108   4.642   0.489   1.149  0.0997  0.3438  0.9424
 9539TIP3    H250109   4.677   0.522   1.005 -0.6540  0.5962  0.8119
 9540TIP3   OH250110   5.953   4.388  15.577  0.3617  0.2321 -0.5976
 9540TIP3    H150111   5.995   4.391  15.663  1.4990 -1.3381 -1.0607
 9540TIP3    H250112   5.929   4.296  15.565 -3.5876  1.0360 -0.2593
 9541TIP3   OH250113   5.928   0.581   6.401  0.2458 -0.1650 -0.1017
 9541TIP3    H150114   5.941   0.659   6.456  0.8156  0.3554 -0.9663
 9541TIP3    H250115   5.835   0.585   6.377  0.4291  0.6413 -0.7187
 9542TIP3   OH250116   6.338   0.319   6.486  0.1820  0.3487 -0.1891
 9542TIP3    H150117   6.313   0.235   6.449 -2.0940  1.0543 -0.4238
 9542TIP3    H250118   6.300   0.384   6.426  2.4836  1.6128 -0.4226
 9543TIP3   OH250119   0.858   5.099   5.291  0.1177 -0.9898  0.4832
 9543TIP3    H150120   0.780   5.113   5.237  0.3929 -0.0113  0.3094
 9543TIP3    H250121   0.834   5.134   5.377  0.1741 -1.1983  0.5828
 9544TIP3   OH250122   5.494   2.503   3.626 -0.1567  0.1632  0.5625
 9544TIP3    H150123   5.413   2.517   3.577 -0.4548  1.8523  1.4788
 9544TIP3    H250124   5.559   2.554   3.579  0.1139 -0.1813  0.5566
 9545TIP3   OH250125   2.543   4.428  13.272 -0.1902  0.3913 -0.3514
 9545TIP3    H150126   2.544   4.380  13.355 -0.4988 -2.6920 -1.9822
 9545TIP3    H250127   2.561   4.518  13.297  1.1331 -0.6105  2.9217
 9546TIP3   OH250128   2.764   5.481  16.644 -0.3656  0.3840 -0.2152
 9546TIP3    H150129   2.806   5.565  16.667 -0.0071  0.7361 -2.0065
 9546TIP3    H250130   2.682   5.507  16.602 -0.3919 -0.1748 -0.5080
 9547TIP3   OH250131   2.323   1.064   2.673  0.0210  0.3852 -0.4129
 9547TIP3    H150132   2.397   1.022   2.629  0.5560 -0.4538  1.1936
 9547TIP3    H250133   2.344   1.056   2.766 -1.2127  1.8016  0.0170
 9548TIP3   OH250134   4.937   5.859   5.620  0.0220 -0.2560 -0.0676
 9548TIP3    H150135   4.945   5.786   5.682 -0.4854  1.1075  1.7204
 9548TIP3    H250136   5.004   5.921   5.648 -0.5356  0.6007 -0.5798
 9549TIP3   OH250137   2.262   4.813  16.473 -0.1111  0.0251 -0.7107
 9549TIP3    H150138   2.254   4.731  16.521 -2.7073 -0.7516 -2.2482
 9549TIP3    H250139   2.243   4.790  16.382 -2.0836  2.4473 -1.0272
 9550TIP3   OH250140   4.207   0.719  12.165  0.3421 -0.3440  0.2063
 9550TIP3    H150141   4.222   0.785  12.233  1.8027  0.4183 -0.8000
 9550TIP3    H250142   4.275   0.653  12.181  1.4729  0.4291 -1.1715
 9551TIP3   OH250143   3.833   0.669   3.182  0.4155  0.5367 -0.0145
 9551TIP3    H150144   3.862   0.681   3.091  0.4250  0.6538  0.0047
 9551TIP3    H250145   3.864   0.581   3.205 -0.4508  0.1025 -0.4486
 9552TIP3   OH250146   6.275   4.755  11.907  0.4026 -0.5722  0.2104
 9552TIP3    H150147   6.225   4.817  11.961 -0.4955 -1.5552  0.5299
 9552TIP3    H250148   6.213   4.685  11.887  1.8338 -2.2229  1.2661
 9553TIP3   OH250149   4.938   6.162  15.399  0.6204  0.1225  0.2741
 9553TIP3    H150150   5.030   6.137  15.392  0.8356  0.4931  1.4542
 9553TIP3    H250151   4.941   6.257  15.413  0.0853  0.0932  0.6089
 9554TIP3   OH250152   5.740   0.447  13.452 -0.3284 -0.1872  0.1820
 9554TIP3    H150153   5.725   0.522  13.511 -1.2334  0.9694 -1.4454
 9554TIP3    H250154   5.834   0.446  13.437 -0.2000  0.0602  0.9254
 9555TIP3   OH250155   4.654   3.093   5.330 -0.2090 -0.1612  0.6574
 9555TIP3    H150156   4.613   3.158   5.273 -0.1938 -0.5134  0.2358
 9555TIP3    H250157   4.746   3.117   5.331 -0.1423 -0.3762  0.2146
 9556TIP3   OH250158   1.577   4.078  12.754 -0.2569 -0.1322  0.0086
 9556TIP3    H150159   1.567   4.169  12.726 -0.3328 -0.4943 -1.2288
 9556TIP3    H250160   1.671   4.067  12.766 -0.2794  0.2026  0.5361
 9557TIP3   OH250161   3.486   3.315  11.361 -0.2781 -0.1369  0.5641
 9557TIP3    H150162   3.554   3.304  11.295  0.1642 -1.9977  1.2559
 9557TIP3    H250163   3.532   3.355  11.436  0.9684 -4.0892  2.1729
 9558TIP3   OH250164   6.271   5.235  13.519 -0.5167  0.2454  0.5751
 9558TIP3    H150165   6.255   5.184  13.598  2.3338 -0.6378  0.7051
 9558TIP3    H250166   6.310   5.173  13.457  0.3384  1.6257 -0.3329
 9559TIP3   OH250167   2.111   1.633  15.421 -0.0295 -0.1473  0.1182
 9559TIP3    H150168   2.028   1.676  15.440  0.3999  0.4009  0.7859
 9559TIP3    H250169   2.125   1.649  15.328 -1.1679 -1.1331 -0.2473
 9560TIP3   OH250170   4.669   0.016  11.903  0.2837  0.2712  0.1028
 9560TIP3    H150171   4.641  -0.057  11.958  1.0255  0.3681  0.6196
 9560TIP3    H250172   4.652  -0.014  11.813  0.7388 -0.6164  0.2960
 9561TIP3   OH250173   0.537   3.321  12.289  0.3162 -0.3370  0.0119
 9561TIP3    H150174   0.521   3.357  12.376 -0.9076 -2.7525  0.8858
 9561TIP3    H250175   0.484   3.375  12.230  0.1263  0.5217  0.9573
 9562TIP3   OH250176   3.043   3.402  11.757 -0.2033  0.4624  0.2588
 9562TIP3    H150177   3.099   3.451  11.817 -0.4155  0.6127  0.3350
 9562TIP3    H250178   3.043   3.453  11.676 -1.0991  1.0400  0.6068
 9563TIP3   OH250179   1.226   1.592  13.496  0.1008  0.5756  0.3413
 9563TIP3    H150180   1.225   1.605  13.591  0.9961  3.5386  0.0535
 9563TIP3    H250181   1.211   1.680  13.459  2.4960  0.0714 -2.2256
 9564TIP3   OH250182   6.035   0.281   4.926 -0.5148  0.5829  0.7410
 9564TIP3    H150183   6.063   0.193   4.902  1.0705  0.1675  3.5764
 9564TIP3    H250184   6.090   0.304   5.001 -1.1370  3.8673  0.3552
 9565TIP3   OH250185   3.847   0.068  11.304  0.1734  0.2795 -0.4212
 9565TIP3    H150186   3.935   0.073  11.342 -0.0738  1.9010  0.0073
 9565TIP3    H250187   3.803   0.000  11.355  1.4742 -1.3393 -1.3490
 9566TIP3   OH250188   6.150   6.099  13.637 -0.1416  0.2712 -0.7594
 9566TIP3    H150189   6.245   6.097  13.649 -0.0862  1.3946 -0.8998
 9566TIP3    H250190   6.136   6.061  13.550  0.2746  0.9413 -1.1325
 9567TIP3   OH250191   0.092   1.558   3.899 -0.2737 -0.3184 -0.5203
 9567TIP3    H150192   0.097   1.587   3.990  0.3097  0.6028 -0.8309
 9567TIP3    H250193   0.017   1.498   3.897 -0.8365  0.3267  0.3886
 9568TIP3   OH250194   0.671   0.532   3.233 -0.0923  0.3225  0.1426
 9568TIP3    H150195   0.762   0.551   3.212 -0.7290  0.4441 -3.0885
 9568TIP3    H250196   0.669   0.438   3.249  0.4802  0.1595 -0.6851
 9569TIP3   OH250197   5.334   0.679   3.612  0.4731 -0.3080 -0.2509
 9569TIP3    H150198   5.273   0.735   3.661  1.2134  0.1901  0.1208
 9569TIP3    H250199   5.323   0.592   3.651 -0.6523 -0.4283 -0.7998
 9570TIP3   OH250200   2.860   3.011  12.216 -0.1017 -0.2657 -0.1688
 9570TIP3    H150201   2.884   3.030  12.125 -1.6712  1.8937 -0.1943
 9570TIP3    H250202   2.860   2.915  12.220  0.4766 -0.4222 -2.2955
 9571TIP3   OH250203   2.514   2.504  13.720 -0.5181  0.5879  0.7028
 9571TIP3    H150204   2.553   2.577  13.671 -0.8323  1.2533  1.4214
 9571TIP3    H250205   2.582   2.478  13.782  0.3246 -1.0240 -0.8046
 9572TIP3   OH250206   5.897   6.335   0.397 -0.9265 -0.7546  0.4770
 9572TIP3    H150207   5.804   6.342   0.374 -1.0088 -1.0955  0.6988
 9572TIP3    H250208   5.898   6.335   0.493 -0.6531 -0.1837  0.4754
 9573TIP3   OH250209   0.980   3.808   4.566  0.2154 -0.1047 -0.1916
 9573TIP3    H150210   0.958   3.723   4.605 -0.9867  1.0489  1.8356
 9573TIP3    H250211   0.919   3.817   4.492  0.9680 -1.3528 -1.0059
 9574TIP3   OH250212   6.395   3.182  11.246 -0.7286  0.0749  0.2047
 9574TIP3    H150213   6.305   3.204  11.220 -0.6806 -0.1770 -0.1811
 9574TIP3    H250214   6.450   3.235  11.188 -0.6263  0.8053  0.9492
 9575TIP3   OH250215   3.206   3.756   2.176 -0.0401 -0.0159 -0.2798
 9575TIP3    H150216   3.286   3.805   2.193 -0.9137  1.2802  0.2096
 9575TIP3    H250217   3.214   3.728   2.085  0.8917  0.2360 -0.2854
 9576TIP3   OH250218   0.407   3.168   0.862 -0.2654 -0.0240 -0.4335
 9576TIP3    H150219   0.365   3.147   0.946  0.2459  0.4871 -0.0473
 9576TIP3    H250220   0.442   3.084   0.832  0.6423  0.0078  0.4839
 9577TIP3   OH250221   6.818   1.838  12.837 -0.5734  0.8262  0.4975
 9577TIP3    H150222   6.778   1.866  12.755 -0.6753 -0.2562  0.1636
 9577TIP3    H250223   6.770   1.886  12.905 -1.8041  0.2777  0.0434
 9578TIP3   OH250224   3.014   4.455   0.807  0.5707 -0.0312 -0.1001
 9578TIP3    H150225   2.952   4.405   0.753  0.6533 -1.2820  0.9266
 9578TIP3    H250226   3.057   4.514   0.745  0.0232 -0.7915 -1.2396
 9579TIP3   OH250227   1.156   3.903  15.474 -0.0777 -0.3305 -0.2446
 9579TIP3    H150228   1.142   3.829  15.415  2.2538 -0.0440 -1.2591
 9579TIP3    H250229   1.214   3.962  15.426  0.3292  0.8526  1.5870
 9580TIP3   OH250230   0.647   6.247   0.777 -0.2512  0.3887  0.2187
 9580TIP3    H150231   0.589   6.216   0.847 -0.6595  1.2754  0.2868
 9580TIP3    H250232   0.591   6.301   0.721  0.6197  1.8234  0.6545
 9581TIP3   OH250233   2.262   6.310   4.442 -0.3197 -0.1199 -0.1659
 9581TIP3    H150234   2.327   6.241   4.428  0.5830  0.9931 -1.6677
 9581TIP3    H250235   2.225   6.289   4.528  1.2243 -1.4203  0.2479
 9582TIP3   OH250236   2.333   5.078   1.103 -0.3457  0.2929 -0.6676
 9582TIP3    H150237   2.295   4.990   1.110  0.6579 -0.0110  4.1178
 9582TIP3    H250238   2.263   5.137   1.133  0.2974  0.6344  0.1899
 9583TIP3   OH250239   2.169   0.336   2.208 -0.2901 -0.0325 -0.1917
 9583TIP3    H150240   2.186   0.335   2.303  1.0009 -0.7062 -0.4065
 9583TIP3    H250241   2.074   0.337   2.201 -0.4232  1.2575  1.1117
 9584TIP3   OH250242   3.021   0.742  10.356 -0.0523 -0.2988 -0.8509
 9584TIP3    H150243   3.054   0.800  10.286 -0.1233  1.4839  0.5151
 9584TIP3    H250244   3.071   0.661  10.345  0.7753  0.3564 -2.2454
 9585TIP3   OH250245   2.643   3.292   3.409 -0.0623  0.5363  0.1811
 9585TIP3    H150246   2.568   3.351   3.400 -1.0709 -0.7882 -0.5411
 9585TIP3    H250247   2.716   3.349   3.433 -0.8627  2.1456 -1.0044
 9586TIP3   OH250248   4.349   2.449  16.987 -0.7342 -0.2517 -0.7996
 9586TIP3    H150249   4.420   2.465  17.049  0.4191 -0.5398 -2.0029
 9586TIP3    H250250   4.280   2.407  17.039  0.9057 -2.1461 -0.0614
 9587TIP3   OH250251   0.978   6.371   5.308  0.1582 -0.4947  0.4857
 9587TIP3    H150252   1.053   6.428   5.292  0.5552 -1.1155  0.0901
 9587TIP3    H250253   1.014   6.298   5.358 -0.0383 -1.1311 -0.2807
 9588TIP3   OH250254   2.975   4.781   6.024  0.1031  0.2161  0.2944
 9588TIP3    H150255   2.922   4.709   6.060  0.1543 -0.5950 -1.1944
 9588TIP3    H250256   3.056   4.779   6.076 -0.5081  0.2128  1.2864
 9589TIP3   OH250257   2.592   4.384   4.181  0.0479 -0.0020  0.1204
 9589TIP3    H150258   2.637   4.454   4.135 -0.5551 -1.1473 -2.4220
 9589TIP3    H250259   2.520   4.427   4.227 -0.7083  1.0644 -1.9206
 9590TIP3   OH250260   6.497   2.265  13.658  0.4170 -0.4930 -0.7110
 9590TIP3    H150261   6.436   2.311  13.715  0.6041 -0.2096 -0.7384
 9590TIP3    H250262   6.464   2.175  13.655 -0.5188 -0.1426 -1.4513
 9591TIP3   OH250263   4.656   0.966   2.099  0.2288  0.1932  0.2138
 9591TIP3    H150264   4.618   0.879   2.087 -0.5417  0.6727 -1.0762
 9591TIP3    H250265   4.738   0.963   2.051 -0.0091  0.3014 -0.2055
 9592TIP3   OH250266   5.124   0.427  16.855  0.2609 -0.0996 -0.8464
 9592TIP3    H150267   5.142   0.492  16.788 -0.2528  0.1174 -0.7742
 9592TIP3    H250268   5.072   0.473  16.921 -1.7854 -1.0511 -1.7179
 9593TIP3   OH250269   3.446   2.547   4.860  1.0533 -0.0335  0.3394
 9593TIP3    H150270   3.444   2.640   4.881  1.5541  0.3807 -1.3001
 9593TIP3    H250271   3.468   2.544   4.767  0.0802 -1.7570  0.1216
 9594TIP3   OH250272   5.580   1.360   4.353 -0.5006  0.4120 -0.0022
 9594TIP3    H150273   5.510   1.303   4.383 -0.8788 -0.6983 -2.7154
 9594TIP3    H250274   5.624   1.311   4.284  1.4062  2.0651 -0.0873
 9595TIP3   OH250275   1.545   2.976  11.840  0.1419 -0.4891 -0.3568
 9595TIP3    H150276   1.462   2.970  11.889  0.6220  0.2960  0.5869
 9595TIP3    H250277   1.610   2.939  11.899  0.5533 -0.6005 -0.8795
 9596TIP3   OH250278   0.331   3.644  12.817 -0.0554 -0.0466 -0.4628
 9596TIP3    H150279   0.359   3.718  12.870  0.3230  0.5971 -1.5333
 9596TIP3    H250280   0.403   3.581  12.823  0.1836  0.2143 -0.5677
 9597TIP3   OH250281   2.888   0.873   4.818 -0.5221  0.3929 -0.1774
 9597TIP3    H150282   2.967   0.917   4.850  0.0309 -1.8297  1.7829
 9597TIP3    H250283   2.839   0.852   4.897 -0.4576 -2.9227 -0.8970
 9598TIP3   OH250284   5.570   1.582   4.201 -0.1696  0.2447  0.1133
 9598TIP3    H150285   5.597   1.533   4.123 -0.3756  0.4287 -0.0744
 9598TIP3    H250286   5.551   1.514   4.266 -0.0655  0.0874 -0.0191
 9599TIP3   OH250287   2.757   4.862  10.727 -0.2478 -0.1583 -0.4266
 9599TIP3    H150288   2.684   4.800  10.738 -1.2091  0.7017 -1.5978
 9599TIP3    H250289   2.770   4.900  10.813 -1.0025 -0.5301 -0.1386
 9600TIP3   OH250290   0.127   6.628   1.187 -0.4123  0.2638  0.4555
 9600TIP3    H150291   0.186   6.626   1.262  1.1471 -0.6989 -0.7621
 9600TIP3    H250292   0.075   6.708   1.201  2.3712  2.1845  0.6854
 9601TIP3   OH250293   4.520   0.558  11.889  0.4854 -0.5378  0.2636
 9601TIP3    H150294   4.425   0.556  11.883  0.4468  1.8349 -1.1878
 9601TIP3    H250295   4.548   0.480  11.840 -0.6644 -1.5504  1.1367
 9602TIP3   OH250296   2.988   3.932   3.699 -0.1966 -0.0948 -0.5857
 9602TIP3    H150297   2.898   3.958   3.682  0.4179  0.9588 -2.3472
 9602TIP3    H250298   3.030   4.010   3.735 -0.2261 -0.9180  1.4295
 9603TIP3   OH250299   1.209   0.031  13.038  0.0655  0.1426 -0.6674
 9603TIP3    H150300   1.153  -0.012  13.103  0.9588  1.1898  0.8550
 9603TIP3    H250301   1.202  -0.025  12.961 -2.6067 -0.0939 -0.3723
 9604TIP3   OH250302   3.841   2.374  15.202  0.1926 -0.5499 -0.1958
 9604TIP3    H150303   3.819   2.363  15.110 -1.2180  2.0474 -0.2554
 9604TIP3    H250304   3.812   2.293  15.243 -1.7642 -0.6301 -1.6223
 9605TIP3   OH250305   2.555   1.319  11.536  0.1067  0.3311  0.4998
 9605TIP3    H150306   2.469   1.356  11.516  0.6840  2.1897  1.1621
 9605TIP3    H250307   2.544   1.225  11.529 -2.4850  0.3762  2.3824
 9606TIP3   OH250308   0.825   5.645  12.006  0.5584 -0.2339  0.4561
 9606TIP3    H150309   0.903   5.608  11.965  2.6093  1.2907  2.6515
 9606TIP3    H250310   0.799   5.580  12.071  0.4896 -0.4105  0.2510
 9607TIP3   OH250311   5.672   1.820  11.434  0.3196 -1.0592 -0.4077
 9607TIP3    H150312   5.681   1.726  11.450  1.2334 -0.6579  1.8012
 9607TIP3    H250313   5.578   1.837  11.447 -0.0390 -1.8096 -1.8809
 9608TIP3   OH250314   1.651   5.276   0.593  0.1146 -0.3032 -0.1246
 9608TIP3    H150315   1.745   5.291   0.585  0.1374 -0.6257 -0.4535
 9608TIP3    H250316   1.643   5.191   0.636 -0.0303 -0.0816  0.3071
 9609TIP3   OH250317   2.813   2.917  14.112 -0.1414 -0.2469 -0.3021
 9609TIP3    H150318   2.887   2.955  14.159  0.1198 -1.2110  0.0986
 9609TIP3    H250319   2.851   2.879  14.033 -0.1696 -0.8527 -0.0349
 9610TIP3   OH250320   3.916   1.559   4.363 -0.2407 -0.0078  0.2787
 9610TIP3    H150321   3.865   1.526   4.437 -1.4162 -0.1856 -0.5752
 9610TIP3    H250322   3.941   1.481   4.314  1.8147 -0.0134  1.2413
 9611TIP3   OH250323   2.566   2.769   1.613 -0.1774  0.5487  0.5447
 9611TIP3    H150324   2.648   2.734   1.578 -0.0475  1.0607  0.3375
 9611TIP3    H250325   2.558   2.856   1.575 -0.9516  0.4085  0.3541
 9612TIP3   OH250326   4.281   4.992  15.304 -0.1000  0.2742 -0.2379
 9612TIP3    H150327   4.332   4.974  15.383  0.6322  3.3699  0.1313
 9612TIP3    H250328   4.190   4.995  15.333 -0.2965 -2.4870 -0.3572
 9613TIP3   OH250329   2.870   5.051  13.112  0.3509 -0.2959 -0.2502
 9613TIP3    H150330   2.949   5.028  13.160  0.6588  0.5285 -0.3487
 9613TIP3    H250331   2.883   5.015  13.025  0.4753 -0.4327 -0.1750
 9614TIP3   OH250332   4.393   1.640  17.162 -0.2875 -0.5027 -0.3396
 9614TIP3    H150333   4.367   1.732  17.154 -0.4932 -0.2888  2.1486
 9614TIP3    H250334   4.464   1.630  17.098  1.0828  1.9458  0.6492
 9615TIP3   OH250335   2.131   1.907   1.176 -0.2614 -0.2972  0.4922
 9615TIP3    H150336   2.151   1.926   1.268 -0.9404  0.5307  0.4887
 9615TIP3    H250337   2.189   1.835   1.153 -0.7123 -1.1509  1.8429
 9616TIP3   OH250338   5.534   5.219   4.639  0.1806 -0.2300 -0.2504
 9616TIP3    H150339   5.567   5.151   4.698 -0.2679 -0.5810 -0.3961
 9616TIP3    H250340   5.464   5.176   4.590  0.8100 -0.0606 -1.3245
 9617TIP3   OH250341   3.983   4.596   2.107  0.5129 -0.2182 -0.1929
 9617TIP3    H150342   3.910   4.547   2.145  1.1706 -0.1282  1.2503
 9617TIP3    H250343   3.945   4.680   2.082 -0.1656 -0.6748 -0.7458
 9618TIP3   OH250344   4.658   4.862   6.551  0.6510  0.5987 -0.4648
 9618TIP3    H150345   4.737   4.877   6.499  1.0449  0.4499  0.0730
 9618TIP3    H250346   4.590   4.842   6.488  0.8947  1.3609 -0.9843
 9619TIP3   OH250347   1.368   2.382   1.736  0.1163 -0.4431  0.3365
 9619TIP3    H150348   1.287   2.390   1.787  1.4658  0.2715  2.5174
 9619TIP3    H250349   1.391   2.289   1.741  0.1166 -0.4159  0.8232
 9620TIP3   OH250350   5.653   0.644  11.211 -0.1528  0.0953 -0.5702
 9620TIP3    H150351   5.641   0.617  11.120  1.9042 -1.7526 -0.3719
 9620TIP3    H250352   5.600   0.583  11.262 -0.7920  0.7214 -0.4715
 9621TIP3   OH250353   4.702   2.788   0.915  0.1738  0.0742 -0.1043
 9621TIP3    H150354   4.693   2.847   0.990 -0.2475  0.1659 -0.2248
 9621TIP3    H250355   4.683   2.843   0.839  2.6733  0.5345 -0.4967
 9622TIP3   OH250356   3.495   1.942  12.062  0.2591 -0.4057 -0.1896
 9622TIP3    H150357   3.440   1.883  12.011  1.7430 -0.5190 -1.7539
 9622TIP3    H250358   3.583   1.929  12.027  1.1183  0.5751  1.4688
 9623TIP3   OH250359   3.769   5.996   2.692 -0.1483 -0.0070  0.0085
 9623TIP3    H150360   3.812   5.953   2.618  1.7006  1.7269 -0.0160
 9623TIP3    H250361   3.732   6.076   2.655  2.3080  1.7848  1.1467
 9624TIP3   OH250362   4.655   5.367  15.970  0.0376  0.1650 -0.4248
 9624TIP3    H150363   4.685   5.382  16.059  1.6760  0.9644 -1.0638
 9624TIP3    H250364   4.635   5.455  15.937 -0.0319 -0.0673 -1.0136
 9625TIP3   OH250365   0.985   0.264  16.973  0.4971  0.2740  0.3875
 9625TIP3    H150366   0.973   0.197  17.039  1.2113 -0.3811 -0.1253
 9625TIP3    H250367   0.992   0.346  17.022 -1.8493  0.1943  0.9375
 9626TIP3   OH250368   5.807   2.979  12.348 -0.0734 -0.3378 -0.0410
 9626TIP3    H150369   5.749   2.963  12.274 -2.0918 -1.2560  1.6149
 9626TIP3    H250370   5.787   2.909  12.410  1.7091  0.2326  1.2964
 9627TIP3   OH250371   5.025   5.304   2.532  0.0337 -0.2365 -0.1712
 9627TIP3    H150372   5.105   5.299   2.584  1.2816  1.2875 -1.8091
 9627TIP3    H250373   5.056   5.317   2.442 -2.0476  2.6723 -0.5905
 9628TIP3   OH250374   6.259   2.400  16.902  0.3619  0.5548 -0.2637
 9628TIP3    H150375   6.287   2.309  16.890  3.3763  1.5282 -1.5471
 9628TIP3    H250376   6.276   2.418  16.994 -1.7421 -0.5229  0.4244
 9629TIP3   OH250377   4.167   2.421  13.301 -0.2080  0.3600 -0.0402
 9629TIP3    H150378   4.234   2.376  13.352  0.9060  0.5086 -1.3104
 9629TIP3    H250379   4.214   2.455  13.224 -1.7335  0.4881 -0.9622
 9630TIP3   OH250380   1.177   5.096  13.958 -0.2440  0.5840 -0.4553
 9630TIP3    H150381   1.161   5.004  13.940 -0.3876  0.2867  1.0569
 9630TIP3    H250382   1.127   5.143  13.891  0.4629 -0.4085 -1.7397
 9631TIP3   OH250383   5.128   4.199   5.323  0.4059  0.4223  0.1534
 9631TIP3    H150384   5.049   4.178   5.272 -0.0028 -0.7049  1.2155
 9631TIP3    H250385   5.189   4.129   5.303  0.4681  0.3089  0.7368
 9632TIP3   OH250386   4.311   3.384   6.671  0.1397  0.2845  0.5211
 9632TIP3    H150387   4.312   3.480   6.677  0.6687  0.3070  0.1578
 9632TIP3    H250388   4.261   3.366   6.592 -0.8763  0.2160  1.1581
 9633TIP3   OH250389   6.412   0.840  11.148 -0.0050  0.2850 -0.1703
 9633TIP3    H150390   6.357   0.815  11.073  0.5098 -2.2863  0.2061
 9633TIP3    H250391   6.361   0.813  11.224  0.6127  0.4115  0.2874
 9634TIP3   OH250392   4.402   6.533   4.005  0.8037  0.2629 -0.4858
 9634TIP3    H150393   4.310   6.504   4.003  0.7114  0.5793 -1.0206
 9634TIP3    H250394   4.399   6.618   4.049  0.9748 -0.1610  0.3772
 9635TIP3   OH250395   3.380   0.000   2.786 -0.6382  0.7036 -0.2880
 9635TIP3    H150396   3.459  -0.006   2.732 -0.7838  0.9332 -0.5319
 9635TIP3    H250397   3.401  -0.049   2.866 -0.5994 -0.0569 -0.7566
 9636TIP3   OH250398   0.374   2.521  12.645 -0.2328 -0.0489 -0.5707
 9636TIP3    H150399   0.365   2.507  12.551 -0.5639 -0.4720 -0.4811
 9636TIP3    H250400   0.412   2.440  12.678 -1.6728 -0.5699 -0.1151
 9637TIP3   OH250401   5.259   5.077   1.882 -0.4067 -0.2598  0.0130
 9637TIP3    H150402   5.297   5.118   1.805 -1.0420  0.8969  0.2874
 9637TIP3    H250403   5.301   4.991   1.887 -0.9058 -0.6717 -2.0328
 9638TIP3   OH250404   2.650   2.095  13.519  0.7731  0.2280  0.1727
 9638TIP3    H150405   2.617   2.184  13.530  0.1939 -0.0383  0.6294
 9638TIP3    H250406   2.591   2.054  13.456 -0.0217 -0.3658  1.2760
 9639TIP3   OH250407   0.815   6.243  12.127  0.2601 -0.6404  0.3126
 9639TIP3    H150408   0.865   6.312  12.172 -0.9397  0.6464 -0.2347
 9639TIP3    H250409   0.866   6.163  12.142  1.1875  0.1740  1.8242
 9640TIP3   OH250410   5.788   2.727  16.964  0.4515  0.0798 -0.0955
 9640TIP3    H150411   5.777   2.800  16.903 -1.6205 -1.5811 -1.9040
 9640TIP3    H250412   5.832   2.659  16.913 -1.1189 -1.2626  0.2205
 9641TIP3   OH250413   5.685   2.066   0.659  0.3687  0.6890  0.1145
 9641TIP3    H150414   5.647   1.987   0.697  0.0780  0.4502 -0.6608
 9641TIP3    H250415   5.669   2.058   0.565  0.0466  1.8349  0.0619
 9642TIP3   OH250416   2.075   1.216  15.715 -0.0651 -0.1952  0.2896
 9642TIP3    H150417   1.994   1.262  15.690 -0.8152 -0.6686  1.7043
 9642TIP3    H250418   2.125   1.209  15.634 -0.2318  2.4601 -0.1374
 9643TIP3   OH250419   5.574   5.109  14.490 -0.1997  0.0197 -0.3452
 9643TIP3    H150420   5.522   5.174  14.443  0.7981  0.8119 -0.4011
 9643TIP3    H250421   5.512   5.040  14.512 -0.7056 -0.3755 -2.7775
 9644TIP3   OH250422   3.401   6.136   2.161 -0.1469 -0.0119  0.3816
 9644TIP3    H150423   3.387   6.063   2.222  0.8124  0.3491  1.0594
 9644TIP3    H250424   3.325   6.193   2.174 -0.6861 -0.6681  0.1603
 9645TIP3   OH250425   0.798   0.038  14.817 -0.4463 -0.0334 -0.0373
 9645TIP3    H150426   0.705   0.048  14.800 -0.0969  3.6974 -0.6781
 9645TIP3    H250427   0.819   0.107  14.881  2.0929  0.3196 -1.1126
 9646TIP3   OH250428   2.995   0.885   0.386 -0.3720  0.8212 -0.5420
 9646TIP3    H150429   2.910   0.929   0.380 -1.5282 -1.2044  0.2833
 9646TIP3    H250430   3.058   0.952   0.359 -2.2221  2.3266 -1.3524
 9647TIP3   OH250431   0.206   1.672  16.287 -0.2259 -0.4029 -0.4080
 9647TIP3    H150432   0.264   1.653  16.361  2.8209 -2.7906 -3.1014
 9647TIP3    H250433   0.233   1.759  16.257  0.0393 -0.3431  0.0029
 9648TIP3   OH250434   1.594   5.993   0.234 -0.6489 -0.0622  0.2044
 9648TIP3    H150435   1.607   6.078   0.275 -1.5273  0.2138 -0.0765
 9648TIP3    H250436   1.578   5.934   0.308 -2.3725  0.4608  0.2985
 9649TIP3   OH250437   6.361   4.923   4.387 -0.4053  0.3421 -0.7611
 9649TIP3    H150438   6.441   4.871   4.380 -0.7319 -0.0942 -1.4044
 9649TIP3    H250439   6.384   4.995   4.446  0.0513 -0.5334  0.1563
 9650TIP3   OH250440   6.311   0.963  12.218 -0.0281  0.1732  0.2447
 9650TIP3    H150441   6.224   0.929  12.234  0.2142  0.2197  1.7388
 9650TIP3    H250442   6.363   0.886  12.192 -0.7712  0.3408 -1.9969
 9651TIP3   OH250443   0.674   4.306  14.498  0.5843 -0.0718  1.0493
 9651TIP3    H150444   0.694   4.354  14.416 -0.1210 -0.5721  0.5793
 9651TIP3    H250445   0.584   4.331  14.519  0.2407 -1.1133  0.8502
 9652TIP3   OH250446   2.633   5.321   4.163 -0.4224 -0.2562  0.3793
 9652TIP3    H150447   2.694   5.385   4.200  0.1792 -1.1458  0.9465
 9652TIP3    H250448   2.618   5.258   4.233 -2.6379  0.3548  0.5369
 9653TIP3   OH250449   4.558   0.811   2.347  0.4118 -0.3735  0.1275
 9653TIP3    H150450   4.649   0.796   2.373 -0.0703  0.6038  2.6711
 9653TIP3    H250451   4.556   0.901   2.315  0.3383 -0.4229 -0.0092
 9654TIP3   OH250452   5.705   5.280  16.967 -0.0061  0.0354  0.4371
 9654TIP3    H150453   5.696   5.277  17.063 -1.0242  0.6788  0.3717
 9654TIP3    H250454   5.754   5.200  16.946  2.1980  0.9617  1.6824
 9655TIP3   OH250455   4.563   2.692   4.576  0.5432 -0.1684 -0.1188
 9655TIP3    H150456   4.492   2.664   4.517 -0.6340  1.2878  0.5510
 9655TIP3    H250457   4.578   2.617   4.633 -1.3693 -0.0963  0.5465
 9656TIP3   OH250458   1.445   5.447  15.624  0.6393 -0.3514  0.2007
 9656TIP3    H150459   1.389   5.484  15.692 -1.7477 -1.2655 -1.1421
 9656TIP3    H250460   1.456   5.517  15.560 -1.6189 -0.9976 -1.0108
 9657TIP3   OH250461   6.707   5.124   4.339 -0.1709  0.2230  0.4047
 9657TIP3    H150462   6.777   5.066   4.369  1.2847  0.0153 -3.0320
 9657TIP3    H250463   6.637   5.064   4.311  0.0419  0.2448 -0.1802
 9658TIP3   OH250464   3.433   4.054   4.576  0.3200 -0.6962 -0.4904
 9658TIP3    H150465   3.515   4.070   4.623  1.4783  4.4081 -3.4167
 9658TIP3    H250466   3.460   4.040   4.486 -1.9798 -0.7218 -1.2356
 9659TIP3   OH250467   1.915   0.036   2.085 -0.0135  0.5301  0.0534
 9659TIP3    H150468   1.929   0.018   1.991  2.1485 -1.7053  0.6923
 9659TIP3    H250469   2.003   0.034   2.123 -0.9482 -0.0167  2.3524
 9660TIP3   OH250470   6.698   1.632  10.512 -0.3871 -0.0431  0.4301
 9660TIP3    H150471   6.793   1.625  10.514 -0.4164 -0.3891  2.3438
 9660TIP3    H250472   6.669   1.549  10.476  0.0434  0.6826 -1.7189
 9661TIP3   OH250473   6.190   3.987  16.427  0.4116  0.1602  0.4550
 9661TIP3    H150474   6.212   4.044  16.501  0.2410  0.8280 -0.0014
 9661TIP3    H250475   6.249   4.015  16.357  1.2081 -1.0750  0.5886
 9662TIP3   OH250476   5.417   2.802   3.045  0.3524  0.0794 -0.2179
 9662TIP3    H150477   5.365   2.723   3.029  1.9641 -0.9585 -0.6821
 9662TIP3    H250478   5.493   2.792   2.987  0.8850  1.7043  0.1490
 9663TIP3   OH250479   3.232   5.097  15.470  0.2655 -0.1516 -0.5754
 9663TIP3    H150480   3.256   5.189  15.486 -0.2358 -0.0945 -0.1449
 9663TIP3    H250481   3.153   5.103  15.416 -0.9307 -0.3044  1.1048
 9664TIP3   OH250482   3.042   4.877  14.818  0.1683  0.9522  0.0879
 9664TIP3    H150483   3.053   4.782  14.819 -0.9707  0.8121  0.2039
 9664TIP3    H250484   3.124   4.910  14.781  0.3730 -0.0979 -0.4209
 9665TIP3   OH250485   3.192   5.012   5.081  0.0293  0.2589  0.5001
 9665TIP3    H150486   3.099   4.996   5.063 -0.0531  0.7485  0.4729
 9665TIP3    H250487   3.238   4.968   5.010 -0.3442  3.9949 -2.3696
 9666TIP3   OH250488   3.366   6.792   4.685 -0.1797 -0.4652  0.6154
 9666TIP3    H150489   3.362   6.854   4.757 -1.4751  0.6637 -0.3759
 9666TIP3    H250490   3.334   6.709   4.723 -3.5259  0.7488  0.7782
 9667TIP3   OH250491   6.730   6.383  15.417 -0.0409  0.4189  0.3681
 9667TIP3    H150492   6.749   6.474  15.394 -2.7836  1.2135  0.8669
 9667TIP3    H250493   6.730   6.336  15.334  1.8337  0.7360  0.1538
 9668TIP3   OH250494   2.459   0.099  12.759  0.3359 -0.6505 -0.6598
 9668TIP3    H150495   2.533   0.144  12.717  1.0048 -1.0758  0.0439
 9668TIP3    H250496   2.477   0.006  12.745  0.1990 -0.7715 -0.0447
 9669TIP3   OH250497   0.117   2.554   6.243 -0.1399 -0.0304  0.0272
 9669TIP3    H150498   0.039   2.522   6.288 -0.1431 -0.5476 -0.3344
 9669TIP3    H250499   0.084   2.615   6.177 -0.1804  0.3032  0.3569
 9670TIP3   OH250500   5.671   3.792  12.796 -0.1521  0.0061 -0.4724
 9670TIP3    H150501   5.578   3.812  12.791 -0.5024 -0.9086  1.3839
 9670TIP3    H250502   5.698   3.825  12.882  0.7214 -1.6358 -0.0749
 9671TIP3   OH250503   1.709   3.023   6.107  0.2047  0.1646 -0.5354
 9671TIP3    H150504   1.765   2.984   6.174 -0.3475 -0.6692 -0.5472
 9671TIP3    H250505   1.739   2.985   6.025 -3.0853 -3.8186 -0.2060
 9672TIP3   OH250506   2.122   1.385   3.128  0.6918  0.5634  0.0868
 9672TIP3    H150507   2.066   1.380   3.205  2.2271 -0.8205  1.1545
 9672TIP3    H250508   2.149   1.477   3.124 -0.3062  0.8883  0.5081
 9673TIP3   OH250509   0.457   3.452  13.387  0.1864  0.1442  0.2994
 9673TIP3    H150510   0.480   3.485  13.300 -1.6526 -0.1091 -0.3271
 9673TIP3    H250511   0.378   3.500  13.411  0.5462  0.0670  1.7734
 9674TIP3   OH250512   6.286   1.539  14.182  0.3036  0.0484 -0.3977
 9674TIP3    H150513   6.226   1.529  14.108 -0.5332 -1.0027  0.3890
 9674TIP3    H250514   6.368   1.498  14.153 -0.0564 -0.4684 -0.7077
 9675TIP3   OH250515   4.711   5.781  11.641 -0.1901  0.2195 -0.5022
 9675TIP3    H150516   4.663   5.701  11.618 -1.2106  0.4738  0.6562
 9675TIP3    H250517   4.685   5.844  11.573  3.8584 -1.4456 -4.0389
 9676TIP3   OH250518   4.916   1.270  13.255 -0.1494 -0.5016  0.3474
 9676TIP3    H150519   4.978   1.286  13.326  0.6150  0.7742 -0.5795
 9676TIP3    H250520   4.970   1.251  13.179 -0.8335  1.1616 -0.6074
 9677TIP3   OH250521   6.003   1.285   6.472  0.5798 -0.3689  0.2426
 9677TIP3    H150522   6.046   1.276   6.387  2.6639 -1.2955  1.3537
 9677TIP3    H250523   5.967   1.374   6.470 -1.3331 -1.0616 -2.3990
 9678TIP3   OH250524   0.017   5.381   6.332 -0.3724  0.2520  0.6840
 9678TIP3    H150525  -0.018   5.293   6.348 -0.3313  0.4079  1.6725
 9678TIP3    H250526   0.110   5.368   6.316 -0.4147  0.0929  0.5652
 9679TIP3   OH250527   1.317   0.983  13.591 -0.2618 -0.0718 -0.3974
 9679TIP3    H150528   1.324   0.951  13.681 -1.5780 -1.0477 -0.6110
 9679TIP3    H250529   1.304   1.077  13.600  2.2906  0.2980  0.3043
 9680TIP3   OH250530   1.487   4.631   5.840 -0.0353  0.1979  0.3911
 9680TIP3    H150531   1.397   4.645   5.869 -0.1343 -0.9708  0.6949
 9680TIP3    H250532   1.489   4.667   5.751 -0.6779  0.6432  0.5513
 9681TIP3   OH250533   5.325   6.220   2.246 -0.0183  0.3239  0.3154
 9681TIP3    H150534   5.295   6.271   2.321 -0.2331 -1.7810  1.7534
 9681TIP3    H250535   5.411   6.257   2.224  0.0058  1.0426  1.5524
 9682TIP3   OH250536   6.614   5.536  16.412  0.0904  0.5690  0.2902
 9682TIP3    H150537   6.697   5.490  16.418  0.3453  0.6195 -2.0686
 9682TIP3    H250538   6.553   5.481  16.461  0.8797 -1.1170 -0.5290
 9683TIP3   OH250539   1.698   0.392   3.164 -0.5787 -0.1718 -0.0221
 9683TIP3    H150540   1.678   0.468   3.220 -0.2444  1.2929 -1.8030
 9683TIP3    H250541   1.776   0.353   3.204 -1.4232 -0.3069  1.5805
 9684TIP3   OH250542   4.207   2.737  10.873  0.7248  0.1223  0.0642
 9684TIP3    H150543   4.277   2.719  10.810 -0.7789 -0.3586 -1.5458
 9684TIP3    H250544   4.244   2.803  10.932  2.3741  0.1891 -0.9770
 9685TIP3   OH250545   6.485   2.214  10.822 -0.3302 -0.1664  0.3056
 9685TIP3    H150546   6.394   2.189  10.806 -0.3930 -0.2319  0.7619
 9685TIP3    H250547   6.502   2.187  10.912 -0.0526  0.4109  0.4285
 9686TIP3   OH250548   3.284   0.572  12.347 -0.3616  0.1080  0.1459
 9686TIP3    H150549   3.323   0.658  12.360 -0.9932  0.1038  2.4690
 9686TIP3    H250550   3.203   0.574  12.397  0.4798 -2.3905  1.8626
 9687TIP3   OH250551   6.185   2.314   4.913  0.0982 -0.0698 -0.2054
 9687TIP3    H150552   6.160   2.300   5.004 -0.8713 -0.6574 -0.5449
 9687TIP3    H250553   6.208   2.407   4.908 -5.5386  1.6403 -0.5633
 9688TIP3   OH250554   3.872   0.963   3.633  0.3473  0.0245 -0.3744
 9688TIP3    H150555   3.960   0.992   3.657 -0.1144  1.9904 -0.8781
 9688TIP3    H250556   3.885   0.903   3.560  1.2402  1.1142 -1.1512
 9689TIP3   OH250557   1.955   3.154   3.010  0.2295  0.3649 -0.1241
 9689TIP3    H150558   1.958   3.061   3.032 -0.7311  0.0757 -1.1424
 9689TIP3    H250559   2.047   3.182   3.016  0.8045 -1.0567 -1.4336
 9690TIP3   OH250560   4.068   0.042  13.530 -0.2682 -0.0021  0.2552
 9690TIP3    H150561   4.000   0.030  13.464  0.9091  1.1856 -1.2481
 9690TIP3    H250562   4.101   0.131  13.515  0.8479 -0.1400  1.6692
 9691TIP3   OH250563   1.037   1.631   0.947 -0.0098  0.0507 -0.2038
 9691TIP3    H150564   1.116   1.607   0.997 -0.3562  1.0840  0.8798
 9691TIP3    H250565   1.048   1.725   0.929 -1.4987  0.4740  0.9436
 9692TIP3   OH250566   3.974   1.642   1.479 -0.0111  0.7631 -0.2878
 9692TIP3    H150567   3.909   1.711   1.493 -1.0920 -0.3037  0.1388
 9692TIP3    H250568   3.922   1.566   1.452  1.1907  0.2285 -1.1849
 9693TIP3   OH250569   6.767   2.664   0.782 -1.1643 -0.4017  0.0542
 9693TIP3    H150570   6.754   2.639   0.874 -0.2096 -1.2257 -0.0095
 9693TIP3    H250571   6.756   2.759   0.781  3.1367  0.3481  1.9242
 9694TIP3   OH250572   3.792   5.597  13.039 -0.2503  0.5247 -0.4739
 9694TIP3    H150573   3.786   5.516  13.090  2.0425  0.1581 -0.6804
 9694TIP3    H250574   3.813   5.665  13.104  1.0370  0.3484 -0.6813
 9695TIP3   OH250575   2.961   5.299   1.993  0.2348  0.0123  0.6642
 9695TIP3    H150576   2.950   5.212   2.033  0.5802 -0.6506 -0.6238
 9695TIP3    H250577   2.890   5.306   1.931 -0.0458  0.8576  1.0679
 9696TIP3   OH250578   4.013   0.658  14.893  0.4089  0.6566 -0.5750
 9696TIP3    H150579   4.055   0.627  14.973 -0.4287 -0.0004 -0.3711
 9696TIP3    H250580   4.015   0.583  14.834  0.1382  0.8253 -0.8073
 9697TIP3   OH250581   2.254   4.917  11.177 -1.0726  0.0353 -0.4653
 9697TIP3    H150582   2.172   4.935  11.131 -0.9717  0.4053 -0.5062
 9697TIP3    H250583   2.313   4.882  11.110 -1.1110  0.0263 -0.4945
 9698TIP3   OH250584   6.811   2.990   0.443 -0.2146 -0.5730 -0.2756
 9698TIP3    H150585   6.801   2.964   0.352 -1.7656  2.6511 -1.1761
 9698TIP3    H250586   6.724   2.975   0.482  0.1915 -1.1176  0.4416
 9699TIP3   OH250587   4.763   0.806  14.154 -0.0556  0.3517 -0.2487
 9699TIP3    H150588   4.736   0.821  14.063  0.5038  0.1030 -0.4606
 9699TIP3    H250589   4.715   0.872  14.204 -0.2424  0.6025 -0.7441
 9700TIP3   OH250590   0.856   1.833   2.421  0.6761  0.1382 -0.5038
 9700TIP3    H150591   0.845   1.926   2.440 -1.5734 -0.2899  0.6492
 9700TIP3    H250592   0.814   1.820   2.336 -1.1549 -0.1642  0.3939
 9701TIP3   OH250593   5.066   1.657  16.415 -0.0570 -0.2800  0.8040
 9701TIP3    H150594   5.155   1.662  16.379 -0.2447 -0.2525  0.3360
 9701TIP3    H250595   5.028   1.578  16.375 -0.4143 -0.0117  0.6057
 9702TIP3   OH250596   0.610   3.235  15.978 -0.2976 -0.0773  0.4698
 9702TIP3    H150597   0.681   3.194  15.928 -1.2792 -1.1835 -0.0575
 9702TIP3    H250598   0.647   3.246  16.066  0.8155  0.1798 -0.0050
 9703TIP3   OH250599   5.877   4.983   4.154 -0.8100  0.2115  0.6299
 9703TIP3    H150600   5.892   4.895   4.120 -0.6524  0.5211 -0.1158
 9703TIP3    H250601   5.964   5.023   4.154 -0.9631  0.5435  0.4691
 9704TIP3   OH250602   0.623   0.509   6.262  0.4430  0.3352 -0.1375
 9704TIP3    H150603   0.528   0.512   6.260  0.4112  3.4923  0.9004
 9704TIP3    H250604   0.648   0.579   6.323  3.3992 -2.2794  1.9594
 9705TIP3   OH250605   6.163   2.041  14.491  0.0816 -0.1184  0.6023
 9705TIP3    H150606   6.233   1.977  14.499 -0.8736 -1.0814  1.6464
 9705TIP3    H250607   6.094   1.995  14.442  0.2874  0.9264 -0.7182
 9706TIP3   OH250608   3.466   6.361  13.597  0.3404  0.1789 -0.5921
 9706TIP3    H150609   3.502   6.336  13.682 -0.5046 -1.7895 -0.7510
 9706TIP3    H250610   3.512   6.305  13.534 -1.6487 -1.1270 -0.9736
 9707TIP3   OH250611   2.555   3.247  11.978 -0.2259  0.4207 -0.1149
 9707TIP3    H150612   2.637   3.259  11.930 -1.5632  0.8848 -2.4564
 9707TIP3    H250613   2.516   3.334  11.981 -1.8446 -0.2100 -1.4510
 9708TIP3   OH250614   6.653   5.105  11.591  0.2155  0.1768  0.5514
 9708TIP3    H150615   6.618   5.022  11.623 -1.4707 -0.0074 -1.5793
 9708TIP3    H250616   6.586   5.169  11.612  0.3439  0.5387 -0.1026
 9709TIP3   OH250617   3.364   2.622   6.070  0.0657  0.0356  0.5113
 9709TIP3    H150618   3.289   2.565   6.089 -0.2480 -0.7014 -2.4511
 9709TIP3    H250619   3.373   2.677   6.148 -2.7492 -0.7198  1.4810
 9710TIP3   OH250620   4.795   1.074   1.793  0.5468  0.1572 -0.1867
 9710TIP3    H150621   4.735   1.017   1.745  0.3694  0.4887 -0.3583
 9710TIP3    H250622   4.861   1.100   1.729 -0.5905  1.9254 -0.7194
 9711TIP3   OH250623   1.750   5.119   6.192 -0.6256 -0.3570 -0.1874
 9711TIP3    H150624   1.798   5.202   6.200  1.1707 -1.2928 -0.7917
 9711TIP3    H250625   1.710   5.108   6.278 -0.0096  0.6238  0.2556
 9712TIP3   OH250626   5.081   2.290  12.151  0.7801  0.0070  0.2092
 9712TIP3    H150627   5.009   2.239  12.114  0.8181 -0.2489  0.4936
 9712TIP3    H250628   5.044   2.377  12.165  0.9666  0.3221 -1.1252
 9713TIP3   OH250629   0.736   2.980  16.732  0.8060  0.8549  0.5006
 9713TIP3    H150630   0.733   3.076  16.730  2.9826  1.0522  2.4520
 9713TIP3    H250631   0.806   2.960  16.794  0.3951 -2.0240  0.1467
 9714TIP3   OH250632   1.929   0.299   5.353 -0.0928 -0.2683 -0.1958
 9714TIP3    H150633   1.918   0.390   5.324 -0.6123 -0.6812 -1.3510
 9714TIP3    H250634   1.967   0.306   5.440 -2.3938  1.1214  0.7906
 9715TIP3   OH250635   2.409   1.138   1.558  0.2315 -0.1625 -0.3276
 9715TIP3    H150636   2.385   1.227   1.583  0.8949 -0.2547  0.7047
 9715TIP3    H250637   2.340   1.110   1.498 -0.2308  0.8768 -0.2990
 9716TIP3   OH250638   2.460   4.694   1.188  0.4552  0.2872  0.1780
 9716TIP3    H150639   2.367   4.696   1.208 -0.2362 -4.6374 -1.0371
 9716TIP3    H250640   2.502   4.665   1.269  0.5886  0.3002  0.1150
 9717TIP3   OH250641   3.699   2.401  13.804  0.1040 -0.1338  0.1962
 9717TIP3    H150642   3.733   2.375  13.889 -2.9855  1.5574  2.1319
 9717TIP3    H250643   3.737   2.487  13.787 -2.2920  1.4315  2.0162
 9718TIP3   OH250644   0.519   0.975   5.061 -0.2268 -0.1169  0.5310
 9718TIP3    H150645   0.607   0.982   5.098 -0.4307 -0.3569  1.0645
 9718TIP3    H250646   0.509   1.055   5.009  0.8784 -0.7898 -0.7776
 9719TIP3   OH250647   2.517   0.675  17.057 -0.6689  0.4259  0.0441
 9719TIP3    H150648   2.525   0.737  16.984  0.3336  0.9746  0.6060
 9719TIP3    H250649   2.494   0.592  17.015 -0.3525  0.7895 -0.8698
 9720TIP3   OH250650   1.243   4.674   5.323  0.3681 -0.3672  0.1453
 9720TIP3    H150651   1.192   4.755   5.323  0.4907 -0.2816 -0.5173
 9720TIP3    H250652   1.178   4.604   5.324  0.2603 -0.2623  0.6666
 9721TIP3   OH250653   4.259   5.286  13.995 -0.5089 -0.5298  0.1493
 9721TIP3    H150654   4.316   5.341  13.941 -1.8613  0.8569  0.0790
 9721TIP3    H250655   4.225   5.220  13.935 -1.0612  0.2773 -0.4426
 9722TIP3   OH250656   0.956   0.598   4.287  0.1685 -0.0647  0.4020
 9722TIP3    H150657   0.953   0.520   4.232  0.6974  1.0245 -1.2406
 9722TIP3    H250658   1.024   0.579   4.352 -0.7654 -1.5380  0.9937
 9723TIP3   OH250659   6.530   5.944  16.537  0.1291 -0.0576 -0.0358
 9723TIP3    H150660   6.582   5.884  16.591  0.3810 -2.2644 -2.5318
 9723TIP3    H250661   6.444   5.902  16.531  0.1712  0.0126 -1.4549
 9724TIP3   OH250662   2.792   6.669   3.173  0.0101  0.1384 -0.1282
 9724TIP3    H150663   2.841   6.658   3.091 -1.1504 -0.4157 -0.7685
 9724TIP3    H250664   2.727   6.736   3.153  0.1486  0.4828  0.5574
 9725TIP3   OH250665   4.754   3.675  16.979  0.3445  0.2855  0.0372
 9725TIP3    H150666   4.667   3.646  17.007 -0.6970  0.7752 -2.3923
 9725TIP3    H250667   4.737   3.756  16.931  2.4336  1.5024  1.2495
 9726TIP3   OH250668   3.185   0.312  15.649  0.1881  0.2566  0.3802
 9726TIP3    H150669   3.124   0.309  15.722 -0.5858  0.4903 -0.2444
 9726TIP3    H250670   3.130   0.315  15.571  0.9825 -1.1286 -0.2838
 9727TIP3   OH250671   0.146   3.386   1.283 -0.1678  0.1151 -0.0118
 9727TIP3    H150672   0.101   3.391   1.368 -0.7467  0.5308 -0.3346
 9727TIP3    H250673   0.090   3.331   1.229  0.5684 -0.7494  0.0857
 9728TIP3   OH250674   0.267   5.833  16.216  0.4193  0.5008  0.0322
 9728TIP3    H150675   0.352   5.861  16.248  0.3180  0.2270  0.5660
 9728TIP3    H250676   0.284   5.751  16.171  0.8193  1.6857 -2.1114
 9729TIP3   OH250677   6.031   3.873   4.650 -0.6780 -0.3425 -0.3596
 9729TIP3    H150678   6.115   3.877   4.696 -0.6890 -1.9802 -0.1579
 9729TIP3    H250679   5.976   3.936   4.696 -0.2639 -0.9402  1.0032
 9730TIP3   OH250680   4.418   2.860   2.390 -0.0826  0.1542 -0.2860
 9730TIP3    H150681   4.400   2.774   2.429  1.8844  0.6252  1.8822
 9730TIP3    H250682   4.493   2.844   2.332 -1.4064 -0.0411 -2.0282
 9731TIP3   OH250683   0.576   0.001   2.387  0.3246 -0.0160 -0.4947
 9731TIP3    H150684   0.666   0.034   2.387  0.6022 -0.6912  1.4700
 9731TIP3    H250685   0.547   0.011   2.477 -1.5211 -0.0036 -1.0628
 9732TIP3   OH250686   0.726   5.618  15.216 -0.0892 -0.1829 -0.1671
 9732TIP3    H150687   0.688   5.554  15.156 -2.2969 -1.4778  2.4361
 9732TIP3    H250688   0.654   5.645  15.272  1.8442  0.8973  1.9677
 9733TIP3   OH250689   0.865   3.536  15.006 -0.3189  0.3506  0.1525
 9733TIP3    H150690   0.891   3.480  15.079  1.4061  0.0489 -0.6333
 9733TIP3    H250691   0.781   3.574  15.033 -0.6518 -1.2185  1.4490
 9734TIP3   OH250692   5.682   3.014   4.451 -0.2786 -0.2753  0.9611
 9734TIP3    H150693   5.744   3.016   4.524 -1.0667  2.5753  1.6634
 9734TIP3    H250694   5.733   2.980   4.378  1.4011 -0.3482  2.1060
 9735TIP3   OH250695   5.520   3.318   3.390  0.2871  0.9052 -0.2248
 9735TIP3    H150696   5.551   3.390   3.445  0.3402  0.2185  0.6835
 9735TIP3    H250697   5.585   3.311   3.321  0.0515  1.9987 -0.5769
 9736TIP3   OH250698   3.358   4.317   4.603 -0.1797 -0.2930  0.3815
 9736TIP3    H150699   3.312   4.285   4.525 -0.3111  0.9340 -0.0538
 9736TIP3    H250700   3.389   4.237   4.646 -0.4237 -1.0074 -0.7253
 9737TIP3   OH250701   2.837   1.946   1.034 -0.3722  0.3575  0.2935
 9737TIP3    H150702   2.848   1.896   1.115  1.9777 -0.0561 -0.2060
 9737TIP3    H250703   2.925   1.977   1.013 -1.1385  1.4964 -1.4649
 9738TIP3   OH250704   2.064   3.180  11.577 -0.2230  0.1246 -0.4993
 9738TIP3    H150705   2.116   3.167  11.657 -0.1373 -1.5828 -0.7942
 9738TIP3    H250706   1.977   3.202  11.609 -0.8842 -3.0511  0.2368
 9739TIP3   OH250707   4.208   0.548  16.592  0.3645 -0.1462 -0.3373
 9739TIP3    H150708   4.146   0.591  16.533 -1.1756  0.1735  1.4094
 9739TIP3    H250709   4.292   0.588  16.572 -0.5224  1.5911 -0.7792
 9740TIP3   OH250710   3.558   0.039  15.057 -0.3601 -0.4112  0.0235
 9740TIP3    H150711   3.523   0.123  15.089  0.6678  0.3515 -0.7856
 9740TIP3    H250712   3.502  -0.027  15.098 -0.6874  0.6305  1.3439
 9741TIP3   OH250713   0.700   6.581  15.874  0.6517  0.1745  0.0485
 9741TIP3    H150714   0.619   6.605  15.828 -0.8999  0.4317  2.6738
 9741TIP3    H250715   0.749   6.662  15.880 -1.0595  1.1736  2.2663
 9742TIP3   OH250716   3.056   4.185   0.895 -0.5552  0.4274  0.5583
 9742TIP3    H150717   3.134   4.145   0.933 -1.0065  1.0172  2.1575
 9742TIP3    H250718   3.066   4.279   0.913 -0.2688  0.9057 -1.7612
 9743TIP3   OH250719   0.438   0.230   6.404 -0.2438 -0.0767  0.0399
 9743TIP3    H150720   0.424   0.209   6.496 -0.5124 -0.9770 -0.1889
 9743TIP3    H250721   0.531   0.250   6.397 -0.3776  0.8011  0.6440
 9744TIP3   OH250722   1.177   2.853  11.550  0.5891  0.0247  0.0789
 9744TIP3    H150723   1.132   2.937  11.565  1.4538  0.7913 -1.4097
 9744TIP3    H250724   1.269   2.874  11.565  0.5925 -1.4551  2.8067
 9745TIP3   OH250725   3.419   6.222  16.093  0.3161  0.3231 -0.0580
 9745TIP3    H150726   3.362   6.160  16.047  0.5541 -0.1696  0.3005
 9745TIP3    H250727   3.505   6.181  16.093  0.3437  0.3543  0.7381
 9746TIP3   OH250728   5.630   6.630  12.076  0.6483 -0.1646 -0.1510
 9746TIP3    H150729   5.636   6.621  12.171 -0.3244 -1.0165 -0.1523
 9746TIP3    H250730   5.633   6.541  12.043  1.7926  0.1727 -0.9918
 9747TIP3   OH250731   6.022   4.780   2.522 -0.0796  0.3940 -0.3204
 9747TIP3    H150732   6.081   4.854   2.506  1.6261 -0.6875  0.6577
 9747TIP3    H250733   6.080   4.705   2.530 -1.3833 -0.4334  2.6784
 9748TIP3   OH250734   1.296   5.198  14.762 -0.3897  0.0989  0.1811
 9748TIP3    H150735   1.216   5.252  14.765  0.1902  0.9358  2.0321
 9748TIP3    H250736   1.352   5.235  14.830  1.9529  0.0444 -1.5910
 9749TIP3   OH250737   0.077   5.966  16.724  0.2196 -0.3355 -0.5256
 9749TIP3    H150738   0.117   5.880  16.719  0.6194 -0.2142  0.4863
 9749TIP3    H250739   0.120   6.016  16.655  1.3566 -0.4037  0.1094
 9750TIP3   OH250740   1.500   3.691  16.222  0.4361 -0.7408 -0.0277
 9750TIP3    H150741   1.510   3.597  16.207  1.7881 -0.6661  0.2603
 9750TIP3    H250742   1.557   3.732  16.156  1.7418 -0.2261  1.3678
 9751TIP3   OH250743   0.592   5.692   3.835  0.3579 -0.0263  0.1572
 9751TIP3    H150744   0.668   5.747   3.815  0.8464 -1.5396 -2.5899
 9751TIP3    H250745   0.517   5.740   3.800 -0.1551  1.5893  3.0912
 9752TIP3   OH250746   3.153   1.003  14.443 -0.1945 -0.1306  0.4384
 9752TIP3    H150747   3.142   0.930  14.505 -2.0263 -0.7312 -0.5025
 9752TIP3    H250748   3.230   0.979  14.391 -2.0627 -2.7039 -1.4172
 9753TIP3   OH250749   2.752   6.116   1.494  0.0135  0.2238 -0.0891
 9753TIP3    H150750   2.760   6.023   1.473 -0.3184 -0.1288  1.2284
 9753TIP3    H250751   2.843   6.148   1.495  0.4258 -0.7784  2.2039
 9754TIP3   OH250752   3.289   2.600  13.271 -0.4771 -0.6526  0.2826
 9754TIP3    H150753   3.220   2.568  13.212 -1.4504  0.3852  0.8222
 9754TIP3    H250754   3.351   2.645  13.214  0.1995 -2.2538 -0.3097
 9755TIP3   OH250755   4.457   6.600   2.521  0.2304  0.6237 -0.2399
 9755TIP3    H150756   4.447   6.585   2.427 -0.7292 -1.4305  0.1294
 9755TIP3    H250757   4.526   6.540   2.548 -0.5907  0.0245  0.6075
 9756TIP3   OH250758   5.898   6.562   5.425  0.1507  0.1980  0.0859
 9756TIP3    H150759   5.915   6.597   5.338  0.0926  0.9062  0.3581
 9756TIP3    H250760   5.808   6.587   5.445 -0.8259 -2.2746 -0.7353
 9757TIP3   OH250761   0.397   6.489  16.338 -0.5067 -0.1638  0.1618
 9757TIP3    H150762   0.466   6.504  16.274 -0.0619 -1.1073  0.3985
 9757TIP3    H250763   0.418   6.404  16.377 -0.9436  0.2247  1.3201
 9758TIP3   OH250764   3.937   6.142  15.010  0.0216  0.0999 -0.2142
 9758TIP3    H150765   4.027   6.128  15.042  0.1439  0.6811 -0.3011
 9758TIP3    H250766   3.885   6.078  15.059  0.4572 -0.1363 -0.0486
 9759TIP3   OH250767   1.648   1.549   5.776  0.4211  0.0928 -0.9768
 9759TIP3    H150768   1.589   1.577   5.846 -0.7923 -2.2289 -0.9534
 9759TIP3    H250769   1.732   1.589   5.798 -0.0451 -0.1061  1.5279
 9760TIP3   OH250770   3.161   5.398   2.432 -0.5844  0.6055 -0.1057
 9760TIP3    H150771   3.204   5.315   2.411 -0.3230  0.7172 -0.0152
 9760TIP3    H250772   3.115   5.422   2.351 -0.4633  0.4948 -0.2080
 9761TIP3   OH250773   6.052   3.539   2.357  0.5562  0.0136 -0.0115
 9761TIP3    H150774   6.013   3.452   2.366  0.3173  0.0981 -0.2404
 9761TIP3    H250775   6.147   3.522   2.359  0.5734 -0.5147 -2.1758
 9762TIP3   OH250776   4.785   2.711   1.739 -0.3013 -0.4639  0.1752
 9762TIP3    H150777   4.730   2.718   1.817 -0.3947 -0.7749  0.1388
 9762TIP3    H250778   4.747   2.639   1.689 -0.1028 -0.4177 -0.0461
 9763TIP3   OH250779   3.153   0.073  14.946 -0.3605  0.4261 -0.6377
 9763TIP3    H150780   3.169   0.167  14.950 -0.5739  0.4717 -0.8168
 9763TIP3    H250781   3.123   0.058  14.856 -0.4184  0.2001 -0.5810
 9764TIP3   OH250782   6.543   1.718  15.738 -0.0542  0.0646 -0.5058
 9764TIP3    H150783   6.472   1.736  15.676 -1.0327 -1.3530  0.1486
 9764TIP3    H250784   6.584   1.638  15.705 -0.2142 -0.3782  0.3334
 9765TIP3   OH250785   6.391   2.570   1.498  0.3738  0.0250 -0.7925
 9765TIP3    H150786   6.431   2.581   1.411 -0.5130  1.2675 -1.0612
 9765TIP3    H250787   6.324   2.503   1.485 -0.5168  0.9965 -1.3545
 9766TIP3   OH250788   5.142   1.113  17.054  0.1126  0.4613  0.0373
 9766TIP3    H150789   5.102   1.027  17.043  2.4334 -0.5553 -1.3097
 9766TIP3    H250790   5.224   1.096  17.101  2.3442  1.2577 -3.1858
 9767TIP3   OH250791   2.114   4.621  17.109 -0.1557  0.1846 -0.0647
 9767TIP3    H150792   2.180   4.690  17.099  1.2098 -1.3218 -2.3185
 9767TIP3    H250793   2.056   4.632  17.033 -0.1511 -0.8915 -0.2342
 9768TIP3   OH250794   3.699   3.686   4.682 -0.4096  0.1670 -0.4227
 9768TIP3    H150795   3.617   3.706   4.727 -1.0985 -1.0907 -1.0817
 9768TIP3    H250796   3.695   3.737   4.601  0.4859  1.8282  0.5255
 9769TIP3   OH250797   1.675   2.547   3.590  0.0570  0.4653  0.1788
 9769TIP3    H150798   1.630   2.464   3.582  1.3207 -0.3633  1.2469
 9769TIP3    H250799   1.768   2.526   3.577  0.3075  1.8743 -0.5380
 9770TIP3   OH250800   2.054   0.283  13.287 -0.7086 -0.0764 -0.1358
 9770TIP3    H150801   2.130   0.336  13.310 -1.5476  0.1402  2.3407
 9770TIP3    H250802   2.091   0.210  13.238  0.9327  0.7014 -0.1324
 9771TIP3   OH250803   1.127   2.986   0.532  0.2603 -0.1937 -0.0474
 9771TIP3    H150804   1.189   2.942   0.473 -0.4818 -0.6923 -0.4767
 9771TIP3    H250805   1.067   2.917   0.560 -1.1858  0.5888 -1.0566
 9772TIP3   OH250806   0.959   0.774   5.404  0.2062  0.1371 -0.0304
 9772TIP3    H150807   0.933   0.847   5.460  0.2323  2.3356 -2.6253
 9772TIP3    H250808   1.054   0.785   5.394  0.1959 -0.1773 -0.5113
 9773TIP3   OH250809   2.667   2.126  12.235  0.3632  0.0473  0.1750
 9773TIP3    H150810   2.688   2.219  12.230  1.3515 -0.1807  0.0449
 9773TIP3    H250811   2.735   2.082  12.185 -1.1599 -0.6173 -1.4420
 9774TIP3   OH250812   1.692   6.720   0.473  0.0219 -0.6099 -0.7136
 9774TIP3    H150813   1.720   6.777   0.545 -1.1090  2.4606 -2.4927
 9774TIP3    H250814   1.769   6.666   0.454  1.0279 -0.0241  1.3916
 9775TIP3   OH250815   5.978   2.378   3.609  0.3977 -0.5197 -0.2532
 9775TIP3    H150816   5.912   2.442   3.634 -0.5761 -1.4753 -0.3352
 9775TIP3    H250817   6.031   2.423   3.543 -0.1898  0.2353 -0.2221
 9776TIP3   OH250818   6.227   4.945  13.454 -0.2414 -0.0743  0.0688
 9776TIP3    H150819   6.218   4.901  13.539 -0.0118 -0.0180  0.1244
 9776TIP3    H250820   6.217   4.875  13.389  1.0629 -0.3852  0.1733
 9777TIP3   OH250821   5.163   1.734   5.863 -0.1992 -0.5188 -0.0950
 9777TIP3    H150822   5.196   1.747   5.774 -0.7063 -3.1521 -0.7675
 9777TIP3    H250823   5.067   1.735   5.853 -0.2895  0.8246  0.7373
 9778TIP3   OH250824   6.820   4.392   1.205  0.6461 -0.0236 -0.2049
 9778TIP3    H150825   6.913   4.409   1.217  0.5756  0.3576 -0.1787
 9778TIP3    H250826   6.785   4.384   1.294  0.4601  0.9353 -0.1779
 9779TIP3   OH250827   2.803   5.341  13.561  0.0926 -0.9276  0.2376
 9779TIP3    H150828   2.765   5.267  13.514 -0.2188 -0.5931 -0.0533
 9779TIP3    H250829   2.730   5.404  13.568  0.1892 -0.8921  0.9944
 9780TIP3   OH250830   2.155   2.660   2.797  0.2958 -0.6808  0.2041
 9780TIP3    H150831   2.197   2.669   2.883  2.1297 -1.0903 -0.5927
 9780TIP3    H250832   2.150   2.750   2.764 -2.0774 -0.2977  1.4250
 9781TIP3   OH250833   6.320   1.452   1.314  0.0966  0.7195 -0.0691
 9781TIP3    H150834   6.293   1.378   1.369 -0.4848  1.2998  0.4369
 9781TIP3    H250835   6.317   1.418   1.225  0.7245 -0.1388  0.2205
 9782TIP3   OH250836   1.600   6.405   2.548  1.4668  0.1019  0.1316
 9782TIP3    H150837   1.510   6.373   2.542  1.5541 -0.4907  1.5323
 9782TIP3    H250838   1.613   6.457   2.468  0.6429 -1.6559 -1.2009
 9783TIP3   OH250839   2.380   3.208   5.322  0.1962 -0.1912  0.2347
 9783TIP3    H150840   2.319   3.230   5.252  2.0615  2.8807 -0.6460
 9783TIP3    H250841   2.466   3.206   5.279  1.1078 -1.0479  1.9735
 9784TIP3   OH250842   6.145   3.772  12.549 -0.2725 -0.7315 -0.0748
 9784TIP3    H150843   6.056   3.805  12.561  0.2496  0.1646  1.5906
 9784TIP3    H250844   6.175   3.750  12.638  1.4571 -0.2292 -0.4884
 9785TIP3   OH250845   0.963   4.513   2.020  0.2512  0.0732  0.2624
 9785TIP3    H150846   0.956   4.428   2.063 -0.9798  0.2463  0.4514
 9785TIP3    H250847   1.054   4.539   2.032  0.9340 -1.6844 -0.7173
 9786TIP3   OH250848   2.724   2.849  13.192 -0.1583 -0.5598  0.5245
 9786TIP3    H150849   2.654   2.786  13.178 -0.4776 -0.2027  0.5024
 9786TIP3    H250850   2.747   2.880  13.104  0.7136 -1.3984  0.4309
 9787TIP3   OH250851   3.934   2.375   6.036  0.1219 -0.0107  0.2794
 9787TIP3    H150852   3.937   2.341   5.947  1.4799 -0.3286  0.4316
 9787TIP3    H250853   3.903   2.301   6.089 -1.0051  0.2761  0.0474
 9788TIP3   OH250854   5.491   2.347   3.060 -0.3213 -0.2759 -0.3897
 9788TIP3    H150855   5.422   2.410   3.076 -0.0427 -0.4356  1.7473
 9788TIP3    H250856   5.448   2.262   3.066 -0.0146 -0.3703  0.7656
 9789TIP3   OH250857   2.159   1.844   3.627  0.0620  0.2385  0.2149
 9789TIP3    H150858   2.074   1.823   3.587  0.3210  1.1603 -0.8615
 9789TIP3    H250859   2.217   1.775   3.595  0.4077  1.3039 -1.5389
 9790TIP3   OH250860   5.157   0.599   0.684 -0.2708  0.2211 -0.1302
 9790TIP3    H150861   5.086   0.535   0.697  0.1778 -0.3876 -0.5688
 9790TIP3    H250862   5.112   0.681   0.664 -0.9096 -0.6913 -2.9929
 9791TIP3   OH250863   0.738   1.227  10.551  0.3372  0.3951 -0.1650
 9791TIP3    H150864   0.710   1.141  10.582 -0.1554  1.2342  1.9604
 9791TIP3    H250865   0.813   1.210  10.495 -1.2599 -1.5650 -1.8464
 9792TIP3   OH250866   2.915   0.111   3.480 -0.5167  0.0824  0.1421
 9792TIP3    H150867   2.943   0.045   3.543 -2.1669 -0.5119  0.3205
 9792TIP3    H250868   2.821   0.121   3.497 -0.5139  1.6845 -0.6251
 9793TIP3   OH250869   4.662   6.100  15.392  0.5111 -0.0106 -0.1165
 9793TIP3    H150870   4.756   6.119  15.393  0.5821 -0.3128 -0.6135
 9793TIP3    H250871   4.652   6.033  15.324 -0.3268  1.4098 -1.4702
 9794TIP3   OH250872   3.155   6.429   6.779  0.0249 -0.2473 -0.8181
 9794TIP3    H150873   3.071   6.400   6.744 -0.6555 -0.0392  0.5937
 9794TIP3    H250874   3.195   6.350   6.814  0.4821 -0.3643 -1.5761
 9795TIP3   OH250875   6.202   5.452  11.642  0.3948 -0.1701 -0.1234
 9795TIP3    H150876   6.130   5.511  11.625  1.2059  0.8809 -0.0130
 9795TIP3    H250877   6.233   5.475  11.730  1.1541 -0.2693 -0.3515
 9796TIP3   OH250878   4.945   4.807  16.418  0.3646  0.1979 -0.5474
 9796TIP3    H150879   4.953   4.796  16.513 -1.6007 -4.3120 -0.6592
 9796TIP3    H250880   5.033   4.794  16.384  1.0301  1.5322  0.5518
 9797TIP3   OH250881   3.289   3.350   0.646  0.1694 -0.2367  0.2916
 9797TIP3    H150882   3.360   3.381   0.590  0.1704 -2.1132 -0.8097
 9797TIP3    H250883   3.212   3.400   0.618  0.5410  0.1076 -0.1238
 9798TIP3   OH250884   0.824   3.653   1.078  0.1116  0.1232  0.1223
 9798TIP3    H150885   0.868   3.576   1.114  0.2601  0.9100  1.6620
 9798TIP3    H250886   0.740   3.656   1.123  0.3604  1.2134  0.5289
 9799TIP3   OH250887   6.401   3.820  11.881  0.1498 -0.5673 -0.6672
 9799TIP3    H150888   6.447   3.896  11.846  1.6350 -0.8112  0.6494
 9799TIP3    H250889   6.376   3.846  11.970 -0.2360 -1.2578 -0.5650
 9800TIP3   OH250890   5.372   4.093  12.741 -0.0245 -0.2169  0.2320
 9800TIP3    H150891   5.432   4.072  12.812 -0.5880  0.1670  0.8243
 9800TIP3    H250892   5.294   4.129  12.784 -0.0072  0.9047 -0.6184
 9801TIP3   OH250893   2.490   6.299   1.630  0.7901  0.3902 -0.1639
 9801TIP3    H150894   2.524   6.211   1.646  2.1458  0.4498 -2.3643
 9801TIP3    H250895   2.401   6.297   1.666  1.5559 -1.1538  1.8123
 9802TIP3   OH250896   5.129   1.412   1.399 -0.3034  0.3189 -0.3830
 9802TIP3    H150897   5.107   1.454   1.482 -1.1467  0.0618 -0.4693
 9802TIP3    H250898   5.046   1.407   1.352  0.0716 -0.0267 -1.0192
 9803TIP3   OH250899   6.588   2.838   5.187  0.0495 -0.3627 -0.1158
 9803TIP3    H150900   6.597   2.799   5.274 -0.4494 -0.0551  0.0748
 9803TIP3    H250901   6.585   2.763   5.128  2.3525 -0.5600 -0.0909
 9804TIP3   OH250902   5.719   4.689   5.512 -0.4632  0.2734 -0.6755
 9804TIP3    H150903   5.649   4.731   5.563 -0.7558 -0.5663 -0.3731
 9804TIP3    H250904   5.688   4.694   5.421 -1.0376 -0.3013 -0.5210
 9805TIP3   OH250905   2.706   2.451  15.137  0.5593  0.0967  0.5588
 9805TIP3    H150906   2.725   2.413  15.051  0.3116  0.0650  0.5152
 9805TIP3    H250907   2.621   2.413  15.161  0.8577 -0.2659  1.0357
 9806TIP3   OH250908   4.216   1.327   6.412  0.0177 -0.4871 -0.4298
 9806TIP3    H150909   4.225   1.257   6.347 -0.8791 -1.7642  0.7739
 9806TIP3    H250910   4.236   1.285   6.496  1.0487  1.1052  0.1606
 9807TIP3   OH250911   1.234   3.192  14.180 -0.3094 -0.4275 -0.1479
 9807TIP3    H150912   1.178   3.136  14.234 -1.0594  0.3781 -0.0645
 9807TIP3    H250913   1.297   3.132  14.140  0.2039 -1.0843  1.5290
 9808TIP3   OH250914   6.513   3.825   1.824  0.2313  0.5284  0.0400
 9808TIP3    H150915   6.588   3.849   1.769 -0.3557  1.4101 -0.4036
 9808TIP3    H250916   6.437   3.846   1.771 -0.3453  0.7316  0.9288
 9809TIP3   OH250917   3.387   4.976   0.463 -0.2522 -0.3913 -0.3056
 9809TIP3    H150918   3.456   4.968   0.528 -0.3060 -0.6249 -0.2774
 9809TIP3    H250919   3.433   4.998   0.382 -0.1937 -0.0043 -0.1726
 9810TIP3   OH250920   6.812   5.695   3.709 -0.4482 -0.2496  0.2504
 9810TIP3    H150921   6.762   5.727   3.634  1.3302 -0.3787 -1.0509
 9810TIP3    H250922   6.899   5.676   3.673  1.2504  1.9757  2.7823
 9811TIP3   OH250923   4.163   4.378  14.875 -0.1504  0.1776  0.0587
 9811TIP3    H150924   4.098   4.410  14.937 -1.1058  0.5819 -1.1180
 9811TIP3    H250925   4.206   4.456  14.841 -1.1119  0.1354 -1.3418
 9812TIP3   OH250926   4.058   1.814   3.028  0.5291 -0.4097  0.2760
 9812TIP3    H150927   4.030   1.723   3.037  1.1169 -0.5908  0.2573
 9812TIP3    H250928   4.138   1.821   3.079  0.4162  0.1365  0.3916
 9813TIP3   OH250929   2.345   1.000   2.952  0.2002  0.2776 -0.1847
 9813TIP3    H150930   2.354   0.932   3.020  0.1173 -0.1257 -0.5711
 9813TIP3    H250931   2.276   1.057   2.984 -0.4525 -0.4096 -0.3285
 9814TIP3   OH250932   3.053   2.281  11.673  0.1938 -0.2960  0.0690
 9814TIP3    H150933   3.072   2.372  11.649  0.6651 -0.5241 -0.4473
 9814TIP3    H250934   3.065   2.232  11.592  0.7811 -0.9429  0.5352
 9815TIP3   OH250935   0.783   0.818   3.317  0.9000  0.5051 -0.3088
 9815TIP3    H150936   0.877   0.803   3.313  0.9494  0.9965 -1.4051
 9815TIP3    H250937   0.774   0.911   3.339  0.6557  0.3561  0.2515
 9816TIP3   OH250938   4.276   2.727  15.733 -0.0184  0.2338  0.3373
 9816TIP3    H150939   4.295   2.645  15.686 -2.3399  0.6351 -1.4712
 9816TIP3    H250940   4.332   2.792  15.692 -2.2080  0.6383 -2.2885
 9817TIP3   OH250941   4.725   3.454   5.394 -0.4619  0.4710  0.3180
 9817TIP3    H150942   4.702   3.482   5.482 -2.0878 -0.5839  0.2658
 9817TIP3    H250943   4.808   3.408   5.403 -0.1871  1.1127  1.1426
 9818TIP3   OH250944   2.613   2.720   0.281  0.3787 -0.7661 -0.9493
 9818TIP3    H150945   2.522   2.735   0.304  0.3475 -2.8929  0.6462
 9818TIP3    H250946   2.659   2.796   0.315 -0.3593 -1.4824  1.9404
 9819TIP3   OH250947   3.278   4.383  11.149  0.3727  0.1746  0.2655
 9819TIP3    H150948   3.212   4.317  11.170  0.4641 -0.4328 -1.1895
 9819TIP3    H250949   3.344   4.335  11.098  0.4690  1.3535 -0.7757
 9820TIP3   OH250950   6.714   1.032   5.275  0.3735 -0.8868 -0.5564
 9820TIP3    H150951   6.640   1.043   5.215 -2.6615 -3.0172  2.4632
 9820TIP3    H250952   6.755   1.119   5.278 -2.0552  0.4475 -2.2651
 9821TIP3   OH250953   0.913   5.278  10.265  0.0252  0.0611  0.3965
 9821TIP3    H150954   0.836   5.226  10.242 -0.8201  1.0518  0.9237
 9821TIP3    H250955   0.978   5.213  10.293 -0.7993 -0.7482  0.4834
 9822TIP3   OH250956   3.559   1.464   0.256  0.3691  0.6078  0.7410
 9822TIP3    H150957   3.629   1.412   0.296  0.0675  0.0519  0.5533
 9822TIP3    H250958   3.479   1.415   0.273  0.1461  0.7255  0.0721
 9823TIP3   OH250959   1.131   0.835  14.464 -0.1356  0.6526  0.6841
 9823TIP3    H150960   1.138   0.777  14.388 -1.6294  1.6462 -0.2803
 9823TIP3    H250961   1.196   0.904  14.447  0.8200 -0.0849  1.2517
 9824TIP3   OH250962   5.787   4.630  11.014 -0.1805 -0.1791  0.1180
 9824TIP3    H150963   5.820   4.675  11.091  0.9503 -1.6262  0.5170
 9824TIP3    H250964   5.848   4.557  11.000 -0.4564 -0.0772 -2.0311
 9825TIP3   OH250965   6.335   1.877   0.755 -0.7836 -0.0301  0.2963
 9825TIP3    H150966   6.415   1.828   0.775 -0.0708  0.6333 -0.7901
 9825TIP3    H250967   6.329   1.943   0.824 -0.5177 -0.2213  0.5048
 9826TIP3   OH250968   3.706   1.038  12.121  0.3279  0.5739 -0.5705
 9826TIP3    H150969   3.727   0.986  12.199 -0.2799  0.2402 -0.6276
 9826TIP3    H250970   3.611   1.035  12.116  0.4000 -2.4820 -3.3913
 9827TIP3   OH250971   1.106   4.518   4.606 -0.2080  0.3602  0.3347
 9827TIP3    H150972   1.171   4.581   4.638  0.9565  0.2899 -1.7369
 9827TIP3    H250973   1.086   4.464   4.682  1.4998  0.9421  1.2562
 9828TIP3   OH250974   2.728   1.615   2.430  0.1092  0.8819  0.1480
 9828TIP3    H150975   2.659   1.629   2.496  0.6357 -0.1891  0.9571
 9828TIP3    H250976   2.765   1.702   2.416  0.0229  1.1295  1.3142
 9829TIP3   OH250977   3.650   3.541  11.195  0.1472  0.3196  0.0799
 9829TIP3    H150978   3.724   3.554  11.136  0.8297 -0.9766  0.6122
 9829TIP3    H250979   3.679   3.577  11.278  0.7761 -1.4745  0.6770
 9830TIP3   OH250980   1.163   0.656  12.780  0.1638  0.6360 -0.0493
 9830TIP3    H150981   1.106   0.732  12.785 -0.4756  0.1815 -0.2374
 9830TIP3    H250982   1.118   0.597  12.720  0.9232  0.3409 -0.3349
 9831TIP3   OH250983   2.883   3.333  13.298  0.1149  0.0692 -0.0754
 9831TIP3    H150984   2.828   3.389  13.352 -0.0316 -0.9573  0.8759
 9831TIP3    H250985   2.938   3.394  13.247 -0.6457  1.0629  0.2771
 9832TIP3   OH250986   5.954   0.635   4.404 -0.1793  0.2921  0.1862
 9832TIP3    H150987   6.014   0.708   4.388 -1.0374  0.8413 -0.6809
 9832TIP3    H250988   5.925   0.609   4.316  0.0088 -1.0286  0.4857
 9833TIP3   OH250989   6.715   2.329   5.324 -0.5825 -0.4088  0.4280
 9833TIP3    H150990   6.693   2.258   5.262 -0.0867 -0.1743 -0.0283
 9833TIP3    H250991   6.799   2.362   5.292  0.1947 -0.9482  1.8167
 9834TIP3   OH250992   6.407   4.721  14.934 -0.2924 -0.0974  0.1522
 9834TIP3    H150993   6.377   4.635  14.906 -0.0775 -0.4121  0.8897
 9834TIP3    H250994   6.492   4.731  14.891  0.0065 -0.5530  0.6318
 9835TIP3   OH250995   2.544   5.972  11.180  0.1810  0.0137  0.0295
 9835TIP3    H150996   2.523   6.004  11.092  1.8856 -2.2990 -1.3474
 9835TIP3    H250997   2.639   5.960  11.179  0.8188  3.0157  3.4020
 9836TIP3   OH250998   2.291   0.785   3.208 -0.8338 -0.1662  0.2612
 9836TIP3    H150999   2.379   0.750   3.223 -0.9919 -0.4668  0.4823
 9836TIP3    H251000   2.232   0.713   3.228 -1.0966 -0.2711 -0.8392
 9837TIP3   OH251001   2.159   4.687   0.529  0.2812  0.4647  0.2420
 9837TIP3    H151002   2.250   4.718   0.525  0.5989 -0.5359 -0.8679
 9837TIP3    H251003   2.156   4.632   0.606  1.6107 -2.3105 -1.5336
 9838TIP3   OH251004   6.269   5.433   0.575  0.5815 -0.4853  1.0905
 9838TIP3    H151005   6.187   5.383   0.580  1.2614 -1.6466  1.0438
 9838TIP3    H251006   6.246   5.520   0.608 -1.0122 -0.3440 -0.2315
 9839TIP3   OH251007   1.099   4.248  14.363  0.3662 -0.0848 -0.3388
 9839TIP3    H151008   1.114   4.342  14.369 -1.4587  0.3450 -1.8444
 9839TIP3    H251009   1.084   4.221  14.454 -1.5154  1.5547 -0.0927
 9840TIP3   OH251010   1.934   6.367   5.998  0.3908  0.3243 -0.1865
 9840TIP3    H151011   1.922   6.390   6.090 -1.4014 -0.1798 -0.2630
 9840TIP3    H251012   1.982   6.441   5.961  1.8230  0.1936  1.2982
 9841TIP3   OH251013   3.321   1.134   2.817 -0.1666 -0.3065 -0.8432
 9841TIP3    H151014   3.315   1.152   2.910 -1.7198 -3.1128 -0.2816
 9841TIP3    H251015   3.303   1.218   2.775  2.6655  1.5299  1.2634
 9842TIP3   OH251016   3.428   3.325   5.341  0.0270 -0.0958 -0.2142
 9842TIP3    H151017   3.510   3.294   5.303  0.1176 -0.3458  0.1829
 9842TIP3    H251018   3.379   3.360   5.266  2.2701  4.2939  0.0389
 9843TIP3   OH251019   5.144   0.907   4.257  0.0351 -0.5133 -0.2048
 9843TIP3    H151020   5.227   0.879   4.296  0.8301 -0.4264 -1.7546
 9843TIP3    H251021   5.094   0.944   4.330  0.6340 -2.1333  1.1044
 9844TIP3   OH251022   1.426   5.770   5.261 -0.2801  0.2690 -0.1912
 9844TIP3    H151023   1.402   5.682   5.288  0.4242 -0.0290 -0.5062
 9844TIP3    H251024   1.366   5.791   5.190 -0.3524 -0.0124 -0.2144
 9845TIP3   OH251025   6.209   1.088  11.591 -0.0829  0.0601  0.0265
 9845TIP3    H151026   6.203   1.184  11.589  0.0628  0.1522  1.8649
 9845TIP3    H251027   6.280   1.067  11.531  1.1378  1.2834  0.9675
 9846TIP3   OH251028   0.108   4.917   2.402 -0.3850  0.4393 -0.5497
 9846TIP3    H151029   0.059   4.905   2.321 -0.4052  2.6016 -0.9285
 9846TIP3    H251030   0.043   4.914   2.472 -0.4648 -0.7231 -0.6642
 9847TIP3   OH251031   3.864   6.261   6.363  0.1613 -0.4166 -0.9580
 9847TIP3    H151032   3.866   6.262   6.459 -0.8191  2.4658 -0.8803
 9847TIP3    H251033   3.773   6.240   6.342  0.0281  0.4088 -1.2117
 9848TIP3   OH251034   5.653   4.933   3.457 -0.1641 -0.7240 -0.1651
 9848TIP3    H151035   5.668   5.005   3.396 -1.8010  0.4625  0.7693
 9848TIP3    H251036   5.572   4.892   3.427 -0.0825 -1.2003  0.2390
 9849TIP3   OH251037   6.631   4.416  11.865 -0.0011 -0.0095 -0.1997
 9849TIP3    H151038   6.541   4.420  11.899 -0.2197  1.8967 -0.8588
 9849TIP3    H251039   6.623   4.443  11.774  1.1878 -0.3200 -0.4088
 9850TIP3   OH251040   0.158   1.671   3.168  0.2482  0.2993 -0.2765
 9850TIP3    H151041   0.248   1.679   3.137  0.2957  1.1458  0.0754
 9850TIP3    H251042   0.123   1.760   3.166 -0.9542 -0.1618 -1.5019
 9851TIP3   OH251043   6.141   0.404   0.461 -0.4451 -0.8381 -0.6085
 9851TIP3    H151044   6.098   0.360   0.534 -1.5439  3.0358  1.3986
 9851TIP3    H251045   6.234   0.392   0.477 -0.6911 -1.2692  0.6577
 9852TIP3   OH251046   3.808   2.260   4.583 -0.0351  0.2700  0.1784
 9852TIP3    H151047   3.769   2.337   4.541 -0.2120  0.6553  1.0229
 9852TIP3    H251048   3.763   2.185   4.542  0.9159  0.5356 -1.4516
 9853TIP3   OH251049   2.422   5.213   2.720 -0.4746  0.1666  0.2410
 9853TIP3    H151050   2.437   5.279   2.652 -2.1723  0.9395  0.5647
 9853TIP3    H251051   2.410   5.131   2.672 -1.4810  0.6708 -0.4038
 9854TIP3   OH251052   6.648   6.197  11.901  0.1577 -0.3640 -0.0379
 9854TIP3    H151053   6.685   6.242  11.825  0.7454 -1.2043 -0.2674
 9854TIP3    H251054   6.704   6.223  11.974 -0.5574  0.6429  0.1755
 9855TIP3   OH251055   3.861   1.620   5.477 -0.5192  0.4448 -0.2086
 9855TIP3    H151056   3.837   1.555   5.543  0.1763  1.1562  0.7594
 9855TIP3    H251057   3.957   1.617   5.474 -0.5372  0.4225 -1.1942
 9856TIP3   OH251058   5.675   3.204  14.194 -0.0421  0.2071  0.7822
 9856TIP3    H151059   5.715   3.127  14.233 -0.3037 -0.6951 -0.6875
 9856TIP3    H251060   5.596   3.220  14.246 -0.4392 -1.0379  0.5901
 9857TIP3   OH251061   2.845   1.416   3.218 -0.1026  0.0723 -0.3146
 9857TIP3    H151062   2.771   1.427   3.157 -0.6306 -1.8689 -0.0857
 9857TIP3    H251063   2.921   1.443   3.167 -0.8257  0.9397 -0.9712
 9858TIP3   OH251064   3.067   4.454   2.803  0.0337 -0.0693 -0.1198
 9858TIP3    H151065   3.141   4.469   2.744  0.8129 -2.6948  0.0727
 9858TIP3    H251066   3.016   4.384   2.762 -1.4318  0.5215  0.5952
 9859TIP3   OH251067   5.719   2.618  15.867 -0.5402 -0.1804  0.4581
 9859TIP3    H151068   5.762   2.561  15.804 -1.0793 -0.6816  0.5344
 9859TIP3    H251069   5.777   2.693  15.875  0.5075 -1.0106  0.8508
 9860TIP3   OH251070   4.548   5.214  11.112 -0.3334 -0.1880 -0.8369
 9860TIP3    H151071   4.496   5.134  11.117 -2.1634  0.9043 -1.0262
 9860TIP3    H251072   4.543   5.240  11.020 -0.1088  0.3461 -0.7028
 9861TIP3   OH251073   2.511   6.189  14.135  0.2704  0.7734  0.2133
 9861TIP3    H151074   2.551   6.271  14.106  1.0235  0.7415  1.1269
 9861TIP3    H251075   2.435   6.216  14.187 -2.0883  0.8328 -2.9566
 9862TIP3   OH251076   6.101   0.819   5.036  0.0974 -0.1502  0.0789
 9862TIP3    H151077   6.016   0.802   5.076 -0.1246 -1.0314 -0.7202
 9862TIP3    H251078   6.081   0.861   4.953  0.4957  0.5543  0.3297
 9863TIP3   OH251079   1.081   2.754   5.864 -0.4403  0.0687  0.0376
 9863TIP3    H151080   1.152   2.712   5.912 -0.8152  0.0273  0.5616
 9863TIP3    H251081   1.120   2.777   5.779 -0.5210 -2.2943 -0.7026
 9864TIP3   OH251082   6.742   4.332   0.121  0.3404  0.3405  0.0859
 9864TIP3    H151083   6.661   4.283   0.107  0.3847  0.0367  0.8477
 9864TIP3    H251084   6.717   4.405   0.177  0.8206 -0.4913  1.4323
 9865TIP3   OH251085   0.379   4.322  10.447  0.2824 -0.7884 -0.3337
 9865TIP3    H151086   0.473   4.302  10.444  0.7021  1.0710 -0.8903
 9865TIP3    H251087   0.364   4.351  10.538  0.5999  0.3148 -0.6114
 9866TIP3   OH251088   5.511   5.734   3.085  0.0970 -0.2945  0.4950
 9866TIP3    H151089   5.568   5.666   3.122  1.8523  0.9948  0.3148
 9866TIP3    H251090   5.484   5.786   3.161 -0.3529 -0.5453  0.5089
 9867TIP3   OH251091   5.677   6.460  14.235  0.5158  0.0612  0.5160
 9867TIP3    H151092   5.607   6.459  14.170  0.2592 -0.1664  0.7896
 9867TIP3    H251093   5.703   6.368  14.243  1.3129  0.2331 -0.0805
 9868TIP3   OH251094   5.701   3.294  16.798 -0.4502 -0.2136  0.4078
 9868TIP3    H151095   5.676   3.356  16.729 -0.7115 -1.5654 -0.7723
 9868TIP3    H251096   5.789   3.266  16.775 -0.2921 -0.2068  0.9850
 9869TIP3   OH251097   0.354   2.104   3.401  0.2914 -0.1749  0.3080
 9869TIP3    H151098   0.418   2.113   3.330  1.4355  1.1670  1.4293
 9869TIP3    H251099   0.371   2.179   3.458 -0.4252 -1.3120  2.1205
 9870TIP3   OH251100   0.365   2.388   2.897 -0.1458  0.1673  0.0813
 9870TIP3    H151101   0.381   2.464   2.841  0.3899  0.4141  0.5557
 9870TIP3    H251102   0.274   2.397   2.925 -0.0479  0.7021  0.2317
 9871TIP3   OH251103   2.754   2.912  16.811 -0.2872 -0.0703 -0.0894
 9871TIP3    H151104   2.745   2.859  16.890 -1.7823 -0.7945 -0.7190
 9871TIP3    H251105   2.822   2.976  16.833 -1.2329  0.2763  2.0742
 9872TIP3   OH251106   2.180   6.208  13.609  0.2065 -1.2284 -0.1195
 9872TIP3    H151107   2.273   6.223  13.623 -0.0300 -0.8322  1.2038
 9872TIP3    H251108   2.163   6.124  13.652  0.0064 -1.4315 -0.5949
 9873TIP3   OH251109   5.891   5.851   1.106 -0.4186  0.5570 -0.1661
 9873TIP3    H151110   5.901   5.773   1.052 -0.1603  0.8550 -0.5553
 9873TIP3    H251111   5.912   5.822   1.194  0.6750  0.4142 -0.4589
 9874TIP3   OH251112   3.346   3.261   0.035  0.0421  0.5147  0.1640
 9874TIP3    H151113   3.392   3.339   0.064  1.7149 -0.5102  0.3649
 9874TIP3    H251114   3.329   3.212   0.115  0.8693 -0.2970 -0.1385
 9875TIP3   OH251115   2.269   6.067  16.737 -0.0180 -0.5406  0.2936
 9875TIP3    H151116   2.270   6.056  16.642  0.2887  2.4491 -0.1548
 9875TIP3    H251117   2.184   6.106  16.756  0.5027  0.2985  1.0001
 9876TIP3   OH251118   2.200   3.669  13.151  0.5206 -0.2418 -0.6570
 9876TIP3    H151119   2.184   3.684  13.057 -2.2107  0.7859 -0.1015
 9876TIP3    H251120   2.151   3.738  13.195 -0.0587 -2.0020  1.6121
 9877TIP3   OH251121   4.096   0.384  13.318  0.3652 -0.2108 -0.3094
 9877TIP3    H151122   4.032   0.359  13.384  0.4744 -0.6059 -0.3464
 9877TIP3    H251123   4.111   0.303  13.268  1.0085 -0.1635 -0.1985
 9878TIP3   OH251124   3.921   3.047   5.084 -0.3245 -0.0248  0.3587
 9878TIP3    H151125   4.007   3.044   5.124  0.5865 -1.2399 -1.5664
 9878TIP3    H251126   3.916   3.134   5.044 -0.9283  0.8899  2.3155
 9879TIP3   OH251127   4.374   3.273   4.833  0.0570  0.0405 -0.1533
 9879TIP3    H151128   4.386   3.238   4.921 -0.3710 -1.6552 -0.7257
 9879TIP3    H251129   4.463   3.287   4.800  0.2448 -0.4043  0.1571
 9880TIP3   OH251130   1.970   4.619  15.998 -0.2585 -0.2924  0.0081
 9880TIP3    H151131   1.892   4.629  16.051 -0.0296 -0.0621  0.3073
 9880TIP3    H251132   2.004   4.532  16.019  1.1650  0.6909  2.0752
 9881TIP3   OH251133   6.759   3.894  16.682  0.5266  0.1848  0.0570
 9881TIP3    H151134   6.700   3.832  16.640  1.1143 -0.7622  0.5935
 9881TIP3    H251135   6.843   3.848  16.687 -0.0684 -0.7626  4.4857
 9882TIP3   OH251136   3.098   4.079  15.647  0.1733  0.2190  0.1981
 9882TIP3    H151137   3.193   4.075  15.648  0.3457  1.4589 -2.4187
 9882TIP3    H251138   3.075   4.125  15.728  1.9609  1.6363 -0.0344
 9883TIP3   OH251139   5.014   4.152  12.662 -0.8035 -0.2819 -0.2813
 9883TIP3    H151140   4.970   4.084  12.713 -0.1595 -1.4352 -1.2023
 9883TIP3    H251141   5.034   4.109  12.579  0.2977  0.8183 -0.6001
 9884TIP3   OH251142   4.501   0.938  16.716  0.6753 -0.5155 -0.1890
 9884TIP3    H151143   4.576   0.903  16.666 -0.4136 -2.1128 -0.8011
 9884TIP3    H251144   4.428   0.934  16.654  0.2348  1.9867  0.0590
 9885TIP3   OH251145   5.620   0.106  14.017  0.0856  0.6807  0.2844
 9885TIP3    H151146   5.669   0.185  14.038 -0.8541  2.1503 -2.5755
 9885TIP3    H251147   5.529   0.130  14.035 -0.1627  0.0656 -0.1431
 9886TIP3   OH251148   6.184   3.964  12.029 -0.4058  0.1493 -0.0411
 9886TIP3    H151149   6.168   3.912  11.950 -0.3599  1.2693 -0.8170
 9886TIP3    H251150   6.171   3.903  12.101 -1.2816 -0.6975 -0.8872
 9887TIP3   OH251151   3.543   6.114   0.740  0.3353  0.3887 -0.0803
 9887TIP3    H151152   3.471   6.064   0.778  1.1673 -0.6202  0.2161
 9887TIP3    H251153   3.577   6.057   0.671  2.6703 -0.4702  1.6591
 9888TIP3   OH251154   5.925   1.738  13.244 -0.1768 -0.0047  0.5125
 9888TIP3    H151155   5.899   1.824  13.277 -1.3323  0.0642 -0.5195
 9888TIP3    H251156   5.857   1.678  13.274  0.5830 -0.5633  1.1610
 9889TIP3   OH251157   2.582   0.603  10.543 -0.3080 -0.4479 -0.5394
 9889TIP3    H151158   2.619   0.523  10.581  1.5132  1.2335  1.4676
 9889TIP3    H251159   2.599   0.595  10.449  1.7139 -1.5222 -0.1332
 9890TIP3   OH251160   2.454   2.679  11.710 -0.1026 -0.1594 -0.3045
 9890TIP3    H151161   2.374   2.721  11.741 -0.4995 -0.0695 -1.3963
 9890TIP3    H251162   2.501   2.655  11.789 -0.0812  1.9192  0.3515
 9891TIP3   OH251163   0.004   4.985  11.415  0.1436 -0.1855 -0.4646
 9891TIP3    H151164   0.001   5.013  11.324  1.9407 -0.5434 -0.6768
 9891TIP3    H251165  -0.059   5.042  11.460 -0.3294  0.3957 -1.8161
 9892TIP3   OH251166   5.616   2.781   5.571  0.0688 -0.3202  0.1158
 9892TIP3    H151167   5.645   2.712   5.512 -0.7854  0.0935 -0.8199
 9892TIP3    H251168   5.572   2.845   5.515  0.3967  0.7496  1.0243
 9893TIP3   OH251169   3.527   2.512   0.719 -0.4026  0.5558 -0.2443
 9893TIP3    H151170   3.457   2.561   0.678 -0.3038  0.0165 -1.0873
 9893TIP3    H251171   3.592   2.578   0.744 -1.0016  1.0068  0.1421
 9894TIP3   OH251172   6.234   1.914   1.714 -0.1218  0.3968  0.0910
 9894TIP3    H151173   6.148   1.940   1.746  0.3606  1.7490  0.3551
 9894TIP3    H251174   6.248   1.826   1.749 -2.2968 -0.7649 -1.7455
 9895TIP3   OH251175   0.353   5.808   4.671  0.2176  0.3451  0.1671
 9895TIP3    H151176   0.332   5.844   4.585 -0.3540  0.1717  0.2272
 9895TIP3    H251177   0.436   5.762   4.659 -0.0132  0.0563 -0.3713
 9896TIP3   OH251178   4.262   3.485   0.875 -0.2606  0.2996 -0.0194
 9896TIP3    H151179   4.235   3.477   0.967  0.4942  0.6987  0.2400
 9896TIP3    H251180   4.315   3.564   0.872 -0.8378  0.6701 -0.9468
 9897TIP3   OH251181   2.366   1.755   1.281  0.0001  0.0439 -0.3056
 9897TIP3    H151182   2.381   1.846   1.305  2.4787 -0.5984  0.9058
 9897TIP3    H251183   2.302   1.724   1.345 -0.3082  0.7333 -0.2694
 9898TIP3   OH251184   5.793   1.387   1.505 -0.0650  0.0709  0.1596
 9898TIP3    H151185   5.698   1.373   1.502  0.0457 -0.8241  0.5571
 9898TIP3    H251186   5.804   1.462   1.563 -0.5466  0.4618 -0.2359
 9899TIP3   OH251187   3.397   6.300   2.434  0.0076 -0.4425  0.0753
 9899TIP3    H151188   3.318   6.305   2.379  1.2378 -0.2739 -1.7364
 9899TIP3    H251189   3.412   6.206   2.446 -0.4826 -0.4749  0.4513
 9900TIP3   OH251190   2.257   3.544  12.243  0.6812 -0.2179 -0.0821
 9900TIP3    H151191   2.296   3.618  12.197 -0.3775  0.5994  0.2846
 9900TIP3    H251192   2.170   3.575  12.268  0.9107 -0.9090  1.7567
 9901TIP3   OH251193   4.966   0.464   3.686 -0.0565 -0.0880 -0.0086
 9901TIP3    H151194   4.964   0.492   3.594  0.1116 -0.0801 -0.0110
 9901TIP3    H251195   5.058   0.442   3.702  0.0217  0.4540  0.3205
 9902TIP3   OH251196   6.149   6.338   3.371  0.1147 -0.2856 -0.2183
 9902TIP3    H151197   6.146   6.258   3.424 -1.3701 -0.3100 -0.3022
 9902TIP3    H251198   6.192   6.311   3.290 -1.9590 -1.4886 -0.9906
 9903TIP3   OH251199   5.683   3.838   2.710  0.4025 -0.3351  0.8010
 9903TIP3    H151200   5.712   3.877   2.792 -1.9489  2.0405  0.6345
 9903TIP3    H251201   5.763   3.826   2.659  1.7468 -0.4958  2.8388
 9904TIP3   OH251202   2.012   2.717  14.889  0.3616 -0.8291  0.1907
 9904TIP3    H151203   1.993   2.677  14.804 -1.5322 -0.6162  0.4716
 9904TIP3    H251204   1.953   2.672  14.950 -0.4436  1.0169  0.8547
 9905TIP3   OH251205   4.170   4.523  16.465  0.1799  0.3193 -0.1932
 9905TIP3    H151206   4.106   4.581  16.423 -1.3581 -0.0339  1.5534
 9905TIP3    H251207   4.198   4.570  16.543  1.1507 -0.0556 -0.3034
 9906TIP3   OH251208   2.442   6.498   1.102 -0.3093 -0.5134 -0.0186
 9906TIP3    H151209   2.470   6.457   1.020  0.2650 -3.2834  1.4204
 9906TIP3    H251210   2.514   6.480   1.163 -0.9283  1.0492  1.2291
 9907TIP3   OH251211   0.767   3.057   2.376 -0.3253 -0.1828  0.1667
 9907TIP3    H151212   0.791   3.062   2.284  0.2360  1.0739  0.3606
 9907TIP3    H251213   0.843   3.017   2.419  0.1455  0.8490  0.3213
 9908TIP3   OH251214   4.353   2.447   5.705 -0.3485 -0.4597 -0.0810
 9908TIP3    H151215   4.292   2.515   5.730  1.5620  0.7552  1.5910
 9908TIP3    H251216   4.407   2.486   5.636  0.1709 -0.5897  0.2427
 9909TIP3   OH251217   1.463   3.500   3.265 -0.2810  0.2676  0.2844
 9909TIP3    H151218   1.428   3.589   3.257 -1.9266 -0.4062 -0.7620
 9909TIP3    H251219   1.481   3.489   3.358 -0.4771  1.5380  0.4934
 9910TIP3   OH251220   0.434   4.633   1.159 -0.0676 -0.8035 -0.1697
 9910TIP3    H151221   0.493   4.707   1.179 -1.8708  0.5811  0.3389
 9910TIP3    H251222   0.406   4.648   1.069 -0.8083 -0.5683  0.0903
 9911TIP3   OH251223   1.962   5.868   2.788  0.1877 -0.8738 -0.1540
 9911TIP3    H151224   1.971   5.901   2.699 -0.0939 -1.1803 -0.2955
 9911TIP3    H251225   1.998   5.780   2.786 -0.9169 -1.3379 -0.2492
 9912TIP3   OH251226   3.176   3.364   3.895 -0.0810  0.1122  0.5441
 9912TIP3    H151227   3.160   3.284   3.846 -1.9764 -0.1927  1.5647
 9912TIP3    H251228   3.241   3.340   3.961  1.8207  0.3044 -1.1626
 9913TIP3   OH251229   6.515   2.390   1.671  0.1559  0.1184  0.3279
 9913TIP3    H151230   6.493   2.420   1.759 -1.5128  1.2170 -0.3934
 9913TIP3    H251231   6.474   2.455   1.613  3.5286  1.0548 -1.2894
 9914TIP3   OH251232   4.562   5.651  14.314 -0.1500 -0.3988  0.1900
 9914TIP3    H151233   4.638   5.616  14.268  1.1926  1.1262  1.1320
 9914TIP3    H251234   4.516   5.704  14.249  0.4031 -0.1759 -0.0255
 9915TIP3   OH251235   0.195   0.601   1.711 -0.0641  0.0578  0.2708
 9915TIP3    H151236   0.228   0.688   1.736 -0.3095 -0.0338  0.9233
 9915TIP3    H251237   0.101   0.607   1.726 -0.5157  0.5839 -2.3292
 9916TIP3   OH251238   0.228   3.023   0.259 -0.1577 -0.0342 -0.6931
 9916TIP3    H151239   0.266   2.997   0.175  1.5326 -0.4441  0.1591
 9916TIP3    H251240   0.168   2.952   0.282 -0.6390  0.0879 -1.5376
 9917TIP3   OH251241   1.069   6.059  14.362  0.3938  0.0457  0.1942
 9917TIP3    H151242   1.108   6.019  14.284  1.4150  1.0279  0.1841
 9917TIP3    H251243   1.010   6.126  14.328  1.3702  0.9596  0.2505
 9918TIP3   OH251244   6.285   4.243   2.037 -0.5847  0.3783 -0.3211
 9918TIP3    H151245   6.292   4.150   2.015 -0.0288  0.7140 -1.6829
 9918TIP3    H251246   6.211   4.248   2.098 -1.0260 -0.8737 -0.7276
 9919TIP3   OH251247   1.991   0.365   2.975 -0.0461 -0.4223 -0.0138
 9919TIP3    H151248   1.987   0.280   2.931  2.4524 -1.3566  1.3919
 9919TIP3    H251249   1.969   0.346   3.067 -1.8953  0.9281 -0.1113
 9920TIP3   OH251250   1.042   4.384   2.808 -1.0321  0.0647  0.4925
 9920TIP3    H151251   1.126   4.398   2.852 -1.4603 -0.5979  1.5402
 9920TIP3    H251252   0.988   4.459   2.834 -1.1985 -0.1933  0.9032
 9921TIP3   OH251253   2.251   3.781  13.658  0.0911  0.5615  0.1085
 9921TIP3    H151254   2.295   3.773  13.743  1.8680  0.0338 -0.8054
 9921TIP3    H251255   2.196   3.703  13.652 -1.2703  1.3685  1.3909
 9922TIP3   OH251256   5.472   3.449   2.574 -0.3065  0.0725 -0.0434
 9922TIP3    H151257   5.385   3.414   2.593 -0.7100  1.1564  0.1948
 9922TIP3    H251258   5.486   3.432   2.481  0.2177 -2.1624  0.3868
 9923TIP3   OH251259   3.343   5.596  13.700  0.1353  0.0544  0.0853
 9923TIP3    H151260   3.347   5.504  13.724 -0.0138 -0.0965 -0.4539
 9923TIP3    H251261   3.254   5.609  13.669 -0.7128  1.0486  2.7105
 9924TIP3   OH251262   3.865   4.485  13.672 -0.5813  0.7049 -0.6002
 9924TIP3    H151263   3.878   4.478  13.578  0.5477  1.0895 -0.4910
 9924TIP3    H251264   3.942   4.533  13.703 -1.2916  1.2118  0.4232
 9925TIP3   OH251265   3.198   3.147  12.294 -0.3861 -0.4819 -0.1181
 9925TIP3    H151266   3.205   3.176  12.203 -0.0962  0.1259  0.0915
 9925TIP3    H251267   3.144   3.214  12.336  0.7460  0.0596  0.4982
 9926TIP3   OH251268   0.034   5.059  10.885 -0.0267 -0.1480 -0.2581
 9926TIP3    H151269   0.078   5.030  10.805  1.5402  2.5511 -0.4976
 9926TIP3    H251270   0.017   5.152  10.872 -2.9702 -0.3452  1.2031
 9927TIP3   OH251271   2.853   3.703  11.287 -0.8239 -0.1041 -0.3331
 9927TIP3    H151272   2.815   3.784  11.320 -1.5431  0.0130 -1.4141
 9927TIP3    H251273   2.832   3.638  11.353  0.7391  0.7697  1.1258
 9928TIP3   OH251274   6.053   0.357   1.472  0.0397  0.0948  0.0380
 9928TIP3    H151275   6.120   0.298   1.435 -1.3282 -1.3956 -0.1984
 9928TIP3    H251276   5.972   0.305   1.468 -1.0124  1.6251  0.8719
 9929TIP3   OH251277   0.672   1.195   0.448  0.4701 -0.1544 -0.9526
 9929TIP3    H151278   0.632   1.183   0.534 -1.4588  0.0819 -1.7668
 9929TIP3    H251279   0.760   1.229   0.467 -0.2900  0.9368  0.8870
 9930TIP3   OH251280   1.271   2.263   4.898 -0.5661  0.0813  0.4166
 9930TIP3    H151281   1.193   2.210   4.884  0.1964 -0.9156 -0.2108
 9930TIP3    H251282   1.304   2.234   4.984 -0.6868  0.2493  0.5205
 9931TIP3   OH251283   1.073   4.271  12.741 -0.3394 -1.1101 -0.5617
 9931TIP3    H151284   1.024   4.302  12.665  0.4106  0.4664 -0.4428
 9931TIP3    H251285   1.161   4.251  12.707  0.1093 -0.0406 -0.0679
 9932TIP3   OH251286   3.174   5.705   0.770  0.2699 -0.9332 -0.4437
 9932TIP3    H151287   3.085   5.671   0.764  0.1852 -0.6996 -0.5416
 9932TIP3    H251288   3.228   5.629   0.790 -0.1985 -0.7555  1.6637
 9933TIP3   OH251289   2.428   4.570   2.983  0.5504  0.7863  0.1415
 9933TIP3    H151290   2.429   4.614   3.068  1.4748  0.4674  0.3076
 9933TIP3    H251291   2.474   4.630   2.924 -0.3824  1.1562 -0.2169
 9934TIP3   OH251292   4.072   5.496   0.211 -0.0062 -0.4158 -0.1370
 9934TIP3    H151293   4.115   5.580   0.228 -0.2974 -0.3706  0.3649
 9934TIP3    H251294   3.980   5.519   0.194 -1.4744 -0.9835  5.2901
 9935TIP3   OH251295   5.749   1.392   1.842  0.3722  0.5887  0.3671
 9935TIP3    H151296   5.780   1.468   1.793  3.6690 -0.4107  0.6642
 9935TIP3    H251297   5.728   1.426   1.929  0.6709  1.3289  0.1525
 9936TIP3   OH251298   6.113   2.966  16.291  1.1388 -0.5559  0.0512
 9936TIP3    H151299   6.120   2.913  16.371  1.2233 -1.3658 -0.4836
 9936TIP3    H251300   6.156   2.914  16.224  0.0054 -0.4373 -0.7905
 9937TIP3   OH251301   6.686   5.252  14.857 -0.1683  0.1305 -0.3885
 9937TIP3    H151302   6.688   5.251  14.761 -1.2056 -1.4655 -0.4353
 9937TIP3    H251303   6.636   5.330  14.880  1.0355  1.1378 -1.0869
 9938TIP3   OH251304   0.373   1.695  11.921  0.5038  0.3266  0.2073
 9938TIP3    H151305   0.421   1.697  12.004 -0.7826  2.0809  0.9804
 9938TIP3    H251306   0.441   1.680  11.855  1.6892 -0.2101  1.4859
 9939TIP3   OH251307   4.877   5.800  16.696  0.2759 -0.2715  0.0031
 9939TIP3    H151308   4.901   5.725  16.641  0.3523 -0.2578  0.0176
 9939TIP3    H251309   4.860   5.761  16.782 -0.6832 -0.4083 -0.2331
 9940TIP3   OH251310   5.297   0.184   2.009  0.1272 -0.0555 -0.3642
 9940TIP3    H151311   5.259   0.096   2.000 -0.8301  0.1908  0.9171
 9940TIP3    H251312   5.226   0.243   1.985  0.3358  0.3801  0.0615
 9941TIP3   OH251313   1.856   5.914  16.839  0.5780 -0.1654  0.4182
 9941TIP3    H151314   1.889   5.842  16.893 -2.9846 -1.6143  0.9533
 9941TIP3    H251315   1.806   5.871  16.770  1.9752  1.7681 -1.9569
 9942TIP3   OH251316   1.344   3.926   4.781  0.0910  0.1376  0.2909
 9942TIP3    H151317   1.394   4.006   4.795 -0.6942  0.6667  0.1294
 9942TIP3    H251318   1.253   3.951   4.800 -0.7222  0.2573 -3.1187
 9943TIP3   OH251319   4.464   2.686   2.587  0.4303 -0.5506  0.2352
 9943TIP3    H151320   4.395   2.749   2.609 -0.0070 -0.2494 -1.8036
 9943TIP3    H251321   4.475   2.634   2.667 -1.8435 -0.3094  0.7761
 9944TIP3   OH251322   5.364   5.046  14.108 -0.4325  0.6335  0.3367
 9944TIP3    H151323   5.319   5.055  14.192  0.7974 -1.1431  1.2398
 9944TIP3    H251324   5.301   5.001  14.052 -0.6338  0.2645  0.8547
 9945TIP3   OH251325   6.177   6.193   1.870  0.3423  0.0914 -0.0905
 9945TIP3    H151326   6.135   6.270   1.909 -1.1276 -0.8020  0.2016
 9945TIP3    H251327   6.159   6.123   1.933  0.6647 -0.7182 -0.8796
 9946TIP3   OH251328   3.597   0.975  10.941 -0.3624  0.1570 -0.2878
 9946TIP3    H151329   3.617   0.958  11.033  2.9876  1.3808 -0.6638
 9946TIP3    H251330   3.623   0.895  10.895 -1.7481 -0.3375 -0.2655
 9947TIP3   OH251331   5.565   4.855  11.884 -0.1457  0.2559 -0.1256
 9947TIP3    H151332   5.610   4.893  11.959 -0.7677  1.0506 -0.1392
 9947TIP3    H251333   5.480   4.899  11.882  0.0826  0.7236 -1.6604
 9948TIP3   OH251334   3.051   2.861  16.290  0.2144 -0.0135 -0.8741
 9948TIP3    H151335   2.987   2.908  16.236 -0.1331  2.2816  1.3026
 9948TIP3    H251336   3.000   2.828  16.364  0.6670 -3.0922 -1.8184
 9949TIP3   OH251337   2.022   2.000  11.216  0.0007 -0.0205  0.4125
 9949TIP3    H151338   2.013   2.095  11.215 -0.8931 -0.0959  0.4431
 9949TIP3    H251339   2.107   1.984  11.257 -0.3163  0.7367  1.3855
 9950TIP3   OH251340   0.392   1.361  16.881 -0.0186 -0.3136  0.1072
 9950TIP3    H151341   0.417   1.410  16.802 -1.1035  1.2614  0.6832
 9950TIP3    H251342   0.318   1.307  16.853  0.3340 -0.6321 -0.2207
 9951TIP3   OH251343   1.147   3.556  11.392 -0.3232  0.1842  0.3015
 9951TIP3    H151344   1.159   3.496  11.318  0.2839  1.6913 -0.9012
 9951TIP3    H251345   1.052   3.562  11.402 -0.4249 -2.7689  2.0655
 9952TIP3   OH251346   6.760   3.546  16.339  0.8315 -0.2762  0.2122
 9952TIP3    H151347   6.762   3.465  16.391  0.8958 -0.1198  0.4549
 9952TIP3    H251348   6.789   3.519  16.252  1.8102 -0.3333  0.5451
 9953TIP3   OH251349   1.951   2.453   4.808 -0.2970  0.5396 -0.1998
 9953TIP3    H151350   1.987   2.456   4.896  0.5250  0.2362 -0.5105
 9953TIP3    H251351   1.873   2.398   4.816 -1.6978  2.5702  0.8023
 9954TIP3   OH251352   3.237   3.412   4.718  0.5883  0.1814 -0.1393
 9954TIP3    H151353   3.313   3.355   4.735 -0.7244 -0.9931  2.4415
 9954TIP3    H251354   3.172   3.354   4.679  0.6606  0.9782 -1.4962
 9955TIP3   OH251355   5.937   4.210   3.339  0.6027 -0.5010 -0.0669
 9955TIP3    H151356   5.945   4.280   3.403 -1.0367 -1.0659  0.8111
 9955TIP3    H251357   5.915   4.254   3.257 -2.2158  0.0017  0.8418
 9956TIP3   OH251358   6.756   5.135  12.692 -0.4183  0.5429  0.4030
 9956TIP3    H151359   6.815   5.209  12.702 -0.3575  0.3130  1.9155
 9956TIP3    H251360   6.791   5.087  12.617  0.7836  0.9073  0.7030
 9957TIP3   OH251361   3.735   6.670   1.439 -0.1523 -0.0015 -0.2102
 9957TIP3    H151362   3.735   6.634   1.527 -2.2379  0.0502 -0.1252
 9957TIP3    H251363   3.823   6.653   1.405  0.6443 -0.1390  1.8070
 9958TIP3   OH251364   5.220   0.473  10.983  0.0580  0.2952 -0.4896
 9958TIP3    H151365   5.306   0.437  11.002  0.6228  2.1764  0.7839
 9958TIP3    H251366   5.225   0.501  10.892  1.4114  1.9037  0.0280
 9959TIP3   OH251367   1.119   6.485  12.521  0.2741 -0.1901 -0.6260
 9959TIP3    H151368   1.081   6.419  12.579  0.1677 -1.1773 -1.7986
 9959TIP3    H251369   1.213   6.475  12.531  0.4340  2.3141  2.3481
 9960TIP3   OH251370   4.660   2.854  14.756 -0.1841  0.4024  0.1481
 9960TIP3    H151371   4.726   2.862  14.688  0.6538 -0.7192  0.8009
 9960TIP3    H251372   4.673   2.930  14.812 -0.0192  0.6359 -0.2073
 9961TIP3   OH251373   5.050   5.834   1.352 -0.2659 -0.2170  0.3126
 9961TIP3    H151374   5.122   5.772   1.368  0.7555  0.8805  0.1093
 9961TIP3    H251375   5.092   5.920   1.354 -1.6158  0.4605  0.3246
 9962TIP3   OH251376   1.628   2.624  15.649  0.0759 -0.9350 -0.7316
 9962TIP3    H151377   1.619   2.631  15.744  0.5674  0.8308 -0.7941
 9962TIP3    H251378   1.549   2.578  15.621  1.0667 -3.7688  0.7340
 9963TIP3   OH251379   5.686   3.561  13.639  0.3990 -0.2006 -0.7251
 9963TIP3    H151380   5.621   3.598  13.579 -1.3737  1.2482  1.8651
 9963TIP3    H251381   5.675   3.611  13.719  2.0189 -2.5662  1.1166
 9964TIP3   OH251382   2.005   6.489  12.695  0.3474  0.1679 -0.1662
 9964TIP3    H151383   2.057   6.424  12.742  1.5423  1.8298  0.9740
 9964TIP3    H251384   1.969   6.443  12.620 -0.0301 -2.1304  1.3325
 9965TIP3   OH251385   4.720   2.936  12.347  0.0464 -0.6455  0.0277
 9965TIP3    H151386   4.696   2.907  12.259  0.3379 -0.1589 -0.2176
 9965TIP3    H251387   4.791   2.999  12.333  1.3811 -1.9385  0.7426
 9966TIP3   OH251388   5.440   2.163  16.273  0.3441  0.1306  0.1742
 9966TIP3    H151389   5.409   2.189  16.186 -0.1613 -2.0921 -0.3722
 9966TIP3    H251390   5.415   2.236  16.330 -3.3107 -0.2258 -0.7576
 9967TIP3   OH251391   6.328   6.329  12.084  0.4642 -0.2604 -0.4221
 9967TIP3    H151392   6.324   6.336  12.179  0.5717  2.7314 -0.5372
 9967TIP3    H251393   6.246   6.370  12.054  1.2500  0.5080 -1.6137
 9968TIP3   OH251394   3.274   6.213  11.762 -0.0403  0.0467  0.1957
 9968TIP3    H151395   3.186   6.200  11.797  0.1765  0.8125  1.0707
 9968TIP3    H251396   3.327   6.234  11.839  1.2278 -1.8189 -0.1084
 9969TIP3   OH251397   5.455   1.004   3.883 -0.1903 -0.3231  0.6862
 9969TIP3    H151398   5.471   0.924   3.932  1.7745 -0.6554 -0.4138
 9969TIP3    H251399   5.486   1.074   3.942  1.6078 -0.6787  0.2307
 9970TIP3   OH251400   3.087   5.917  15.209  0.2278  0.1424  0.8067
 9970TIP3    H151401   3.052   6.003  15.186  0.4492  0.2514  0.8709
 9970TIP3    H251402   3.041   5.892  15.289 -1.0633 -0.5488 -0.1096
 9971TIP3   OH251403   4.799   2.585   6.262 -0.0211 -0.6458  0.0755
 9971TIP3    H151404   4.809   2.638   6.342  0.8590 -1.1158  0.2962
 9971TIP3    H251405   4.754   2.642   6.200 -0.6936 -0.2602  0.8982
 9972TIP3   OH251406   0.136   6.398  16.589  0.5454  0.2687 -0.7065
 9972TIP3    H151407   0.104   6.393  16.499  1.5270  0.8581 -1.1080
 9972TIP3    H251408   0.220   6.352  16.587  0.5170  0.1852 -0.0672
 9973TIP3   OH251409   6.361   1.460  11.373 -0.4544  0.3239  0.0162
 9973TIP3    H151410   6.312   1.528  11.418  0.3897  1.2640 -0.4594
 9973TIP3    H251411   6.364   1.387  11.435 -2.1262  0.3783  0.1887
 9974TIP3   OH251412   1.896   5.794   2.082  0.1168  0.0324 -0.8414
 9974TIP3    H151413   1.917   5.853   2.011  0.2226  2.0900  0.8040
 9974TIP3    H251414   1.805   5.815   2.106 -0.5774 -1.9196 -1.4928
 9975TIP3   OH251415   6.245   2.894  15.258 -0.4355 -0.6275  0.2040
 9975TIP3    H151416   6.198   2.923  15.336 -2.8472  2.4664 -2.1312
 9975TIP3    H251417   6.195   2.820  15.224 -0.2267 -1.0411  0.7942
 9976TIP3   OH251418   6.455   2.410   1.940 -0.1736  0.6273 -0.0907
 9976TIP3    H151419   6.374   2.461   1.949  0.2021  1.4361 -1.0952
 9976TIP3    H251420   6.426   2.327   1.904 -0.7022  0.4083  0.8005
 9977TIP3   OH251421   3.625   2.562  12.820 -0.2213  0.1543  0.0332
 9977TIP3    H151422   3.567   2.618  12.768 -0.8562  1.2169  1.7843
 9977TIP3    H251423   3.694   2.621  12.851 -0.7896 -0.0263  1.7582
 9978TIP3   OH251424   2.351   2.430   5.057 -0.5010  0.5683  0.2154
 9978TIP3    H151425   2.383   2.441   4.967 -1.3255 -0.4582 -0.2279
 9978TIP3    H251426   2.426   2.393   5.104 -0.6558 -0.8185 -0.5596
 9979TIP3   OH251427   2.422   3.194   5.627  0.2094 -0.2845 -0.0018
 9979TIP3    H151428   2.461   3.262   5.682  0.2836 -0.5860  0.3261
 9979TIP3    H251429   2.496   3.140   5.600 -0.1813 -2.3829  2.7166
 9980TIP3   OH251430   1.854   2.797  12.853 -0.0236 -0.8146  0.3564
 9980TIP3    H151431   1.761   2.777  12.862 -0.1612 -0.3723 -0.0439
 9980TIP3    H251432   1.895   2.757  12.929 -0.7377  0.2925  1.3506
 9981TIP3   OH251433   5.021   6.426  14.107 -0.7826 -0.4291 -0.1247
 9981TIP3    H151434   4.935   6.469  14.101  0.0274  1.1723 -0.7444
 9981TIP3    H251435   5.052   6.446  14.195 -0.1211  0.9139 -0.6251
 9982TIP3   OH251436   6.104   1.051   1.730  0.0931  0.4694  0.2327
 9982TIP3    H151437   6.010   1.064   1.723 -0.0506 -0.6117  0.0472
 9982TIP3    H251438   6.138   1.136   1.761 -0.9204  0.8812  0.2405
 9983TIP3   OH251439   0.231   6.710   4.612 -0.2333 -0.5036  0.2340
 9983TIP3    H151440   0.308   6.751   4.572 -0.5603  1.6954  1.7005
 9983TIP3    H251441   0.160   6.772   4.597 -1.2765 -1.5741  0.6344
 9984TIP3   OH251442   2.415   0.721  16.630 -0.3908  0.0072  0.3045
 9984TIP3    H151443   2.389   0.645  16.681 -0.3762 -0.1425  0.0889
 9984TIP3    H251444   2.333   0.756  16.596 -0.4460  0.3776  0.8079
 9985TIP3   OH251445   4.560   0.820   2.670 -0.0350  0.0866  0.9449
 9985TIP3    H151446   4.643   0.811   2.624 -0.1438  1.3060  0.4741
 9985TIP3    H251447   4.496   0.775   2.615  0.0205  0.6274  0.4368
 9986TIP3   OH251448   4.317   5.448   1.938  0.4069  0.5655 -0.0280
 9986TIP3    H151449   4.398   5.498   1.947  0.1971  0.7485  0.9396
 9986TIP3    H251450   4.322   5.381   2.006 -0.0684  0.3291 -0.2187
 9987TIP3   OH251451   2.802   4.033   4.949 -0.0904  0.5043 -0.4802
 9987TIP3    H151452   2.774   3.976   5.020 -0.9441  0.5834 -0.7377
 9987TIP3    H251453   2.897   4.025   4.947 -0.1145 -0.0057  0.2383
 9988TIP3   OH251454   3.500   0.570  15.718  0.1988  0.1425  0.1926
 9988TIP3    H151455   3.405   0.567  15.716  0.2277 -0.4532 -1.1654
 9988TIP3    H251456   3.523   0.562  15.811 -1.0049 -1.8824  0.3557
 9989TIP3   OH251457   6.669   6.819   5.205  0.3548 -0.9497 -0.1312
 9989TIP3    H151458   6.722   6.878   5.258  1.6763 -2.0485 -0.1870
 9989TIP3    H251459   6.615   6.772   5.268 -1.5077  0.9741 -0.1474
 9990TIP3   OH251460   1.982   2.693   1.365  0.3248 -0.2004 -0.6181
 9990TIP3    H151461   2.048   2.663   1.302  1.2564  1.1456 -0.3371
 9990TIP3    H251462   2.008   2.783   1.385 -0.6175 -0.2176  0.8290
 9991TIP3   OH251463   5.430   5.000   2.391 -0.6390  0.0919  0.1658
 9991TIP3    H151464   5.408   4.921   2.342  1.2788 -0.8415  0.6770
 9991TIP3    H251465   5.491   5.047   2.333 -0.4154  0.2980  0.5677
 9992TIP3   OH251466   3.470   6.073   0.102  0.0525 -0.4527  0.4439
 9992TIP3    H151467   3.480   6.138   0.172  1.4285 -0.6404  0.4480
 9992TIP3    H251468   3.530   6.103   0.033 -0.9650 -0.5078 -0.4812
 9993TIP3   OH251469   1.934   5.284   1.562 -0.3140  0.0667 -0.2451
 9993TIP3    H151470   2.028   5.304   1.563 -0.5544  1.2649  0.2133
 9993TIP3    H251471   1.929   5.191   1.543  1.1103 -0.7436  2.8048
 9994TIP3   OH251472   2.648   4.576   6.377 -0.3816  0.8103  0.5923
 9994TIP3    H151473   2.556   4.598   6.388 -0.2346  1.6090  0.2744
 9994TIP3    H251474   2.656   4.487   6.412 -1.6966 -0.0993 -1.2327
 9995TIP3   OH251475   5.181   5.622  12.249  0.2117  0.3777  0.6112
 9995TIP3    H151476   5.155   5.666  12.330 -1.4630 -1.4741  1.1714
 9995TIP3    H251477   5.139   5.672  12.179  0.1757  0.9350  1.0241
 9996TIP3   OH251478   6.707   0.247   4.247  0.1569 -0.1999 -0.2430
 9996TIP3    H151479   6.663   0.230   4.331 -1.7332  0.1767 -1.1115
 9996TIP3    H251480   6.765   0.172   4.234  0.9737  0.0307  1.6647
 9997TIP3   OH251481   1.858   0.524   4.096 -0.5567 -0.0964  0.7107
 9997TIP3    H151482   1.927   0.557   4.154  0.9085 -1.5868 -0.0894
 9997TIP3    H251483   1.795   0.596   4.091  1.2847  1.6370  0.9350
 9998TIP3   OH251484   4.203   6.070  15.111  0.5654 -0.6327  0.1580
 9998TIP3    H151485   4.247   6.076  15.027  0.5661 -1.4433  0.0919
 9998TIP3    H251486   4.268   6.099  15.175  0.4321  0.3843 -0.1416
 9999TIP3   OH251487   3.591   3.607   5.016  0.2855 -0.5190  0.2117
 9999TIP3    H151488   3.674   3.654   5.016 -0.6779  1.3405  2.3633
 9999TIP3    H251489   3.541   3.645   4.944 -0.4793  1.9567  1.9110
10000TIP3   OH251490   4.161   4.123   4.061  0.1636 -0.1951 -0.0735
10000TIP3    H151491   4.183   4.188   4.128 -0.1776  0.3395 -0.4746
10000TIP3    H251492   4.079   4.155   4.023  0.9302  0.1203 -1.5192
10001TIP3   OH251493   0.977   4.726  12.646 -0.0010  0.4139  0.7874
10001TIP3    H151494   1.016   4.792  12.588 -0.6061  0.2057  0.1206
10001TIP3    H251495   0.911   4.775  12.696 -1.7424  0.0423 -0.9803
10002TIP3   OH251496   3.495   0.088   5.388 -0.0514 -0.2733  0.2497
10002TIP3    H151497   3.456   0.030   5.322 -1.0013 -0.3962  0.8969
10002TIP3    H251498   3.420   0.116   5.441  0.6728  0.0063  1.1342
10003TIP3   OH251499   1.331   1.608   3.035 -0.5440  0.1967 -0.4206
10003TIP3    H151500   1.311   1.603   3.128 -0.0289 -0.7455 -0.3473
10003TIP3    H251501   1.277   1.539   2.996 -0.2891  0.1750 -0.7354
10004TIP3   OH251502   5.502   2.916   0.253  0.4739  0.3354  0.0550
10004TIP3    H151503   5.530   2.828   0.278 -1.8764 -0.5929 -0.3234
10004TIP3    H251504   5.540   2.929   0.166  0.9450 -0.2407  0.1660
10005TIP3   OH251505   2.535   0.815  10.678 -0.3117  0.2378  0.2692
10005TIP3    H151506   2.470   0.867  10.631 -1.2822 -0.5671  0.6918
10005TIP3    H251507   2.559   0.746  10.616 -2.7443 -1.7604  1.3988
10006TIP3   OH251508   6.211   2.203  15.529 -0.0505 -0.6688 -0.0938
10006TIP3    H151509   6.252   2.257  15.595 -0.7441 -0.7597  0.4175
10006TIP3    H251510   6.269   2.210  15.453 -0.1470  0.8007 -0.0490
10007TIP3   OH251511   5.845   3.095  15.881 -0.3414  0.1331  0.7140
10007TIP3    H151512   5.796   3.107  15.962 -1.1832  1.5491  0.0394
10007TIP3    H251513   5.872   3.003  15.882 -2.6926 -0.6132  1.2771
10008TIP3   OH251514   6.597   0.899  12.454 -0.5948  0.3413  0.3822
10008TIP3    H151515   6.603   0.816  12.407  1.3138  0.4866  0.2992
10008TIP3    H251516   6.624   0.878  12.544  0.6364  0.9725  0.1828
10009TIP3   OH251517   0.588   1.970  16.789  0.3592  0.8723  0.2745
10009TIP3    H151518   0.519   1.950  16.726 -0.8125  0.7119  1.5649
10009TIP3    H251519   0.666   1.928  16.753 -0.4249  0.2284 -0.7306
10010TIP3   OH251520   1.342   1.658   0.579 -0.0374 -0.6341 -0.1385
10010TIP3    H151521   1.406   1.600   0.537  2.1713 -0.3836  2.6296
10010TIP3    H251522   1.341   1.631   0.670 -2.6760  0.5341  0.2550
10011TIP3   OH251523   4.438   4.688   3.531  0.2273 -0.4357  0.5792
10011TIP3    H151524   4.367   4.715   3.472  0.8336  0.4343  0.2187
10011TIP3    H251525   4.499   4.761   3.529  1.5965 -1.5558  0.1587
10012TIP3   OH251526   3.195   3.802  14.433 -0.0597 -0.1747  0.1645
10012TIP3    H151527   3.285   3.772  14.419 -0.5103 -2.0208  0.9793
10012TIP3    H251528   3.142   3.722  14.434 -1.6334  0.8231  0.3156
10013TIP3   OH251529   5.955   5.347  13.431 -0.4480  0.3478 -0.1576
10013TIP3    H151530   6.008   5.405  13.375 -3.2189  1.0364 -2.3769
10013TIP3    H251531   5.977   5.259  13.402  1.0490  0.4662  0.5462
10014TIP3   OH251532   1.507   5.640  12.967 -0.7935 -0.3397 -0.3937
10014TIP3    H151533   1.510   5.723  13.014  0.8122 -0.6298  0.0940
10014TIP3    H251534   1.539   5.575  13.030 -1.7149 -1.2828 -0.8684
10015TIP3   OH251535   1.199   0.397  13.206 -0.7461 -0.1229  0.1841
10015TIP3    H151536   1.258   0.322  13.205 -2.0708 -1.1993  0.4429
10015TIP3    H251537   1.230   0.451  13.279  0.3059 -0.3097 -0.0996
10016TIP3   OH251538   4.017   6.209  11.788 -0.3559  0.4665  0.5402
10016TIP3    H151539   3.979   6.127  11.759 -0.8590  0.7485  0.3977
10016TIP3    H251540   4.081   6.183  11.854  0.2247 -0.1178 -0.2244
10017TIP3   OH251541   5.742   2.325  13.361 -0.0083 -0.0315 -0.2960
10017TIP3    H151542   5.795   2.393  13.402  1.8336 -0.6209 -1.5550
10017TIP3    H251543   5.681   2.297  13.429 -0.3189  2.3240  0.4829
10018TIP3   OH251544   3.926   4.412  12.495  0.2914 -0.5917  0.0741
10018TIP3    H151545   3.852   4.451  12.449  0.8937  1.5024  0.7629
10018TIP3    H251546   3.943   4.470  12.569  1.9830 -1.5662  0.5300
10019TIP3   OH251547   3.711   3.922  11.732  0.2136 -0.3471  0.0965
10019TIP3    H151548   3.743   3.832  11.728  0.8759 -0.0867 -0.5215
10019TIP3    H251549   3.730   3.959  11.646 -1.5834 -0.1165 -0.2476
10020TIP3   OH251550   6.410   0.719   3.784  0.0477 -0.5178 -0.2624
10020TIP3    H151551   6.493   0.722   3.833  0.3341 -2.8500 -0.4895
10020TIP3    H251552   6.433   0.754   3.698  0.4153  0.2632  0.1393
10021TIP3   OH251553   1.747   0.242   4.991 -0.1719  0.1797 -0.3457
10021TIP3    H151554   1.747   0.274   5.082 -1.5591 -0.1469 -0.2098
10021TIP3    H251555   1.689   0.301   4.945  1.0738  0.7687 -1.2114
10022TIP3   OH251556   3.453   0.194  15.288  0.2510 -0.1323 -0.2822
10022TIP3    H151557   3.396   0.193  15.365 -0.5208 -1.0710 -0.8388
10022TIP3    H251558   3.535   0.156  15.319 -0.5227 -1.8534 -0.2216
10023TIP3   OH251559   6.802   6.085   3.709 -0.3538 -0.0335 -0.7196
10023TIP3    H151560   6.844   6.157   3.755 -1.4677  0.1940 -0.0390
10023TIP3    H251561   6.795   6.115   3.618  2.0213 -0.5607 -1.1562
10024TIP3   OH251562   6.635   5.247  15.659 -0.0176 -0.3184  0.5756
10024TIP3    H151563   6.540   5.249  15.657 -0.0995 -2.0837 -1.8131
10024TIP3    H251564   6.662   5.338  15.648 -1.4733  0.0182 -0.4705
10025TIP3   OH251565   2.800   0.803   3.324 -0.7859 -0.1227 -0.2758
10025TIP3    H151566   2.751   0.874   3.366 -0.0808 -0.5084  1.2683
10025TIP3    H251567   2.840   0.844   3.247  1.1405  1.7098  1.5627
10026TIP3   OH251568   4.341   5.543  14.444 -0.0156  0.0642  0.2305
10026TIP3    H151569   4.252   5.573  14.427  0.4954  0.4248 -2.2019
10026TIP3    H251570   4.393   5.623  14.450 -0.0138 -0.0298  3.4880
10027TIP3   OH251571   2.301   5.554  13.490 -0.0568  0.5817 -0.0691
10027TIP3    H151572   2.218   5.587  13.527  0.3736 -0.5123  2.0232
10027TIP3    H251573   2.285   5.552  13.396 -2.2285  0.9280  0.2178
10028TIP3   OH251574   2.021   4.449   0.430 -0.2153  0.2140  0.0320
10028TIP3    H151575   2.054   4.465   0.342  2.3542 -0.6774  0.7585
10028TIP3    H251576   2.060   4.518   0.484 -2.6115  1.4072  0.3665
10029TIP3   OH251577   2.865   6.562   0.235 -0.3413 -0.0171 -0.0683
10029TIP3    H151578   2.817   6.629   0.284  0.6000  0.0368  0.8417
10029TIP3    H251579   2.868   6.594   0.145 -1.8182  0.0584 -0.1046
10030TIP3   OH251580   5.225   6.432   4.746 -0.0330 -0.1521 -0.1765
10030TIP3    H151581   5.143   6.384   4.758  0.4931 -1.2277 -0.7656
10030TIP3    H251582   5.238   6.435   4.651 -0.0672  1.2217 -0.1669
10031TIP3   OH251583   1.656   0.742  11.439  0.2350 -0.6811 -0.0666
10031TIP3    H151584   1.665   0.686  11.516  0.5640 -0.0341  0.3786
10031TIP3    H251585   1.732   0.721  11.384 -0.3597 -1.6313 -0.5507
10032TIP3   OH251586   4.910   2.738   0.171  0.7310 -0.1316 -0.0408
10032TIP3    H151587   4.848   2.759   0.102  0.8005  0.1903 -0.0044
10032TIP3    H251588   4.870   2.771   0.251  1.0824  0.3405 -0.0564
10033TIP3   OH251589   4.456   5.851   4.235 -0.0807 -0.6423 -0.2293
10033TIP3    H151590   4.423   5.917   4.174 -2.2305 -0.2704  1.2141
10033TIP3    H251591   4.549   5.871   4.244 -0.0863  0.3773 -2.0161
10034TIP3   OH251592   3.005   3.955  12.705 -0.1068 -0.2197 -0.2295
10034TIP3    H151593   3.047   3.886  12.757 -0.4320  0.4236  0.9221
10034TIP3    H251594   2.914   3.929  12.698  0.0399 -0.5763 -0.9707
10035TIP3   OH251595   6.271   1.555  15.997 -0.7765  0.0142 -0.3015
10035TIP3    H151596   6.223   1.574  15.917  2.6704  0.2179 -2.5275
10035TIP3    H251597   6.275   1.460  16.002 -1.0272  0.0012 -0.3544
10036TIP3   OH251598   4.304   3.323   1.170 -0.2048 -0.1880  0.2519
10036TIP3    H151599   4.380   3.305   1.226  0.6926  1.7576 -0.2704
10036TIP3    H251600   4.288   3.416   1.180 -3.1141 -0.6770  1.0034
10037TIP3   OH251601   2.990   0.661   0.569 -0.2321  0.0740 -0.7104
10037TIP3    H151602   3.083   0.662   0.591 -0.4130 -0.5207  0.1194
10037TIP3    H251603   2.978   0.737   0.511  0.3086  1.6117  1.1035
10038TIP3   OH251604   4.653   2.081   0.266  0.0172 -0.3763  0.5052
10038TIP3    H151605   4.747   2.071   0.279 -0.3001 -1.4434  2.3780
10038TIP3    H251606   4.625   2.139   0.336 -0.9798 -1.6522  1.2114
10039TIP3   OH251607   4.354   4.506  10.971  0.1533  0.3819 -0.7396
10039TIP3    H151608   4.294   4.454  10.919  0.4159  1.3384 -2.0497
10039TIP3    H251609   4.441   4.472  10.949  0.1669 -0.7943  0.9154
10040TIP3   OH251610   3.743   5.231   3.962 -0.5620  0.0657  0.3406
10040TIP3    H151611   3.838   5.240   3.960 -0.5584  0.4418 -2.2302
10040TIP3    H251612   3.718   5.248   4.053  1.9288 -1.6879  1.4561
10041TIP3   OH251613   6.311   2.007   6.336  0.2056  0.1633  0.1368
10041TIP3    H151614   6.318   1.998   6.432  0.8321  1.2628  0.2064
10041TIP3    H251615   6.234   2.062   6.323  0.4617  0.5032  0.0430
10042TIP3   OH251616   2.419   2.083  15.129 -0.0812  0.5949  0.1481
10042TIP3    H151617   2.373   2.005  15.100  0.4780  0.6885 -1.0220
10042TIP3    H251618   2.503   2.051  15.163 -0.6597  0.5026  1.5428
10043TIP3   OH251619   0.643   2.750   3.245  0.0095  0.3161 -0.3881
10043TIP3    H151620   0.606   2.834   3.218 -1.3193 -0.1100  0.0237
10043TIP3    H251621   0.732   2.770   3.273 -0.1897  1.5301 -0.5970
10044TIP3   OH251622   4.252   2.204  15.097 -0.4512  0.4278  0.1223
10044TIP3    H151623   4.183   2.137  15.100  1.0223 -1.1295  1.7153
10044TIP3    H251624   4.313   2.172  15.030 -0.4992  1.0004 -0.1993
10045TIP3   OH251625   1.406   3.940   2.638  0.4487  0.1700  0.1584
10045TIP3    H151626   1.320   3.946   2.680  0.7910 -0.2363  0.9476
10045TIP3    H251627   1.393   3.977   2.551 -0.5332  0.0827  0.2541
10046TIP3   OH251628   6.213   3.100   4.094 -0.0311  0.3961  0.6664
10046TIP3    H151629   6.228   3.163   4.164  0.4533 -0.8512  1.7282
10046TIP3    H251630   6.118   3.087   4.095 -0.5041  2.9382 -1.2713
10047TIP3   OH251631   4.006   0.556  15.427  0.4948 -0.0876  0.4382
10047TIP3    H151632   4.070   0.526  15.362  0.2887 -0.3455  0.3549
10047TIP3    H251633   4.058   0.575  15.505  1.0905  2.4142 -0.4749
10048TIP3   OH251634   2.355   5.878  13.509  1.3118  0.8042  0.1349
10048TIP3    H151635   2.338   5.843  13.421 -0.4654  0.8951  0.4012
10048TIP3    H251636   2.268   5.888  13.547  2.0347  1.3141  1.7051
10049TIP3   OH251637   4.371   1.891  15.309  0.0277 -0.2901 -0.1303
10049TIP3    H151638   4.387   1.813  15.256  0.1713  0.6871 -1.5862
10049TIP3    H251639   4.334   1.955  15.247 -1.3767  0.3645  1.3015
10050TIP3   OH251640   4.973   1.970  15.298 -0.3152  0.3933 -0.9065
10050TIP3    H151641   4.990   1.888  15.252 -0.0249  0.6578 -1.2756
10050TIP3    H251642   4.910   1.946  15.366  0.4289 -0.3194 -0.4412
10051TIP3   OH251643   1.455   4.822   2.452  0.2957 -0.5117 -0.1789
10051TIP3    H151644   1.541   4.864   2.464 -0.7101  1.2854  1.4353
10051TIP3    H251645   1.418   4.865   2.375 -0.5303  1.3763  1.1888
10052TIP3   OH251646   6.330   2.039  13.469 -0.0630  0.1279  0.5451
10052TIP3    H151647   6.392   2.035  13.542  0.8663  0.4962 -0.2005
10052TIP3    H251648   6.257   1.984  13.497  0.6393 -0.4034  1.4105
10053TIP3   OH251649   2.248   1.173   4.353 -0.0146  0.5471 -0.0451
10053TIP3    H151650   2.243   1.217   4.438  1.9765  1.7816 -0.5024
10053TIP3    H251651   2.333   1.200   4.317 -0.5989 -0.3271 -2.2225
10054TIP3   OH251652   5.897   3.075   3.518 -0.0345  0.2427  0.2421
10054TIP3    H151653   5.982   3.075   3.476 -0.7654  1.5157 -1.3555
10054TIP3    H251654   5.839   3.032   3.456 -0.7180  0.0862  0.9668
10055TIP3   OH251655   5.268   0.827  13.492 -0.2201  0.2517 -0.4410
10055TIP3    H151656   5.234   0.738  13.479 -0.8355  0.1619  1.4197
10055TIP3    H251657   5.363   0.817  13.491 -0.2640 -0.1868 -1.5935
10056TIP3   OH251658   2.307   0.987  13.519  0.2804 -0.3002 -0.2279
10056TIP3    H151659   2.291   1.021  13.607  0.0410 -0.5655 -0.1689
10056TIP3    H251660   2.222   0.955  13.489  0.3326 -0.1023 -0.6045
10057TIP3   OH251661   4.354   1.132  12.164  0.3854 -0.1481  0.4162
10057TIP3    H151662   4.325   1.059  12.110 -0.3296  0.0252  0.5554
10057TIP3    H251663   4.441   1.107  12.194  0.0247 -1.0821  0.7161
10058TIP3   OH251664   2.682   5.556   5.811  0.2619 -0.2841  0.3132
10058TIP3    H151665   2.645   5.619   5.748 -0.5622 -1.0503  0.0141
10058TIP3    H251666   2.612   5.544   5.875 -0.5533 -2.6438 -0.8857
10059TIP3   OH251667   4.777   5.575   2.401 -0.6918 -0.2023 -0.5452
10059TIP3    H151668   4.842   5.604   2.337 -0.5512 -2.4996 -1.5562
10059TIP3    H251669   4.749   5.655   2.445  0.7082  1.2113 -2.0732
10060TIP3   OH251670   3.604   0.425  16.568 -0.1946  0.3755 -0.0971
10060TIP3    H151671   3.698   0.419  16.552 -0.0406  0.4223  0.7638
10060TIP3    H251672   3.588   0.517  16.588 -0.8170  0.8681 -2.5183
10061TIP3   OH251673   3.005   1.062  15.596 -0.1844 -0.0411  1.0278
10061TIP3    H151674   2.993   1.120  15.672 -2.0914  0.8778  0.1126
10061TIP3    H251675   3.095   1.031  15.603 -0.1288  0.4554  3.3460
10062TIP3   OH251676   6.119   3.145  13.846  0.5563 -0.0478 -0.3738
10062TIP3    H151677   6.166   3.173  13.924  0.5270 -0.7724 -0.0950
10062TIP3    H251678   6.028   3.134  13.875  0.2387  1.1385 -0.8583
10063TIP3   OH251679   4.781   5.392  12.563  0.6657  0.6393 -0.1666
10063TIP3    H151680   4.713   5.436  12.615 -0.7418 -0.3491 -1.1109
10063TIP3    H251681   4.838   5.464  12.533 -1.2880  1.8072 -1.2607
10064TIP3   OH251682   2.175   2.827  12.453  0.4375  0.2484  0.0214
10064TIP3    H151683   2.141   2.913  12.432  1.3374  0.3990 -0.8687
10064TIP3    H251684   2.110   2.790  12.513  0.8586  2.1858  1.7915
10065TIP3   OH251685   3.597   4.421  15.607 -0.6686  0.5991  0.1933
10065TIP3    H151686   3.641   4.338  15.585 -0.9233  0.4829  0.1148
10065TIP3    H251687   3.627   4.482  15.539  2.9330  1.8070  2.6102
10066TIP3   OH251688   2.109   3.539   1.325 -0.5877  0.0637 -0.6184
10066TIP3    H151689   2.074   3.538   1.236 -0.7635 -1.6408 -0.5742
10066TIP3    H251690   2.055   3.603   1.371 -0.2266  1.2737 -1.8165
10067TIP3   OH251691   0.154   3.257  16.114 -0.3626 -0.3172  0.1901
10067TIP3    H151692   0.071   3.237  16.158 -0.6201 -0.5220 -0.3728
10067TIP3    H251693   0.220   3.208  16.163 -0.2708  1.3286  1.8223
10068TIP3   OH251694   1.196   6.762  12.765 -0.1136  0.0383 -0.7241
10068TIP3    H151695   1.284   6.789  12.794 -1.2052  2.5404  0.5190
10068TIP3    H251696   1.180   6.813  12.686 -1.0095  0.7882 -0.0824
10069TIP3   OH251697   2.105   1.927  12.452 -0.3506  0.5959 -0.3595
10069TIP3    H151698   2.089   1.892  12.364 -0.3913 -3.6920  1.1590
10069TIP3    H251699   2.018   1.943  12.488 -0.6989 -2.9088  0.6665
10070TIP3   OH251700   5.225   3.790  13.473  1.1707  0.6736  0.4332
10070TIP3    H151701   5.192   3.790  13.383  0.5454 -0.6870  0.6437
10070TIP3    H251702   5.194   3.874  13.509 -1.0922 -0.0100  0.2425
10071TIP3   OH251703   0.545   2.286   4.417  0.2752 -1.1546 -0.2638
10071TIP3    H151704   0.607   2.258   4.484 -1.6688 -0.8496  1.8089
10071TIP3    H251705   0.510   2.369   4.450  0.5084 -0.0756 -2.5685
10072TIP3   OH251706   6.564   2.378  12.876  0.2486 -0.1887  0.2622
10072TIP3    H151707   6.610   2.462  12.876  0.0592 -0.0860  0.1767
10072TIP3    H251708   6.551   2.359  12.969  0.8314 -0.4203  0.3035
10073TIP3   OH251709   2.043   1.315   4.491  0.5378  0.4716  0.0655
10073TIP3    H151710   2.087   1.341   4.411  1.1975 -0.2053  0.1886
10073TIP3    H251711   1.961   1.275   4.462  0.2124  1.3057 -0.1937
10074TIP3   OH251712   6.178   4.312   5.159  0.6509  0.0961  0.5909
10074TIP3    H151713   6.189   4.403   5.188 -0.0979  0.5555 -0.4828
10074TIP3    H251714   6.255   4.294   5.106  0.4262  0.3882  0.1548
10075TIP3   OH251715   3.016   5.479  15.567 -0.0579  0.1027 -0.0571
10075TIP3    H151716   2.983   5.568  15.579 -0.5890 -0.0129 -0.5628
10075TIP3    H251717   2.937   5.427  15.554  0.2741 -0.3721 -0.1824
10076TIP3   OH251718   3.372   6.089   5.192  0.6764  0.2129 -0.0332
10076TIP3    H151719   3.278   6.097   5.203  0.8527  0.8817  1.1525
10076TIP3    H251720   3.383   6.019   5.126 -0.5964 -1.2827  1.2639
10077TIP3   OH251721   6.223   5.642   2.245 -0.1834 -0.2949  0.7237
10077TIP3    H151722   6.152   5.699   2.216  1.2550  0.5027 -1.4606
10077TIP3    H251723   6.251   5.679   2.329 -1.7118 -0.0985  1.1757
10078TIP3   OH251724   5.462   3.646   4.863 -0.2522 -0.0404 -0.0900
10078TIP3    H151725   5.421   3.687   4.939 -0.7490  1.3564 -1.0723
10078TIP3    H251726   5.424   3.691   4.788 -1.0952 -2.5596 -1.2824
10079TIP3   OH251727   0.354   0.265  11.643 -0.1894 -0.4468  0.0218
10079TIP3    H151728   0.280   0.316  11.611 -0.0190  0.4459  0.9980
10079TIP3    H251729   0.376   0.206  11.571 -1.9894 -0.8945 -0.1969
10080TIP3   OH251730   1.810   2.843  13.831  0.5872  0.4012 -0.1198
10080TIP3    H151731   1.888   2.795  13.857  0.6152 -0.3096 -1.4155
10080TIP3    H251732   1.752   2.776  13.794  0.5646  1.3077 -1.8134
10081TIP3   OH251733   2.587   5.952   5.052 -0.1096 -0.1012 -0.1662
10081TIP3    H151734   2.627   6.021   4.999 -0.7033 -0.0367 -0.5316
10081TIP3    H251735   2.515   5.995   5.098 -0.5348 -0.4943 -0.4570
10082TIP3   OH251736   2.727   2.445   1.818 -0.0969  0.1085 -0.4285
10082TIP3    H151737   2.771   2.422   1.899  0.7509  0.2402 -0.8396
10082TIP3    H251738   2.649   2.493   1.846 -0.2362 -0.5353  0.3231
10083TIP3   OH251739   4.533   3.137  14.276 -0.1625 -0.2943 -0.1035
10083TIP3    H151740   4.455   3.182  14.308 -0.1886 -0.3160 -0.1369
10083TIP3    H251741   4.514   3.044  14.290 -0.2982 -0.3213 -0.4666
10084TIP3   OH251742   1.334   1.021  14.682  0.0964  0.0501 -0.4553
10084TIP3    H151743   1.419   1.028  14.637  0.9922 -0.8717  1.0079
10084TIP3    H251744   1.323   0.928  14.698  0.0074  0.3485  1.5293
10085TIP3   OH251745   5.852   4.121   1.340  0.6529 -0.1769 -0.0545
10085TIP3    H151746   5.762   4.134   1.370  1.2167  0.0230  1.6474
10085TIP3    H251747   5.858   4.174   1.260 -0.3846  0.8318  0.5028
10086TIP3   OH251748   4.553   2.752   0.624  0.3544 -0.0325 -0.2753
10086TIP3    H151749   4.535   2.764   0.531  0.3101 -0.2884 -0.2995
10086TIP3    H251750   4.517   2.831   0.665 -0.8693 -0.5451 -0.3235
10087TIP3   OH251751   2.070   6.265  14.653  0.0929 -0.1936  0.2426
10087TIP3    H151752   2.144   6.213  14.685  1.1327  0.1563 -1.4587
10087TIP3    H251753   2.070   6.343  14.709  0.2075 -0.7734  1.0644
10088TIP3   OH251754   1.807   0.868   4.224 -0.2737 -0.1013 -0.0753
10088TIP3    H151755   1.749   0.866   4.148 -0.1337 -3.0453 -0.2104
10088TIP3    H251756   1.890   0.903   4.191 -0.0394 -1.8341 -1.4920
10089TIP3   OH251757   5.809   1.885   0.004  0.6164  0.3420  0.4023
10089TIP3    H151758   5.899   1.918   0.013  0.4144  0.9332  0.3058
10089TIP3    H251759   5.816   1.809  -0.053  0.9575  0.8363 -0.2248
10090TIP3   OH251760   0.050   3.557   4.786  0.2167  0.6289  0.1192
10090TIP3    H151761   0.033   3.571   4.879 -0.3059  2.7500 -0.2284
10090TIP3    H251762   0.143   3.574   4.775  0.5936 -1.0678  0.4491
10091TIP3   OH251763   3.447   1.368  13.722  0.2270 -0.1929 -0.5826
10091TIP3    H151764   3.481   1.279  13.733  0.3369 -0.2602 -1.4398
10091TIP3    H251765   3.379   1.375  13.790  0.0985 -0.9894 -0.6153
10092TIP3   OH251766   1.569   1.318  11.774  0.2335  0.3394 -0.4330
10092TIP3    H151767   1.589   1.281  11.688  1.6248  0.9438 -0.3934
10092TIP3    H251768   1.620   1.264  11.835 -1.1300 -0.4072  0.0935
10093TIP3   OH251769   0.967   2.355  16.717  0.2189 -0.5499  0.1589
10093TIP3    H151770   0.924   2.292  16.775 -0.7889 -0.2512 -0.2373
10093TIP3    H251771   1.041   2.307  16.681  0.7357 -0.8019  1.5145
10094TIP3   OH251772   6.334   2.575  11.629  0.1144 -0.2053  0.5752
10094TIP3    H151773   6.244   2.596  11.603  0.1263 -0.1874  0.5479
10094TIP3    H251774   6.389   2.621  11.565  0.1418 -0.3081  0.5260
10095TIP3   OH251775   1.059   3.524  10.405 -0.3476  0.0650  0.5247
10095TIP3    H151776   1.011   3.592  10.452  0.4585  1.4808 -0.6402
10095TIP3    H251777   1.001   3.501  10.332  0.7056  1.8442 -0.9389
10096TIP3   OH251778   6.027   5.638   4.337 -0.8534  0.3226 -0.6982
10096TIP3    H151779   5.962   5.645   4.267 -1.6103  1.8317  0.1062
10096TIP3    H251780   6.087   5.710   4.322  1.2918 -1.5929 -1.9743
10097TIP3   OH251781   3.809   0.719   4.003  0.1002 -0.2042  0.1095
10097TIP3    H151782   3.767   0.639   4.035 -0.3065  0.0175  0.1245
10097TIP3    H251783   3.737   0.778   3.982  0.4027  0.3069  0.4747
10098TIP3   OH251784   6.268   4.159  16.206 -0.3544  0.2525 -0.2386
10098TIP3    H151785   6.203   4.180  16.273 -0.5969  0.9529 -0.6877
10098TIP3    H251786   6.352   4.177  16.248 -0.5533  2.7952 -0.7826
10099TIP3   OH251787   2.141   3.527  13.684  0.4876  0.3602  0.0923
10099TIP3    H151788   2.055   3.536  13.726  0.4377 -0.8860  0.2832
10099TIP3    H251789   2.126   3.467  13.611  1.3259 -0.4200  0.5531
10100TIP3   OH251790   6.701   2.716   1.699  0.5392  0.4753 -0.8227
10100TIP3    H151791   6.719   2.721   1.605  0.1245  1.5774 -0.8543
10100TIP3    H251792   6.670   2.803   1.723  0.8861  0.2907  0.3972
10101TIP3   OH251793   4.387   1.075   1.886  0.7367  0.3049 -0.4998
10101TIP3    H151794   4.442   1.150   1.860  1.0612  0.4289  0.4863
10101TIP3    H251795   4.424   1.047   1.970 -0.9327  0.6182  0.3830
10102TIP3   OH251796   6.118   0.328   2.114  0.3216  0.7480 -0.3627
10102TIP3    H151797   6.101   0.378   2.034  0.0464  0.0205 -0.7674
10102TIP3    H251798   6.116   0.237   2.086  0.1583  0.4820  0.4895
10103TIP3   OH251799   4.798   4.841   0.856  0.1003  0.2452  0.4653
10103TIP3    H151800   4.782   4.932   0.833  1.6119  0.1090 -1.3541
10103TIP3    H251801   4.872   4.845   0.918  0.1987  0.2592  0.3477
10104TIP3   OH251802   5.679   3.778  15.254 -0.2359 -0.8357  0.2968
10104TIP3    H151803   5.685   3.871  15.229  0.4634 -1.2134 -1.0586
10104TIP3    H251804   5.626   3.738  15.185 -1.0966 -1.3357  1.2319
10105TIP3   OH251805   0.541   0.600   1.824 -0.2180  0.3365 -0.3612
10105TIP3    H151806   0.470   0.663   1.811 -1.9446 -1.3286  0.6175
10105TIP3    H251807   0.499   0.514   1.820  1.4635 -0.6936  1.7908
10106TIP3   OH251808   1.484   1.875   0.458 -0.5075 -0.3023  0.9799
10106TIP3    H151809   1.409   1.886   0.399 -0.6790 -0.6389  1.1285
10106TIP3    H251810   1.478   1.784   0.487  0.0036 -0.3532  0.9379
10107TIP3   OH251811   6.279   5.280   1.516 -0.5714  0.1759  0.2209
10107TIP3    H151812   6.341   5.269   1.444 -0.4259  1.3459  0.1433
10107TIP3    H251813   6.255   5.191   1.541  1.2712 -0.3174  0.3671
10108TIP3   OH251814   2.189   3.735  12.549  0.3656  0.0826 -0.3224
10108TIP3    H151815   2.117   3.695  12.597  1.1901 -2.0878 -0.7529
10108TIP3    H251816   2.151   3.760  12.464  0.0340 -0.7374 -0.4208
10109TIP3   OH251817   3.623   0.998   0.751 -0.6967  0.0951 -0.7608
10109TIP3    H151818   3.658   0.996   0.840 -1.4626  1.5094 -0.3978
10109TIP3    H251819   3.676   0.935   0.703  1.6389  1.3604  0.0092
10110TIP3   OH251820   2.709   3.817  10.759 -0.4336 -0.2403  0.3021
10110TIP3    H151821   2.741   3.750  10.819  0.5490 -0.8319 -0.8317
10110TIP3    H251822   2.788   3.850  10.717 -1.1907 -0.9877 -1.8283
10111TIP3   OH251823   1.725   1.497  10.890 -0.1381  0.2742  0.8715
10111TIP3    H151824   1.734   1.439  10.814 -1.0680 -0.9632  1.6645
10111TIP3    H251825   1.675   1.572  10.856  0.1744  0.1380  0.0719
10112TIP3   OH251826   2.379   2.258   4.345 -0.0660 -0.7170  0.1412
10112TIP3    H151827   2.318   2.310   4.399  0.9103 -1.1929  1.7851
10112TIP3    H251828   2.332   2.176   4.330  0.1482 -1.1266  1.4983
10113TIP3   OH251829   6.818   5.714   2.539 -0.3431 -0.2158 -0.4779
10113TIP3    H151830   6.732   5.723   2.581 -0.5646 -1.4916 -0.6123
10113TIP3    H251831   6.831   5.620   2.531  0.7024 -0.0286 -1.2367
10114TIP3   OH251832   4.322   4.603   5.423 -0.3935  0.2768  0.1029
10114TIP3    H151833   4.403   4.652   5.437 -0.4413  0.2768  0.4029
10114TIP3    H251834   4.302   4.566   5.509 -1.4572  1.4180  0.3790
10115TIP3   OH251835   2.934   6.013  14.151  0.1694  0.2537  0.5093
10115TIP3    H151836   2.964   6.026  14.062  1.8144  1.6185  1.2036
10115TIP3    H251837   2.925   6.102  14.187 -0.3164 -0.2677  1.7452
10116TIP3   OH251838   0.516   5.423   5.062  0.0960 -0.0275 -0.0837
10116TIP3    H151839   0.596   5.474   5.072 -0.5887  0.9057  0.8995
10116TIP3    H251840   0.537   5.337   5.100  0.9174 -0.1220 -0.7274
10117TIP3   OH251841   3.166   3.177  14.612 -0.4271  0.2509  0.1713
10117TIP3    H151842   3.241   3.229  14.584  1.2878 -0.6698  2.6951
10117TIP3    H251843   3.157   3.110  14.544 -0.7022  1.8830 -1.4916
10118TIP3   OH251844   0.375   6.276   4.243  0.2337  0.1762 -0.2534
10118TIP3    H151845   0.361   6.319   4.158 -1.4129  1.3443  0.5528
10118TIP3    H251846   0.307   6.210   4.248 -0.1407  0.6069  0.4475
10119TIP3   OH251847   6.403   4.115   4.173  0.0367  0.0052  0.1286
10119TIP3    H151848   6.444   4.054   4.234 -2.0081 -2.3554 -0.6861
10119TIP3    H251849   6.443   4.097   4.089 -2.2822 -2.1590 -0.6274
10120TIP3   OH251850   3.631   1.652   3.439 -0.1538  0.1691  0.2791
10120TIP3    H151851   3.646   1.614   3.353  0.3511  0.5070  0.2124
10120TIP3    H251852   3.684   1.599   3.499 -0.7698 -0.2795  0.4396
10121TIP3   OH251853   6.255   3.582   0.738 -0.1127 -0.3453  0.0259
10121TIP3    H151854   6.272   3.580   0.832  0.0628  0.2606  0.0114
10121TIP3    H251855   6.333   3.621   0.700 -0.5855  0.3366 -0.2697
10122TIP3   OH251856   5.907   3.414  12.542  0.2954 -0.3956  0.1818
10122TIP3    H151857   5.936   3.346  12.602 -0.9372 -0.5725  0.6050
10122TIP3    H251858   5.951   3.394  12.460  1.0864 -0.8369  0.7103
10123TIP3   OH251859   6.087   6.340   1.395 -0.2944 -0.1661 -0.1182
10123TIP3    H151860   6.063   6.414   1.450  0.8055 -1.2452  1.9569
10123TIP3    H251861   6.008   6.285   1.391 -0.6621  0.3827 -0.4153
10124TIP3   OH251862   5.988   0.771  15.071  0.4723  0.5687 -0.0607
10124TIP3    H151863   5.937   0.691  15.060 -1.0902  1.3108  1.4194
10124TIP3    H251864   6.019   0.767  15.161  0.3307  1.6476  0.0465
10125TIP3   OH251865   4.316   4.027   2.868  0.3833 -0.3972 -0.0898
10125TIP3    H151866   4.377   3.976   2.814 -0.7723  1.2578 -3.1800
10125TIP3    H251867   4.348   4.117   2.860 -1.2380  0.2031 -0.0356
10126TIP3   OH251868   0.084   3.758  14.007 -0.2051 -0.0126  0.2415
10126TIP3    H151869   0.026   3.687  14.034  0.4758 -0.8570 -0.4267
10126TIP3    H251870   0.074   3.764  13.912  1.0053 -0.3960  0.0657
10127TIP3   OH251871   0.872   2.248  15.638 -1.1997  0.1425  0.4083
10127TIP3    H151872   0.858   2.240  15.732  2.1628  1.3405  1.1547
10127TIP3    H251873   0.963   2.221  15.625 -1.2620  0.9599 -2.3681
10128TIP3   OH251874   5.411   0.755   3.066 -0.2408  0.7606 -0.4070
10128TIP3    H151875   5.375   0.822   3.124 -0.2785 -0.3162  0.8705
10128TIP3    H251876   5.335   0.700   3.045 -0.1380  0.8929 -1.1478
10129TIP3   OH251877   2.345   4.770  15.283 -0.3357  0.3538  0.1390
10129TIP3    H151878   2.432   4.761  15.322 -1.4935 -0.6827  2.7138
10129TIP3    H251879   2.309   4.850  15.322  0.2300  2.1500 -2.7191
10130TIP3   OH251880   3.672   4.549  14.068 -0.2938  0.0197  0.0715
10130TIP3    H151881   3.711   4.468  14.036  2.4924  0.9194  0.8642
10130TIP3    H251882   3.685   4.611  13.996 -1.5077  0.0516 -0.1431
10131TIP3   OH251883   0.840   5.162   4.214 -0.2592 -0.0322 -0.1158
10131TIP3    H151884   0.802   5.118   4.291 -3.8011 -0.0084 -1.6795
10131TIP3    H251885   0.769   5.217   4.180  1.6996  1.2012 -2.5145
10132TIP3   OH251886   3.842   5.155  11.135  0.1439 -1.2518  0.3277
10132TIP3    H151887   3.867   5.115  11.052 -1.6295 -1.6916 -0.0400
10132TIP3    H251888   3.922   5.155  11.187  1.0018 -2.0862 -0.9362
10133TIP3   OH251889   1.786   1.593  12.478 -0.0542 -0.3907 -0.1669
10133TIP3    H151890   1.865   1.634  12.513  0.1029 -2.0480  1.5736
10133TIP3    H251891   1.717   1.660  12.488  0.4780 -0.0356  1.2284
10134TIP3   OH251892   3.775   3.726   5.227  0.1808 -0.2285  0.2399
10134TIP3    H151893   3.782   3.734   5.132  0.4448  1.7299  0.3894
10134TIP3    H251894   3.852   3.674   5.253 -0.4397 -1.6616 -0.6799
10135TIP3   OH251895   2.518   4.685  11.718 -0.1238  0.3266 -0.0105
10135TIP3    H151896   2.538   4.673  11.811 -0.3529 -0.0051 -0.0017
10135TIP3    H251897   2.517   4.597  11.682  1.2853  0.5229 -0.6192
10136TIP3   OH251898   2.988   5.909   4.399 -0.4599  0.4304 -0.1500
10136TIP3    H151899   3.051   5.924   4.469  1.1043  2.9445 -1.9321
10136TIP3    H251900   2.910   5.958   4.426 -0.0853  0.8853  0.1272
10137TIP3   OH251901   1.229   0.218  14.111  0.2707  0.3046 -0.7815
10137TIP3    H151902   1.137   0.246  14.113  0.3813  0.6425  0.3173
10137TIP3    H251903   1.271   0.276  14.049 -0.3302 -0.1042 -1.5955
10138TIP3   OH251904   5.329   4.605   5.486  0.2380  0.6204  0.0886
10138TIP3    H151905   5.383   4.587   5.563 -1.3053 -2.7492  0.5933
10138TIP3    H251906   5.342   4.529   5.430 -2.0565  0.8657 -0.8867
10139TIP3   OH251907   2.406   3.831  13.355 -0.5746 -0.2308 -0.3642
10139TIP3    H151908   2.347   3.789  13.418 -0.6675 -0.1434 -0.3927
10139TIP3    H251909   2.442   3.759  13.304 -0.9336 -0.2574 -0.5868
10140TIP3   OH251910   1.068   3.455  16.722  0.1712  0.2612 -0.4732
10140TIP3    H151911   1.130   3.505  16.669 -1.0097  2.5606  0.1660
10140TIP3    H251912   1.117   3.430  16.800  0.7123  0.6545 -0.6821
10141TIP3   OH251913   3.172   0.075  15.237 -0.0776 -0.7609 -0.3348
10141TIP3    H151914   3.245   0.087  15.177 -0.3405  1.7312 -0.2394
10141TIP3    H251915   3.105   0.031  15.184  0.3239 -0.1609 -1.3776
10142TIP3   OH251916   5.505   2.785  13.600  0.3119 -0.9486  0.2543
10142TIP3    H151917   5.534   2.875  13.619 -0.4336 -0.8999  1.2098
10142TIP3    H251918   5.466   2.791  13.513  0.3677 -0.3610  0.2655
10143TIP3   OH251919   3.095   3.299   4.197  0.1670  0.2845 -0.0269
10143TIP3    H151920   3.149   3.270   4.124 -0.3370 -0.5851 -0.0759
10143TIP3    H251921   3.157   3.313   4.269  0.4035 -1.4358  0.1418
10144TIP3   OH251922   5.902   2.210   6.564 -0.1896 -0.5566  0.4871
10144TIP3    H151923   5.821   2.168   6.594 -0.8493  0.3098 -0.0317
10144TIP3    H251924   5.878   2.251   6.481  0.6543  0.1543  0.5803
10145TIP3   OH251925   4.154   2.416  16.257  0.8508  0.1846  0.2435
10145TIP3    H151926   4.183   2.404  16.347  0.0076 -2.6177  0.2345
10145TIP3    H251927   4.058   2.421  16.263  0.8166  0.5193 -0.4582
10146TIP3   OH251928   5.997   0.226  14.658  0.9947  0.0143  0.2241
10146TIP3    H151929   6.081   0.262  14.687  1.2762 -0.5555  0.1307
10146TIP3    H251930   5.978   0.155  14.720  0.4085  0.3595  0.4538
10147TIP3   OH251931   4.630   1.239   2.441  0.3098 -0.1961  0.2694
10147TIP3    H151932   4.683   1.183   2.384  0.8674 -0.1879  0.7697
10147TIP3    H251933   4.694   1.286   2.494 -0.0846  1.7630 -0.8829
10148TIP3   OH251934   0.767   3.164   5.900  0.3174  0.1058 -0.4387
10148TIP3    H151935   0.790   3.229   5.967  0.0181  0.5440 -0.7556
10148TIP3    H251936   0.679   3.134   5.924  1.0120 -1.2754  0.5432
10149TIP3   OH251937   3.115   4.135   2.551 -0.0216 -0.1375  0.0406
10149TIP3    H151938   3.027   4.108   2.577 -0.4645 -0.1245 -1.4041
10149TIP3    H251939   3.162   4.054   2.533  0.7340 -0.2331  2.1321
10150TIP3   OH251940   2.976   0.448   5.260  0.3258 -0.2312  0.3942
10150TIP3    H151941   2.992   0.514   5.192 -0.5413 -0.7197 -0.3090
10150TIP3    H251942   2.927   0.379   5.216  1.7244 -1.6519  0.9777
10151TIP3   OH251943   2.269   1.589  16.096  0.0601 -0.1079 -0.2994
10151TIP3    H151944   2.252   1.517  16.035  0.7412  0.5621 -1.2861
10151TIP3    H251945   2.316   1.547  16.169 -3.3451 -1.5350  1.3289
10152TIP3   OH251946   5.906   6.716  16.287 -0.0047  0.4602  0.7453
10152TIP3    H151947   5.825   6.766  16.295  0.5130  1.6075 -0.7413
10152TIP3    H251948   5.959   6.745  16.360  0.1021  1.7995  0.1761
10153TIP3   OH251949   2.068   3.453  16.933 -0.3089  0.5955  0.5477
10153TIP3    H151950   1.991   3.397  16.923  0.6283 -0.4463 -1.3556
10153TIP3    H251951   2.139   3.393  16.954  0.9218  0.8215 -2.4764
10154TIP3   OH251952   3.713   5.172   0.398  0.1298 -0.4200  0.3717
10154TIP3    H151953   3.806   5.152   0.385 -0.0986 -0.0693 -2.3537
10154TIP3    H251954   3.685   5.111   0.466  1.8925 -1.9835 -0.2113
10155TIP3   OH251955   1.585   4.067  15.942  0.4316 -0.1185 -0.2395
10155TIP3    H151956   1.672   4.033  15.964  1.0195  1.4833  0.0706
10155TIP3    H251957   1.532   3.989  15.925  2.3563 -1.0901 -2.1658
10156TIP3   OH251958   3.761   1.057  13.732  0.6373  0.0150 -0.2602
10156TIP3    H151959   3.775   1.132  13.674  3.1002  0.7516  1.1614
10156TIP3    H251960   3.829   0.994  13.708  2.4559  0.7911  2.3920
10157TIP3   OH251961   2.224   0.080   3.803  0.5556 -0.2406  0.1062
10157TIP3    H151962   2.301   0.062   3.858 -1.0935 -3.6248  1.6527
10157TIP3    H251963   2.226   0.010   3.737 -0.5033  0.4228 -0.6427
10158TIP3   OH251964   4.527   5.837   4.727 -0.0838 -0.1953 -0.3894
10158TIP3    H151965   4.525   5.788   4.809  0.0764 -0.4541 -0.5393
10158TIP3    H251966   4.618   5.836   4.700 -0.0238  0.4733 -0.2261
10159TIP3   OH251967   1.970   2.303  15.174  0.2157 -0.1406  0.1601
10159TIP3    H151968   2.053   2.350  15.181 -0.8671  1.7557  1.0326
10159TIP3    H251969   1.960   2.260  15.259  0.4923 -0.7544 -0.1078
10160TIP3   OH251970   1.827   4.647   4.756 -0.4584 -0.3831 -0.3919
10160TIP3    H151971   1.814   4.557   4.728  0.2152  0.1634 -2.6197
10160TIP3    H251972   1.862   4.692   4.679  1.6094  1.2324  1.3608
10161TIP3   OH251973   1.144   4.033   5.253 -0.0631 -0.5107  0.0073
10161TIP3    H151974   1.145   3.945   5.290 -2.7583 -0.7877 -0.3735
10161TIP3    H251975   1.142   4.091   5.330  0.3176 -0.8106  0.2507
10162TIP3   OH251976   5.206   2.170   2.104 -0.5733  0.0227 -0.5226
10162TIP3    H151977   5.131   2.220   2.072 -0.3312  0.5012 -0.3585
10162TIP3    H251978   5.179   2.140   2.191 -0.1553  1.1699  0.0214
10163TIP3   OH251979   2.720   3.152  11.258 -0.2540  0.1456 -0.0900
10163TIP3    H151980   2.764   3.137  11.341  1.2106 -0.0885 -0.8636
10163TIP3    H251981   2.710   3.064  11.220 -0.8885  0.2493 -0.1805
10164TIP3   OH251982   1.784   3.293  13.863 -0.0117 -0.2820  0.1044
10164TIP3    H151983   1.851   3.324  13.802  0.2693 -0.1140  0.4946
10164TIP3    H251984   1.741   3.373  13.895 -0.0182 -0.3566  0.2846
10165TIP3   OH251985   1.615   4.895  16.147 -0.0413  0.3006  0.1640
10165TIP3    H151986   1.567   4.908  16.229 -0.4614  2.5988 -0.3942
10165TIP3    H251987   1.549   4.902  16.079  0.5675  0.0117 -0.4631
10166TIP3   OH251988   4.887   2.645   0.756  0.3955  0.1175 -0.0965
10166TIP3    H151989   4.831   2.670   0.830 -1.0733 -2.0883 -0.3382
10166TIP3    H251990   4.967   2.695   0.767 -0.2482  0.7205  2.3304
10167TIP3   OH251991   4.244   3.797  12.261 -0.4873 -0.2808 -0.6719
10167TIP3    H151992   4.160   3.828  12.229 -0.7265  0.0320  0.2189
10167TIP3    H251993   4.234   3.702  12.268 -0.5862 -0.2986 -1.0742
10168TIP3   OH251994   5.496   3.594   0.370 -0.1598  0.1473  0.6711
10168TIP3    H151995   5.551   3.520   0.394 -0.0608 -0.3755 -1.0482
10168TIP3    H251996   5.420   3.555   0.326  0.0297  1.0412 -0.5100
10169TIP3   OH251997   4.713   3.204   2.733 -0.5105  0.5573 -0.1586
10169TIP3    H151998   4.648   3.234   2.670 -1.4352  1.7688  1.3007
10169TIP3    H251999   4.666   3.139   2.786  0.0174  0.1446 -0.1830
10170TIP3   OH252000   6.775   4.551   4.327 -0.6815  0.1472  0.0452
10170TIP3    H152001   6.754   4.478   4.269 -0.4050  0.4854 -0.4874
10170TIP3    H252002   6.858   4.527   4.367 -1.5385 -0.7291  1.3876
10171TIP3   OH252003   3.009   1.965  10.461  0.2070 -0.1083  0.5517
10171TIP3    H152004   2.940   1.953  10.396  0.6919  0.8661 -0.1740
10171TIP3    H252005   2.968   2.013  10.532  0.1012  0.3624  0.1765
10172TIP3   OH252006   3.851   4.293   6.356 -0.7730  0.6896  0.3273
10172TIP3    H152007   3.910   4.305   6.431 -0.7331 -0.6246  0.5216
10172TIP3    H252008   3.768   4.265   6.394 -0.6608 -0.2978 -0.1232
10173TIP3   OH252009   3.902   5.378   5.624 -0.3103  0.1437 -0.3085
10173TIP3    H152010   3.847   5.302   5.609  0.4734 -0.3705 -0.5933
10173TIP3    H252011   3.870   5.444   5.562 -1.3203  0.2371  0.2854
10174TIP3   OH252012   0.090   5.655   3.023 -0.4796  0.3687  0.1467
10174TIP3    H152013   0.089   5.638   3.117 -1.0805 -0.8421 -0.0611
10174TIP3    H252014   0.180   5.682   3.005 -0.0557 -0.4869  0.8991
10175TIP3   OH252015   3.423   6.428  15.824 -0.3475  0.0076 -0.1914
10175TIP3    H152016   3.336   6.391  15.836  0.0369 -0.1918  2.9892
10175TIP3    H252017   3.418   6.514  15.867  0.9605  0.0972 -0.1828
10176TIP3   OH252018   1.078   1.134   2.469 -0.0550  0.6199 -0.0798
10176TIP3    H152019   1.171   1.116   2.460 -0.3929 -0.5899 -1.4826
10176TIP3    H252020   1.065   1.145   2.564  1.6673  1.8793  0.0540
10177TIP3   OH252021   3.659   0.941  16.154  0.0711  0.1254  0.3311
10177TIP3    H152022   3.584   0.991  16.121 -0.0551  1.0318  1.8871
10177TIP3    H252023   3.726   1.007  16.173  0.4184 -0.4323  1.1158
10178TIP3   OH252024   0.264   0.141  11.946 -0.8061 -1.0047  0.3579
10178TIP3    H152025   0.220   0.112  11.866 -0.6170 -0.2632 -0.0224
10178TIP3    H252026   0.288   0.231  11.928 -0.5192 -0.9201  1.1573
10179TIP3   OH252027   4.184   1.102  17.148 -0.1538 -0.3992  0.5112
10179TIP3    H152028   4.209   1.185  17.107 -0.3745 -0.7108 -0.2829
10179TIP3    H252029   4.240   1.094  17.225 -1.2250  1.2695  1.5373
10180TIP3   OH252030   5.133   5.950  16.970  0.2316 -0.2223 -0.1369
10180TIP3    H152031   5.196   6.021  16.961  0.3906 -0.0446  1.7743
10180TIP3    H252032   5.147   5.895  16.893  2.0194  0.3631 -0.2895
10181TIP3   OH252033   1.448   2.132  16.943  0.2197 -0.1633 -0.1707
10181TIP3    H152034   1.354   2.129  16.961  0.4626 -1.3303  1.0864
10181TIP3    H252035   1.458   2.202  16.879 -1.6691 -0.9273 -1.3800
10182TIP3   OH252036   4.582   4.593   0.294  0.0264  0.1135 -0.3215
10182TIP3    H152037   4.530   4.651   0.238  0.4494 -1.4794 -2.4928
10182TIP3    H252038   4.671   4.598   0.258  1.1169  1.5140  2.2937
10183TIP3   OH252039   0.580   3.567  17.154 -0.3236 -0.4342 -0.1696
10183TIP3    H152040   0.525   3.590  17.229 -0.2110 -0.7706  0.0156
10183TIP3    H252041   0.520   3.521  17.094 -0.2989 -0.5873 -0.0759
10184TIP3   OH252042   2.009   2.092   2.576 -0.0832 -0.0403  0.3086
10184TIP3    H152043   2.072   2.122   2.511 -1.0747  0.8308 -0.2839
10184TIP3    H252044   2.061   2.076   2.655  0.5100  3.8875  0.9056
10185TIP3   OH252045   1.825   6.596  14.249  0.1595  0.0240 -0.1571
10185TIP3    H152046   1.802   6.616  14.339  0.4266 -0.4975  0.0308
10185TIP3    H252047   1.904   6.541  14.256  1.4027  1.6363 -0.7559
10186TIP3   OH252048   5.359   5.776  11.752  0.3293 -0.6312  0.0478
10186TIP3    H152049   5.291   5.735  11.805 -0.0587 -0.9081 -0.6585
10186TIP3    H252050   5.342   5.870  11.759  2.0500 -0.4117  2.8092
10187TIP3   OH252051   5.884   3.738   2.533 -0.2510 -0.3056  0.0440
10187TIP3    H152052   5.917   3.744   2.623 -0.1269 -0.9212  0.0389
10187TIP3    H252053   5.943   3.678   2.489  0.1508  0.5782 -0.6679
10188TIP3   OH252054   2.502   3.257  12.249 -0.1478 -0.1046  0.5071
10188TIP3    H152055   2.533   3.347  12.251 -0.0763 -0.1066 -0.4591
10188TIP3    H252056   2.527   3.224  12.163 -3.8594  0.2598 -0.8852
10189TIP3   OH252057   6.294   2.019   1.457 -0.0149 -0.0135 -0.0430
10189TIP3    H152058   6.224   2.037   1.394  0.2487 -0.9005 -0.6039
10189TIP3    H252059   6.250   2.019   1.542 -0.3110  1.5625 -0.1622
10190TIP3   OH252060   0.778   1.380  13.553 -0.6712  0.7403  0.6058
10190TIP3    H152061   0.776   1.362  13.647 -0.5757 -1.0129  0.3142
10190TIP3    H252062   0.687   1.400  13.531 -0.9432 -0.1756  0.8552
10191TIP3   OH252063   1.390   1.506   4.969  0.6417  0.3159  0.0240
10191TIP3    H152064   1.386   1.444   5.041  0.9299 -1.2044 -1.2146
10191TIP3    H252065   1.454   1.469   4.908  2.5042  2.9219  0.1859
10192TIP3   OH252066   6.180   5.234   3.775  0.5394 -0.0009  0.1310
10192TIP3    H152067   6.159   5.241   3.682  0.3256  0.9716  0.2435
10192TIP3    H252068   6.201   5.324   3.801  1.8696 -0.4636  0.7271
10193TIP3   OH252069   5.387   2.270  11.981  0.6190 -0.1092  0.5154
10193TIP3    H152070   5.322   2.204  12.006 -1.3776  1.9115  1.0088
10193TIP3    H252071   5.382   2.274  11.886 -1.5839  1.4304  0.6218
10194TIP3   OH252072   4.927   5.369   0.655  0.2100  0.1123 -0.2673
10194TIP3    H152073   4.913   5.464   0.648  2.8056  0.6424  0.7003
10194TIP3    H252074   5.005   5.360   0.709 -0.5451 -2.6525  0.5114
10195TIP3   OH252075   5.542   3.619  15.529  0.7360 -0.6062 -0.0947
10195TIP3    H152076   5.462   3.611  15.579  0.4913 -0.5378 -0.4702
10195TIP3    H252077   5.591   3.689  15.572 -0.1904  0.5689 -0.9033
10196TIP3   OH252078   5.288   4.339  13.554 -0.2375  0.5382 -0.0137
10196TIP3    H152079   5.349   4.309  13.488  0.2280  0.7256  0.3269
10196TIP3    H252080   5.303   4.433  13.561  0.0904  0.4416  0.7286
10197TIP3   OH252081   3.320   3.905   1.710  0.3737 -0.3150 -0.0406
10197TIP3    H152082   3.403   3.879   1.751  0.9452  0.9722 -0.3242
10197TIP3    H252083   3.331   3.882   1.618  0.2721 -0.4437 -0.0221
10198TIP3   OH252084   5.726   2.179  16.530 -0.4493 -0.4248 -0.4930
10198TIP3    H152085   5.701   2.228  16.608 -0.5247 -0.7236 -0.3301
10198TIP3    H252086   5.664   2.107  16.525  0.1323 -0.9483 -0.3037
10199TIP3   OH252087   3.077   3.447   5.237 -0.4897  0.2177 -0.2077
10199TIP3    H152088   2.985   3.434   5.213 -0.4231 -0.8592  0.0509
10199TIP3    H252089   3.113   3.501   5.166 -1.5427  1.5149  0.2034
10200TIP3   OH252090   5.566   5.983   0.808  0.0721 -0.2219 -0.3252
10200TIP3    H152091   5.642   6.005   0.861  0.6550  1.0199 -1.6239
10200TIP3    H252092   5.501   6.051   0.828 -0.2935 -0.6519 -0.0331
10201TIP3   OH252093   5.945   0.573   3.245  0.2775 -0.6929  0.5663
10201TIP3    H152094   6.037   0.589   3.266  0.6900  0.9471 -2.0781
10201TIP3    H252095   5.897   0.642   3.290  0.4745 -0.7512  0.8668
10202TIP3   OH252096   5.025   0.453  11.185 -0.1270  0.0740  0.1414
10202TIP3    H152097   4.989   0.364  11.178  1.2493 -0.4962  0.0084
10202TIP3    H252098   5.082   0.462  11.109 -0.3514  1.1352  0.0827
10203TIP3   OH252099   1.887   6.159   1.662  0.2574 -0.1712  0.1146
10203TIP3    H152100   1.818   6.221   1.684  1.6767  1.1932  0.9560
10203TIP3    H252101   1.951   6.211   1.614  0.4318 -1.5477 -1.2252
10204TIP3   OH252102   4.446   1.823   2.212  0.2671 -0.0457  0.0282
10204TIP3    H152103   4.511   1.763   2.248 -1.7124 -0.8129  2.6562
10204TIP3    H252104   4.470   1.908   2.247  0.4593 -0.1533  0.1589
10205TIP3   OH252105   4.506   1.064  11.255  0.0357 -0.2957 -0.3775
10205TIP3    H152106   4.457   1.004  11.200 -1.2736  1.8191 -1.6589
10205TIP3    H252107   4.598   1.042  11.240 -0.2658  0.2444 -3.5202
10206TIP3   OH252108   5.602   3.120   2.129  0.4383  0.4040  0.6122
10206TIP3    H152109   5.609   3.095   2.036  1.4153 -1.2206  1.0688
10206TIP3    H252110   5.686   3.160   2.149  0.3976  0.3393  0.9076
10207TIP3   OH252111   0.306   2.697   5.058  0.2946 -0.3347 -0.0988
10207TIP3    H152112   0.295   2.751   4.980  0.5743  1.2060  0.8875
10207TIP3    H252113   0.218   2.685   5.093  0.3233  0.4888  0.2977
10208TIP3   OH252114   0.800   2.481   0.130  0.5513 -0.2374  0.1310
10208TIP3    H152115   0.797   2.470   0.035  0.6473 -0.1661  0.1200
10208TIP3    H252116   0.715   2.449   0.160 -0.4731  1.9906 -0.2152
10209TIP3   OH252117   5.164   4.372   3.997  0.2961 -0.2727 -0.2399
10209TIP3    H152118   5.169   4.468   3.997 -1.3208 -0.1190 -2.4157
10209TIP3    H252119   5.196   4.347   3.911  0.2213 -1.6715  0.1219
10210TIP3   OH252120   0.074   4.016  14.099  0.0651  0.0307  0.1003
10210TIP3    H152121   0.020   4.047  14.026 -0.3779 -0.0420  0.3932
10210TIP3    H252122   0.091   3.924  14.079 -0.5227 -0.1393  0.3615
10211TIP3   OH252123   3.504   5.626   1.379 -0.4703 -0.1776  0.2972
10211TIP3    H152124   3.442   5.679   1.428  0.1794  1.3986 -0.5077
10211TIP3    H252125   3.495   5.656   1.289  0.8991 -0.4657  0.0449
10212TIP3   OH252126   0.681   4.966  11.099 -0.4416 -0.4930 -0.0649
10212TIP3    H152127   0.746   4.924  11.156 -1.7868 -0.0087  1.8984
10212TIP3    H252128   0.676   4.909  11.022  4.6872  1.0779 -2.0351
10213TIP3   OH252129   1.731   3.396   6.373 -0.3306 -0.2426 -0.1573
10213TIP3    H152130   1.653   3.452   6.368  1.5162  2.6854  0.8301
10213TIP3    H252131   1.794   3.438   6.315  0.5925 -2.5055 -0.8847
10214TIP3   OH252132   3.226   5.936   2.974  0.0652  0.3286 -0.4986
10214TIP3    H152133   3.194   5.873   3.038  0.8456 -0.0699 -0.4927
10214TIP3    H252134   3.320   5.941   2.989  0.3767 -0.2640 -2.0207
10215TIP3   OH252135   6.271   6.599  12.341 -0.9220  0.3216 -0.0342
10215TIP3    H152136   6.308   6.518  12.308 -0.8706  0.6106 -0.6942
10215TIP3    H252137   6.321   6.668  12.298  0.2150  0.7326  1.8196
10216TIP3   OH252138   6.794   6.674  15.412  0.5250  0.0856 -0.4479
10216TIP3    H152139   6.886   6.655  15.391  0.9008 -0.1909  1.2832
10216TIP3    H252140   6.788   6.662  15.506 -1.4478 -0.4754 -0.5933
10217TIP3   OH252141   5.924   1.976   4.101 -0.0141  0.6299 -0.0782
10217TIP3    H152142   5.836   1.940   4.097 -0.4231  1.7212 -1.6510
10217TIP3    H252143   5.965   1.951   4.018  0.7330  1.1565  0.1173
10218TIP3   OH252144   0.999   2.288   1.383 -0.1829 -0.2482 -0.5246
10218TIP3    H152145   0.963   2.263   1.298 -1.8023 -0.9520  0.3116
10218TIP3    H252146   1.093   2.289   1.370 -0.3850 -0.3588 -2.3140
10219TIP3   OH252147   3.484   1.172   6.187 -0.2618 -0.4682  0.2262
10219TIP3    H152148   3.406   1.225   6.200 -0.2139 -0.4211  0.3229
10219TIP3    H252149   3.491   1.161   6.092 -0.0744 -0.0090  0.1830
10220TIP3   OH252150   4.552   5.231  11.806 -0.0532  0.3109 -0.4584
10220TIP3    H152151   4.482   5.296  11.811 -0.8399 -0.4762 -0.8989
10220TIP3    H252152   4.577   5.215  11.897  1.2159  2.3001 -0.3855
10221TIP3   OH252153   5.290   1.644   5.192  1.0048  0.1370 -0.4419
10221TIP3    H152154   5.236   1.656   5.114 -1.8323 -0.8763  1.1848
10221TIP3    H252155   5.237   1.588   5.249  4.0829 -1.4347  1.1389
10222TIP3   OH252156   4.784   4.298  16.305  0.0989  0.1916  0.0025
10222TIP3    H152157   4.733   4.330  16.230  0.3156  1.2584  0.2953
10222TIP3    H252158   4.732   4.225  16.339  0.8419 -1.5111 -2.2253
10223TIP3   OH252159   1.517   0.399   3.507 -0.1643 -0.3623  0.0530
10223TIP3    H152160   1.457   0.349   3.452  0.5004 -0.6964 -0.3729
10223TIP3    H252161   1.576   0.443   3.446 -0.8663  1.1419  0.3991
10224TIP3   OH252162   5.107   4.258  15.241  0.0606  0.0735 -0.2335
10224TIP3    H152163   5.130   4.169  15.270  0.5016  0.1004 -0.4898
10224TIP3    H252164   5.075   4.301  15.320 -0.2880 -0.3562 -0.1357
10225TIP3   OH252165   2.359   6.608  14.120 -0.4763 -0.3448  0.6101
10225TIP3    H152166   2.377   6.665  14.045  1.7498  1.6984  2.4772
10225TIP3    H252167   2.436   6.551  14.126  1.2572  1.9764  3.2372
10226TIP3   OH252168   0.622   2.064   5.504 -0.1998 -0.2448  0.0564
10226TIP3    H152169   0.561   2.085   5.576 -3.3854 -0.5516 -2.3152
10226TIP3    H252170   0.602   1.973   5.482  2.3329 -0.8839  0.1454
10227TIP3   OH252171   1.116   2.818  12.723  0.6808 -0.4071  0.0674
10227TIP3    H152172   1.187   2.859  12.772 -0.3758  0.6112  0.8222
10227TIP3    H252173   1.040   2.875  12.738  0.0377 -0.6482 -1.8925
10228TIP3   OH252174   4.430   3.011  12.237  0.4057  0.4043  0.0111
10228TIP3    H152175   4.354   3.019  12.296 -0.7447 -1.3920 -1.1508
10228TIP3    H252176   4.465   3.100  12.233 -1.0159  1.0896  1.4004
10229TIP3   OH252177   1.542   5.538   0.673  0.6582 -0.2931 -0.0280
10229TIP3    H152178   1.590   5.465   0.712  0.6347 -0.5718 -0.5037
10229TIP3    H252179   1.483   5.497   0.609 -1.1944 -0.0761  1.4587
10230TIP3   OH252180   3.852   4.344   5.564  0.0160  0.1877  0.0046
10230TIP3    H152181   3.793   4.269   5.562  0.7563 -0.4251  0.4745
10230TIP3    H252182   3.936   4.307   5.589  0.1194  1.3384  1.4888
10231TIP3   OH252183   2.610   6.735  15.009 -0.3259  0.0647 -0.2438
10231TIP3    H152184   2.517   6.720  15.025 -0.4225  1.3235  0.5388
10231TIP3    H252185   2.652   6.715  15.093  0.1051 -0.3986 -0.5632
10232TIP3   OH252186   4.570   4.536  12.984  0.3837 -0.5170  0.3476
10232TIP3    H152187   4.653   4.537  12.937  1.7002  3.0211  2.3498
10232TIP3    H252188   4.503   4.544  12.916  2.0126  1.5213 -1.1471
10233TIP3   OH252189   2.842   3.660  12.017 -0.1712 -0.3456  0.1218
10233TIP3    H152190   2.861   3.677  11.924  1.1569  0.6404  0.5538
10233TIP3    H252191   2.835   3.565  12.023 -1.0901 -0.3856 -1.1348
10234TIP3   OH252192   4.219   2.142  14.689 -1.0751 -0.5660  0.1230
10234TIP3    H152193   4.179   2.141  14.776  0.2486  1.7825  0.8460
10234TIP3    H252194   4.273   2.221  14.688  0.0165 -1.2340 -2.3739
10235TIP3   OH252195   3.640   4.740   4.821 -1.0881  0.0325  0.0752
10235TIP3    H152196   3.572   4.682   4.787 -1.4572  1.2309 -1.3181
10235TIP3    H252197   3.700   4.752   4.747  0.6103 -0.9078  1.2356
10236TIP3   OH252198   2.801   5.497  15.154 -0.0526  0.1431  0.2270
10236TIP3    H152199   2.724   5.485  15.098  0.4845  1.6526 -0.9131
10236TIP3    H252200   2.800   5.590  15.177  0.5740 -0.1495  1.5158
10237TIP3   OH252201   4.642   2.147  13.043  0.3695 -0.0075 -0.5676
10237TIP3    H152202   4.689   2.203  12.982  0.7547 -1.9700 -2.1702
10237TIP3    H252203   4.596   2.084  12.987 -0.3431 -1.0672  1.1306
10238TIP3   OH252204   3.786   2.442   5.032 -0.0405  0.5679  0.2573
10238TIP3    H152205   3.835   2.370   4.991  0.6258  1.5785 -0.7787
10238TIP3    H252206   3.698   2.407   5.046  0.3332 -0.5122 -0.0230
10239TIP3   OH252207   1.316   2.910  11.960 -0.6044  0.1133 -0.4574
10239TIP3    H152208   1.287   2.890  12.048  2.5985 -1.4911  0.3775
10239TIP3    H252209   1.289   2.835  11.908 -0.2003 -0.1878 -0.2383
10240TIP3   OH252210   4.271   4.211  15.163  0.1985  0.3237 -0.0414
10240TIP3    H152211   4.301   4.272  15.230  0.5881  0.6873 -0.5428
10240TIP3    H252212   4.182   4.187  15.190  0.7854 -0.4983  1.2670
10241TIP3   OH252213   2.891   1.916   1.327 -0.1942  0.1451 -0.0919
10241TIP3    H152214   2.887   2.005   1.361  2.5627 -0.4993  2.1903
10241TIP3    H252215   2.819   1.871   1.371 -2.7358  1.4864 -2.5496
10242TIP3   OH252216   0.637   0.316   5.090  0.1101  0.2887 -0.2323
10242TIP3    H152217   0.631   0.408   5.115 -0.7831 -0.1562  1.2864
10242TIP3    H252218   0.717   0.284   5.132  0.9462  0.5730 -1.5443
10243TIP3   OH252219   5.965   6.025   0.539  0.4634 -0.6249  0.3221
10243TIP3    H152220   5.993   5.936   0.515 -1.0720 -1.2218  0.6008
10243TIP3    H252221   5.925   6.060   0.460 -1.4536 -1.2793  0.9375
10244TIP3   OH252222   1.601   2.278   1.432 -0.0318 -0.0212 -0.1363
10244TIP3    H152223   1.532   2.215   1.456  0.3016  0.0787  1.1562
10244TIP3    H252224   1.682   2.227   1.436  0.2270  0.4342  0.8010
10245TIP3   OH252225   2.058   1.971   3.997  0.0733 -0.0225 -0.1021
10245TIP3    H152226   2.004   2.047   3.974  0.3388  0.4203  0.7230
10245TIP3    H252227   2.079   1.983   4.089 -0.2475 -1.3285  0.1606
10246TIP3   OH252228   1.343   6.139   0.108 -0.3759 -0.3013  0.3569
10246TIP3    H152229   1.409   6.077   0.142  0.2421  0.2558  0.2007
10246TIP3    H252230   1.379   6.225   0.128 -0.3309  0.0384 -1.0894
10247TIP3   OH252231   4.641   5.251   4.444  0.9052  0.2677  0.6583
10247TIP3    H152232   4.586   5.311   4.394  1.4409  1.1036  1.0433
10247TIP3    H252233   4.585   5.176   4.462  0.0462  0.8809  0.6002
10248TIP3   OH252234   6.327   2.105  13.189 -0.4895 -0.2459  0.0386
10248TIP3    H152235   6.328   2.010  13.178  1.7371 -0.1886 -0.7496
10248TIP3    H252236   6.318   2.118  13.284 -2.2707 -1.1747  0.0266
10249TIP3   OH252237   1.668   5.314  14.259 -0.3500 -0.2497 -0.1520
10249TIP3    H152238   1.641   5.345  14.346 -1.8996  0.3146 -0.7971
10249TIP3    H252239   1.612   5.363  14.198  0.1565 -1.2163 -1.4318
10250TIP3   OH252240   2.563   4.215   0.232  0.2986 -0.4801  0.1125
10250TIP3    H152241   2.565   4.211   0.136  0.0764  1.1052  0.0138
10250TIP3    H252242   2.581   4.126   0.260 -0.8146 -1.2282 -1.4143
10251TIP3   OH252243   6.317   6.367  14.716  0.1377  0.2252  0.3452
10251TIP3    H152244   6.258   6.306  14.671 -0.8099  1.7343 -0.5067
10251TIP3    H252245   6.271   6.390  14.797  1.2088 -1.3635  1.4833
10252TIP3   OH252246   4.865   4.882   2.072 -0.0443  0.1467 -0.4224
10252TIP3    H152247   4.908   4.803   2.103 -0.8241 -0.0650  0.1703
10252TIP3    H252248   4.773   4.857   2.063 -0.5728  1.3402  1.1480
10253TIP3   OH252249   4.509   6.418  13.995  0.4687  0.3268 -0.5980
10253TIP3    H152250   4.449   6.369  14.051  1.5808 -1.0455 -0.5429
10253TIP3    H252251   4.476   6.404  13.906 -0.5674  1.4589 -0.4159
10254TIP3   OH252252   3.754   0.903  14.137  0.3446  0.4172 -0.2073
10254TIP3    H152253   3.680   0.940  14.089 -0.8739  1.4318  2.2623
10254TIP3    H252254   3.827   0.961  14.116 -0.2926  1.1484 -0.4490
10255TIP3   OH252255   2.324   0.691  13.230 -0.7933 -0.4582 -0.6296
10255TIP3    H152256   2.336   0.679  13.135 -1.1919 -0.8660 -0.6280
10255TIP3    H252257   2.299   0.604  13.262  0.8217 -0.6924  0.0853
10256TIP3   OH252258   3.476   0.166  11.131  0.0664  0.5680 -0.1132
10256TIP3    H152259   3.402   0.130  11.082 -0.7122 -0.8568  1.9221
10256TIP3    H252260   3.553   0.120  11.097 -0.3550  0.1056 -0.4493
10257TIP3   OH252261   3.826   1.285   5.829 -0.2756 -0.1153 -1.1662
10257TIP3    H152262   3.758   1.323   5.885  2.5071  0.2803  2.3328
10257TIP3    H252263   3.828   1.193   5.852  0.5089 -0.0795 -1.0758
10258TIP3   OH252264   5.377   5.126  12.485 -0.0002  0.1057  0.4067
10258TIP3    H152265   5.414   5.049  12.528  0.4711  0.1895  0.1675
10258TIP3    H252266   5.450   5.188  12.482 -0.2755  0.4275  0.2767
10259TIP3   OH252267   1.557   3.745   2.531 -0.2338  0.3401 -0.4205
10259TIP3    H152268   1.634   3.722   2.584 -0.7334 -1.4250 -0.4038
10259TIP3    H252269   1.509   3.808   2.585 -0.0372 -0.3959  0.6582
10260TIP3   OH252270   2.334   5.322  14.543  0.1155  0.1666 -0.6327
10260TIP3    H152271   2.297   5.291  14.625  0.2913  0.7873 -0.3108
10260TIP3    H252272   2.258   5.347  14.490  0.0448  2.0051  0.2485
10261TIP3   OH252273   4.826   5.137  17.201  0.5195 -0.0902 -0.2794
10261TIP3    H152274   4.845   5.197  17.129 -1.3784 -1.6722 -2.2364
10261TIP3    H252275   4.885   5.064  17.187  1.1010  0.1910  0.6301
10262TIP3   OH252276   6.178   0.698   0.730 -0.0751  0.0309  0.2503
10262TIP3    H152277   6.218   0.751   0.799 -0.3339 -0.8644  1.1150
10262TIP3    H252278   6.150   0.761   0.664  2.2930  0.7417 -0.1632
10263TIP3   OH252279   3.789   0.918  13.279 -0.6558  0.1709 -0.1301
10263TIP3    H152280   3.864   0.865  13.307 -0.6699 -0.2492 -0.8412
10263TIP3    H252281   3.813   0.949  13.191 -2.1433 -1.7207 -1.2919
10264TIP3   OH252282   3.546   0.660  12.111  0.5816 -0.2888  0.1869
10264TIP3    H152283   3.519   0.666  12.203 -2.8310  1.5805 -0.7899
10264TIP3    H252284   3.546   0.750  12.080  1.1893 -0.9331 -1.8065
10265TIP3   OH252285   2.495   2.400   4.742  0.4732  0.6116  0.4310
10265TIP3    H152286   2.482   2.454   4.664  0.2602  0.9248  0.6815
10265TIP3    H252287   2.427   2.333   4.736  0.6195  0.4779  0.2181
10266TIP3   OH252288   6.496   6.698   5.359 -0.2842  0.5221 -0.4494
10266TIP3    H152289   6.471   6.667   5.446 -0.8781  0.7567 -0.5311
10266TIP3    H252290   6.435   6.654   5.299 -1.5096  2.2037 -0.5240
10267TIP3   OH252291   1.577   4.166  14.853 -0.6500  0.0125 -0.2188
10267TIP3    H152292   1.516   4.205  14.791 -0.2744 -0.6047 -1.0027
10267TIP3    H252293   1.662   4.201  14.830 -0.5868  0.2527  0.3529
10268TIP3   OH252294   3.757   5.276  13.026 -0.0260  0.7677 -0.6429
10268TIP3    H152295   3.844   5.239  13.040 -0.3614 -0.0396 -0.6409
10268TIP3    H252296   3.744   5.272  12.931  0.8023  2.9149 -0.8977
10269TIP3   OH252297   5.872   1.859  13.619  0.6176  0.3948 -0.1929
10269TIP3    H152298   5.843   1.768  13.608 -0.7987  0.8256 -0.2976
10269TIP3    H252299   5.846   1.902  13.538 -3.5242  2.0220  1.6871
10270TIP3   OH252300   5.906   4.704   2.106  0.2231  0.1145 -0.4072
10270TIP3    H152301   5.980   4.664   2.061 -0.6242  0.3434 -2.0940
10270TIP3    H252302   5.934   4.710   2.198  1.5027 -1.5766 -0.6365
10271TIP3   OH252303   6.340   0.232   1.602  0.0466 -0.6261 -0.2426
10271TIP3    H152304   6.430   0.221   1.573  0.5948  2.3924  0.0064
10271TIP3    H252305   6.348   0.260   1.694 -1.2483 -1.7736  0.2583
10272TIP3   OH252306   1.780   2.359  10.698 -0.2574  0.0527  0.0956
10272TIP3    H152307   1.720   2.287  10.718 -0.4758  0.6835  1.9321
10272TIP3    H252308   1.867   2.321  10.707 -0.3516 -0.5350 -1.2598
10273TIP3   OH252309   0.467   1.384   0.400  0.2626  0.1147 -0.0473
10273TIP3    H152310   0.502   1.471   0.382 -0.2705  0.5191  0.7969
10273TIP3    H252311   0.543   1.332   0.426  0.5383  0.4109 -0.2545
10274TIP3   OH252312   5.449   4.532   3.781  0.3880  0.1949 -0.2636
10274TIP3    H152313   5.483   4.523   3.692  1.5899 -3.3900  0.4023
10274TIP3    H252314   5.408   4.448   3.800  1.7011  0.1476  3.1426
10275TIP3   OH252315   5.561   1.605  15.896  0.3412 -0.8068 -0.1074
10275TIP3    H152316   5.562   1.553  15.976 -0.5062 -0.4152  0.1727
10275TIP3    H252317   5.580   1.694  15.925  0.1315 -0.6810 -0.3463
10276TIP3   OH252318   2.809   2.540   5.365  0.3923  0.0996 -0.0559
10276TIP3    H152319   2.757   2.613   5.398  0.8231  0.5698 -0.4005
10276TIP3    H252320   2.876   2.526   5.432 -1.3395 -1.8414  1.4003
10277TIP3   OH252321   5.008   6.702   5.033  0.0720  0.0859  0.1779
10277TIP3    H152322   5.099   6.674   5.024  0.8451  0.9234  3.6697
10277TIP3    H252323   5.007   6.789   4.993  0.5643 -0.2486 -0.6063
10278TIP3   OH252324   6.553   2.710  13.411 -0.3661 -0.0231 -0.2025
10278TIP3    H152325   6.554   2.720  13.506 -0.8819  0.2331 -0.2180
10278TIP3    H252326   6.643   2.729  13.384  0.5242 -2.8419  0.4652
10279TIP3   OH252327   5.197   1.880  14.555  0.3769 -0.4393 -0.2469
10279TIP3    H152328   5.149   1.891  14.637  0.3482 -1.1941 -0.1609
10279TIP3    H252329   5.182   1.962  14.508 -0.3249 -0.3455  0.1246
10280TIP3   OH252330   3.154   1.263   0.670 -0.1794 -0.2536 -0.0149
10280TIP3    H152331   3.215   1.327   0.633 -0.9142  0.6304  0.2796
10280TIP3    H252332   3.203   1.222   0.741  0.2500  0.0811 -0.1130
10281TIP3   OH252333   6.580   3.320   5.673 -0.3316  0.2901 -0.1808
10281TIP3    H152334   6.487   3.311   5.697 -0.4131  2.4809  0.5456
10281TIP3    H252335   6.623   3.348   5.754  0.1547  3.5602 -1.4075
10282TIP3   OH252336   6.589   3.966  13.152 -0.0430  0.2916 -0.3058
10282TIP3    H152337   6.623   3.885  13.115 -1.9135 -0.6172 -0.1013
10282TIP3    H252338   6.598   4.030  13.082 -2.6200 -1.1597 -2.0956
10283TIP3   OH252339   4.527   4.682  13.543  0.2310 -0.0354 -0.5086
10283TIP3    H152340   4.572   4.749  13.493 -1.4336  0.8736 -0.8561
10283TIP3    H252341   4.490   4.624  13.477 -0.7822  0.3669 -0.3090
10284TIP3   OH252342   0.241   4.442  13.795  0.1109 -0.2165  0.3214
10284TIP3    H152343   0.166   4.446  13.736 -0.1772 -0.3219  0.6749
10284TIP3    H252344   0.300   4.511  13.765 -0.1820 -0.0571  0.1110
10285TIP3   OH252345   3.889   2.636  11.197  0.2036  0.1605  0.1891
10285TIP3    H152346   3.935   2.613  11.278  2.0074 -0.4706 -0.9245
10285TIP3    H252347   3.931   2.717  11.168 -1.7540  1.4696  0.8139
10286TIP3   OH252348   2.941   0.429  16.858  0.3850 -0.4189 -0.5583
10286TIP3    H152349   3.002   0.438  16.931 -0.7675 -1.1680  0.5297
10286TIP3    H252350   2.996   0.439  16.780  1.8709 -0.8772  0.3806
10287TIP3   OH252351   5.940   4.083   2.870  0.1955 -0.1063 -0.1456
10287TIP3    H152352   5.924   4.087   2.964  0.3464 -0.7268 -0.0907
10287TIP3    H252353   5.853   4.073   2.831  0.3250 -3.8205  0.1724
10288TIP3   OH252354   4.605   6.136  14.370  0.1789  0.9457  0.2054
10288TIP3    H152355   4.648   6.160  14.288  0.7394  0.0277  0.2155
10288TIP3    H252356   4.676   6.117  14.430 -0.2295 -0.2002  0.3465
10289TIP3   OH252357   4.648   1.155  14.960 -0.4838  0.4583  0.0850
10289TIP3    H152358   4.743   1.138  14.958 -0.7277 -1.1629  0.3678
10289TIP3    H252359   4.616   1.121  14.877 -0.7990  1.2315 -0.1154
10290TIP3   OH252360   4.377   1.294  10.975  0.6231  0.4921 -0.3961
10290TIP3    H152361   4.334   1.300  11.060  0.3232  0.8228 -0.5668
10290TIP3    H252362   4.309   1.319  10.912  0.7707  0.0323 -0.7529
10291TIP3   OH252363   5.317   1.274  16.755 -0.1917  0.1411 -0.0658
10291TIP3    H152364   5.301   1.326  16.833 -1.2982  0.5077 -0.5120
10291TIP3    H252365   5.300   1.184  16.782  0.5977  0.1190  0.4044
10292TIP3   OH252366   1.724   1.361   5.589 -0.2164 -0.0431 -0.2378
10292TIP3    H152367   1.708   1.419   5.663  0.7620 -1.9186  1.5590
10292TIP3    H252368   1.816   1.375   5.566  0.6805 -2.2424  1.6155
10293TIP3   OH252369   2.503   6.227   4.073 -0.5505  0.2333  0.2230
10293TIP3    H152370   2.527   6.297   4.012  0.0886  0.3152  0.5582
10293TIP3    H252371   2.410   6.214   4.059 -0.2182 -0.5394 -1.6126
10294TIP3   OH252372   1.842   4.506   2.989 -0.2681  0.0938  0.4807
10294TIP3    H152373   1.823   4.533   2.899 -0.5278  0.3647  0.6167
10294TIP3    H252374   1.835   4.410   2.987  0.2514  0.0582  0.0929
10295TIP3   OH252375   1.668   2.338  14.536 -0.0274 -0.2281  0.2787
10295TIP3    H152376   1.707   2.305  14.617  0.3959 -0.3417  0.0338
10295TIP3    H252377   1.574   2.342  14.554  0.1793  1.0555  1.2568
10296TIP3   OH252378   3.470   1.781   5.699 -0.2843  0.3875 -0.5567
10296TIP3    H152379   3.412   1.743   5.765 -1.3621  0.4500 -1.4337
10296TIP3    H252380   3.431   1.866   5.679  1.1484  1.2543  0.1490
10297TIP3   OH252381   5.543   3.053  16.725 -0.0280 -0.2445 -0.5072
10297TIP3    H152382   5.503   3.130  16.685 -1.4249 -0.2116  0.8413
10297TIP3    H252383   5.468   3.002  16.757  0.9508 -0.0917  2.3002
10298TIP3   OH252384   1.058   0.188  12.771  0.0198  0.0744  0.4293
10298TIP3    H152385   1.051   0.103  12.814 -0.9247  0.9448  2.1394
10298TIP3    H252386   1.088   0.247  12.840  0.1503  1.2268 -0.5766
10299TIP3   OH252387   0.690   2.813  13.140 -0.1859  0.4420 -0.4765
10299TIP3    H152388   0.748   2.743  13.110  0.4502 -0.5110  2.6299
10299TIP3    H252389   0.606   2.769  13.155  0.7578 -0.3298  3.5078
10300TIP3   OH252390   4.190   4.437  11.565  0.2842 -0.0975  0.2424
10300TIP3    H152391   4.119   4.377  11.584  0.9041 -0.5673  1.1494
10300TIP3    H252392   4.150   4.505  11.511 -0.3826 -1.4454 -1.0552
10301TIP3   OH252393   2.975   3.290  16.135  0.8930 -0.2474 -0.4596
10301TIP3    H152394   3.068   3.308  16.117  1.0814 -1.7949 -1.1957
10301TIP3    H252395   2.973   3.265  16.227  1.2447 -0.4208 -0.4949
10302TIP3   OH252396   3.223   5.480   2.719  0.5864  0.1859  0.4914
10302TIP3    H152397   3.273   5.547   2.674  2.1438 -0.3420  1.3579
10302TIP3    H252398   3.213   5.410   2.654  3.3604 -0.8414  1.0491
10303TIP3   OH252399   6.059   0.775   5.612 -0.6054 -0.6936 -0.5805
10303TIP3    H152400   6.077   0.762   5.705 -1.1020 -0.9252 -0.5130
10303TIP3    H252401   6.043   0.686   5.579 -0.5000 -0.6036 -0.8715
10304TIP3   OH252402   1.224   4.662   0.522  0.1581 -0.2605  0.4506
10304TIP3    H152403   1.283   4.654   0.447 -0.9727  1.1834 -0.6461
10304TIP3    H252404   1.177   4.578   0.525 -1.6213  0.5112 -2.1382
10305TIP3   OH252405   5.302   4.775  13.263 -0.2117  0.0564 -0.1337
10305TIP3    H152406   5.234   4.710  13.242 -0.4677  0.3034 -0.0798
10305TIP3    H252407   5.320   4.819  13.180  2.0350 -1.9908 -0.8379
10306TIP3   OH252408   1.482   1.376  10.984  0.3779 -0.4064  0.2575
10306TIP3    H152409   1.556   1.436  10.985  0.6061 -0.5902 -1.4647
10306TIP3    H252410   1.515   1.297  11.028  1.1440 -0.3854 -0.2436
10307TIP3   OH252411   2.052   5.059   3.199  0.4780  0.1766 -0.3566
10307TIP3    H152412   2.101   4.978   3.191  0.9253  0.4312 -0.2025
10307TIP3    H252413   2.023   5.079   3.109 -1.1983 -1.1065 -0.1490
10308TIP3   OH252414   3.540   2.101  10.625  0.3513  0.3758  0.2098
10308TIP3    H152415   3.633   2.106  10.649  0.1787 -2.0698  1.8095
10308TIP3    H252416   3.538   2.039  10.551 -0.1171 -1.4200  1.6487
10309TIP3   OH252417   1.849   3.965   2.163  0.3187 -0.2151 -0.1196
10309TIP3    H152418   1.933   3.941   2.203 -0.1899 -0.8348  0.6078
10309TIP3    H252419   1.847   3.917   2.080  1.0286  0.4445 -0.5326
10310TIP3   OH252420   1.019   3.360  15.194  0.1513  0.3388 -0.6798
10310TIP3    H152421   1.036   3.366  15.288  0.5903  0.7316 -0.7829
10310TIP3    H252422   1.099   3.392  15.152  0.0858 -0.1362 -1.1921
10311TIP3   OH252423   3.056   1.129  14.237  0.4218 -0.0682  0.2109
10311TIP3    H152424   3.088   1.086  14.316  0.2265  0.5146  0.6149
10311TIP3    H252425   2.975   1.084  14.216 -0.8610  1.3741  1.7950
10312TIP3   OH252426   1.030   4.570   1.764 -0.2034  0.0197 -0.4761
10312TIP3    H152427   0.972   4.545   1.836 -0.5554 -0.2721 -0.8471
10312TIP3    H252428   1.069   4.652   1.791  0.9374 -0.8844  0.7669
10313TIP3   OH252429   3.581   2.857   1.923 -0.3777 -0.1237 -0.3207
10313TIP3    H152430   3.496   2.821   1.898 -0.1422 -0.9023 -0.0080
10313TIP3    H252431   3.561   2.914   1.998 -0.7612  0.5093 -0.8869
10314TIP3   OH252432   0.813   0.809   3.022  0.2719 -0.2519 -0.5473
10314TIP3    H152433   0.747   0.843   3.082 -0.6802 -1.5537 -0.7981
10314TIP3    H252434   0.827   0.718   3.051 -1.4531 -1.4987 -3.2279
10315TIP3   OH252435   4.983   4.541   6.284  0.3159  0.1250 -0.3063
10315TIP3    H152436   5.076   4.558   6.274  0.0769  1.1312 -1.0322
10315TIP3    H252437   4.978   4.453   6.321  1.5653  0.3743  0.5285
10316TIP3   OH252438   3.750   2.628   1.653  0.3405 -0.0528 -0.1336
10316TIP3    H152439   3.735   2.671   1.568  0.9241  0.2320 -0.0963
10316TIP3    H252440   3.669   2.579   1.669 -0.8069  1.9131  0.3568
10317TIP3   OH252441   4.578   1.527  11.870 -0.2940 -0.3068  0.0622
10317TIP3    H152442   4.520   1.454  11.849 -0.6159 -0.5284  1.6218
10317TIP3    H252443   4.520   1.597  11.899  0.0008  0.6526 -1.5135
10318TIP3   OH252444   0.279   1.842   2.461 -0.4064 -0.9922  0.2347
10318TIP3    H152445   0.273   1.758   2.414  0.2528  0.2208 -2.1867
10318TIP3    H252446   0.370   1.870   2.448 -1.1017  0.9971 -0.6895
10319TIP3   OH252447   1.541   4.056   5.168  0.1811  0.1010 -0.1928
10319TIP3    H152448   1.578   3.998   5.234  0.1082 -0.0337 -0.2694
10319TIP3    H252449   1.487   4.117   5.217  1.5208  1.1160  0.0548
10320TIP3   OH252450   0.318   6.525   0.728  0.1293  0.4281 -0.4533
10320TIP3    H152451   0.278   6.439   0.717  0.5465 -0.0041  1.0144
10320TIP3    H252452   0.262   6.585   0.680 -0.8152 -0.5108 -0.5626
10321TIP3   OH252453   1.878   6.331   2.551  0.0066 -0.0581  0.2879
10321TIP3    H152454   1.916   6.389   2.485 -0.0182  1.0950  1.2613
10321TIP3    H252455   1.788   6.361   2.562 -0.2041 -0.6903  0.3472
10322TIP3   OH252456   1.139   5.021  12.819  0.7577 -0.3588 -0.4827
10322TIP3    H152457   1.075   4.967  12.773  1.0005 -0.7792 -0.3380
10322TIP3    H252458   1.086   5.082  12.871  0.4832 -0.2204 -0.9219
10323TIP3   OH252459   3.657   4.456   5.744 -0.4657  0.0307  0.5065
10323TIP3    H152460   3.657   4.428   5.836  0.4382 -1.3693  0.1101
10323TIP3    H252461   3.724   4.402   5.703 -0.8271  0.6744 -0.9837
10324TIP3   OH252462   3.482   1.576   3.755 -0.2402  0.4084  0.3629
10324TIP3    H152463   3.425   1.631   3.701 -0.7777 -0.1420  0.3667
10324TIP3    H252464   3.474   1.489   3.718 -0.4419  0.0690  1.1846
10325TIP3   OH252465   0.241   4.733  11.607  0.4302  0.0442 -0.3736
10325TIP3    H152466   0.227   4.745  11.513 -0.6022 -1.3721 -0.4471
10325TIP3    H252467   0.173   4.786  11.649  0.8881  0.6727 -0.4114
10326TIP3   OH252468   2.550   4.653  11.177 -0.0788 -0.0767 -0.3574
10326TIP3    H152469   2.506   4.714  11.118  1.1053  0.9418 -0.2256
10326TIP3    H252470   2.591   4.709  11.243  1.0043 -1.0071 -0.2055
10327TIP3   OH252471   4.156   3.730   6.648  0.7849  0.1792 -0.2037
10327TIP3    H152472   4.147   3.717   6.554  0.4396  2.2065 -0.5140
10327TIP3    H252473   4.070   3.710   6.684  1.0725 -1.1497 -0.2227
10328TIP3   OH252474   5.363   1.853  16.098 -0.0151 -0.1897  0.3402
10328TIP3    H152475   5.317   1.818  16.022  0.7299 -0.5518  0.0461
10328TIP3    H252476   5.441   1.895  16.061  0.7084 -0.9721  0.9602
10329TIP3   OH252477   5.138   4.757   0.125 -0.1040 -0.0666 -0.0911
10329TIP3    H152478   5.159   4.833   0.179  0.1607  0.0423 -0.3419
10329TIP3    H252479   5.209   4.695   0.142 -0.4372 -0.3491  0.2820
10330TIP3   OH252480   1.119   3.329  13.119  0.4521  0.0434  0.1821
10330TIP3    H152481   1.061   3.394  13.080 -1.4124 -1.2596  0.6583
10330TIP3    H252482   1.189   3.381  13.160  0.4709  1.5920 -1.6686
10331TIP3   OH252483   3.802   4.373  14.356  0.0134  0.3249 -0.1860
10331TIP3    H152484   3.742   4.315  14.309 -0.1831 -0.1741  0.6628
10331TIP3    H252485   3.788   4.352  14.448  1.0397  0.6547  0.0535
10332TIP3   OH252486   1.826   6.162  16.753  0.3214 -0.1408 -0.1459
10332TIP3    H152487   1.840   6.233  16.816 -1.8904  1.2491 -1.1015
10332TIP3    H252488   1.843   6.082  16.803  1.9288  0.9876  1.2371
10333TIP3   OH252489   3.897   6.321   0.667  0.2168  0.3797 -0.1573
10333TIP3    H152490   3.945   6.382   0.611  0.7926  0.1993  0.1353
10333TIP3    H252491   3.896   6.238   0.618 -0.3151  0.5372 -0.4251
10334TIP3   OH252492   2.799   0.557  15.604 -0.2844 -0.1456  0.5693
10334TIP3    H152493   2.754   0.523  15.526 -0.7196 -0.9401  1.1481
10334TIP3    H252494   2.868   0.614  15.570 -1.4519  0.7680 -0.3676
10335TIP3   OH252495   6.050   0.599   6.086  0.1683 -0.4458  0.1401
10335TIP3    H152496   5.957   0.616   6.074  0.2777 -0.6416 -1.0828
10335TIP3    H252497   6.070   0.635   6.173 -1.0683 -0.5387  0.4796
10336TIP3   OH252498   2.093   1.926  16.519  0.1352  0.3353  0.0486
10336TIP3    H152499   2.072   1.910  16.427  1.3116 -0.5061 -0.0905
10336TIP3    H252500   2.021   1.980  16.551 -1.0742 -0.6274 -0.9662
10337TIP3   OH252501   3.495   3.445   3.212 -0.0652 -0.3238  0.1420
10337TIP3    H152502   3.572   3.388   3.212  0.2086  0.0239  1.0583
10337TIP3    H252503   3.528   3.529   3.245 -0.8889 -0.2496  0.8037
10338TIP3   OH252504   1.941   6.087  10.541  0.2736 -0.1381 -0.1253
10338TIP3    H152505   1.925   6.181  10.529 -0.6129 -0.2012  0.4324
10338TIP3    H252506   2.037   6.080  10.548  0.4424  0.5470 -1.4780
10339TIP3   OH252507   0.367   6.268  11.267 -0.3553 -0.2610 -0.1027
10339TIP3    H152508   0.369   6.324  11.189  0.1225 -1.2576 -0.8437
10339TIP3    H252509   0.457   6.238  11.277 -0.3403  0.1307  1.0651
10340TIP3   OH252510   1.937   1.695  14.705 -0.2940 -0.2427 -0.5226
10340TIP3    H152511   1.926   1.770  14.645 -1.9320 -0.6110 -0.7389
10340TIP3    H252512   2.019   1.654  14.678 -0.4787  0.2169 -1.8473
10341TIP3   OH252513   0.052   6.160  13.284 -0.0832 -0.2886  0.4524
10341TIP3    H152514  -0.031   6.207  13.293 -1.1134 -1.9939  0.3103
10341TIP3    H252515   0.107   6.218  13.231 -0.4849  1.6868  2.0657
10342TIP3   OH252516   4.174   2.997   6.601 -0.0846  0.4682  0.1425
10342TIP3    H152517   4.188   3.049   6.522 -1.3240  0.7768  0.1071
10342TIP3    H252518   4.156   2.909   6.569 -0.0901  0.4811  0.1099
10343TIP3   OH252519   2.112   5.228   4.798  0.2366 -0.4413  0.5959
10343TIP3    H152520   2.069   5.186   4.872  1.0148  1.1848  2.0371
10343TIP3    H252521   2.184   5.278   4.836  1.7588 -0.9096 -1.4477
10344TIP3   OH252522   4.533   4.580   1.269 -0.5513 -0.4348 -0.2123
10344TIP3    H152523   4.533   4.648   1.336  0.9623  0.0501 -0.6625
10344TIP3    H252524   4.554   4.627   1.188 -1.9213 -1.0726 -0.9828
10345TIP3   OH252525   5.871   4.651   0.211  0.3973  0.2375  0.3001
10345TIP3    H152526   5.837   4.638   0.299  2.7150  1.3373  1.4432
10345TIP3    H252527   5.864   4.565   0.169  0.6979 -0.7228  2.1241
10346TIP3   OH252528   0.459   5.618   2.538 -0.3401 -0.5266  0.3061
10346TIP3    H152529   0.553   5.611   2.523 -0.3587 -0.8642  0.3333
10346TIP3    H252530   0.421   5.623   2.450 -0.2404  0.4164  0.3144
10347TIP3   OH252531   2.716   4.020  11.046  0.2880 -0.0379 -0.1078
10347TIP3    H152532   2.726   3.939  10.996 -1.8885 -0.2703 -0.2476
10347TIP3    H252533   2.645   4.003  11.107  1.4936  0.9551  1.6747
10348TIP3   OH252534   2.941   0.580   1.536  0.2935  0.3248 -0.5275
10348TIP3    H152535   2.947   0.560   1.630  1.2978  1.2561 -0.3691
10348TIP3    H252536   2.868   0.526   1.505 -0.2460  0.1986  0.8441
10349TIP3   OH252537   0.473   6.381   3.943 -0.3122 -0.4085 -0.0819
10349TIP3    H152538   0.551   6.350   3.898  2.1659  0.7080  3.0298
10349TIP3    H252539   0.431   6.441   3.881  1.8227 -0.3147 -1.5313
10350TIP3   OH252540   3.243   4.107  16.979 -0.1695  0.0354  0.5760
10350TIP3    H152541   3.219   4.183  17.033  2.1801  1.5820 -0.3713
10350TIP3    H252542   3.335   4.092  16.999  0.0072 -1.1401 -0.9260
10351TIP3   OH252543   5.699   0.320  12.555  0.2980  0.6909 -0.2904
10351TIP3    H152544   5.696   0.296  12.648  0.7096  1.2865 -0.1209
10351TIP3    H252545   5.674   0.412  12.553 -1.5180  0.2442 -0.9584
10352TIP3   OH252546   4.610   0.002  13.417  0.5009  0.0017 -0.6086
10352TIP3    H152547   4.697  -0.016  13.382  0.2851 -1.5482 -0.3899
10352TIP3    H252548   4.595   0.094  13.395  1.6718 -0.0502 -1.7658
10353TIP3   OH252549   3.190   4.623   1.223  0.6923 -0.4408  0.2693
10353TIP3    H152550   3.141   4.551   1.185 -0.4112  0.1007  0.6213
10353TIP3    H252551   3.269   4.630   1.169 -0.2982 -0.4080 -1.2282
10354TIP3   OH252552   3.347   4.360  15.276  0.2004  0.1120 -0.3521
10354TIP3    H152553   3.421   4.350  15.215  0.3053 -0.1060 -0.1910
10354TIP3    H252554   3.271   4.333  15.225  0.1700  0.7505 -0.6553
10355TIP3   OH252555   5.384   6.802   4.296  0.3090  0.1241  0.4347
10355TIP3    H152556   5.373   6.761   4.382 -0.4806  1.8111  1.1768
10355TIP3    H252557   5.300   6.846   4.280  0.9771  1.0901 -0.5156
10356TIP3   OH252558   6.394   5.103   5.316  0.1212  0.1466 -0.3495
10356TIP3    H152559   6.340   5.045   5.369  2.1651  0.0426  1.7658
10356TIP3    H252560   6.443   5.045   5.258  0.8422 -0.1380  0.5193
10357TIP3   OH252561   3.678   6.479  15.933  0.8010  0.3908  0.2267
10357TIP3    H152562   3.713   6.403  15.980  0.9794 -0.3075 -0.9897
10357TIP3    H252563   3.598   6.445  15.891  1.9911  0.2490 -2.0669
10358TIP3   OH252564   1.856   3.907   5.712  0.3402  0.5775 -0.1606
10358TIP3    H152565   1.767   3.872   5.706  1.0553 -1.2971 -0.6502
10358TIP3    H252566   1.912   3.830   5.704  2.0348  1.8047 -0.6699
10359TIP3   OH252567   0.808   6.138   4.488  0.0623  0.2040  0.1547
10359TIP3    H152568   0.753   6.080   4.541  0.1824  0.6336  0.7581
10359TIP3    H252569   0.746   6.201   4.450 -0.2062 -0.9001 -1.3129
10360TIP3   OH252570   4.956   4.776   3.042  0.6724  0.1055 -0.2225
10360TIP3    H152571   4.944   4.841   3.111 -1.5765 -0.9258  0.4675
10360TIP3    H252572   4.900   4.807   2.971 -0.8572 -1.2679  0.3210
10361TIP3   OH252573   2.853   0.896   3.978 -0.3898 -0.3229 -0.1528
10361TIP3    H152574   2.900   0.977   3.961  0.0136 -0.7651 -1.1710
10361TIP3    H252575   2.920   0.834   4.008 -0.1906 -1.1047 -2.0880
10362TIP3   OH252576   1.132   2.211  16.561 -0.1466  0.0643  0.1157
10362TIP3    H152577   1.222   2.236  16.537 -1.1983  2.7985 -1.4883
10362TIP3    H252578   1.105   2.150  16.492  1.0739 -2.4893  1.7637
10363TIP3   OH252579   5.266   6.322   4.494 -0.0401 -0.5620  0.1807
10363TIP3    H152580   5.359   6.335   4.476  0.4767 -1.8001  1.7651
10363TIP3    H252581   5.222   6.382   4.434  1.7246 -0.6299 -1.2714
10364TIP3   OH252582   2.057   1.455   6.617 -0.4520  0.4177 -0.1310
10364TIP3    H152583   2.039   1.457   6.523  0.5119  0.3401 -0.3267
10364TIP3    H252584   2.150   1.476   6.625 -1.1590  3.6585  1.0165
10365TIP3   OH252585   2.784   1.838  11.164  0.3922 -0.4236  0.3640
10365TIP3    H152586   2.778   1.823  11.070 -0.3452  0.8270  0.1867
10365TIP3    H252587   2.820   1.926  11.172 -0.2630 -0.2117  1.2243
10366TIP3   OH252588   6.601   5.571   4.907  0.1691 -0.0382 -0.7382
10366TIP3    H152589   6.628   5.521   4.985  0.2762 -1.1334 -1.4515
10366TIP3    H252590   6.564   5.505   4.848 -2.8380  1.1675 -0.3838
10367TIP3   OH252591   5.268   2.107   0.165  0.2816 -0.2328  0.5308
10367TIP3    H152592   5.333   2.051   0.124  1.0895  1.2608 -0.3301
10367TIP3    H252593   5.307   2.195   0.163 -1.8959  0.8035 -0.4580
10368TIP3   OH252594   2.850   4.756  16.360 -0.7264 -0.3122  0.5086
10368TIP3    H152595   2.801   4.830  16.325  0.0060  1.4216  2.8747
10368TIP3    H252596   2.873   4.704  16.284 -0.6679  2.2883 -1.3874
10369TIP3   OH252597   4.760   0.616  15.444  0.6302 -0.1740 -0.5696
10369TIP3    H152598   4.722   0.535  15.412  0.1858  0.3223 -1.3038
10369TIP3    H252599   4.703   0.685  15.411  0.3958  0.3952  0.9142
10370TIP3   OH252600   6.051   6.500   1.677 -0.0511  0.3969 -0.0237
10370TIP3    H152601   6.109   6.535   1.745  0.1853 -2.2366  1.2587
10370TIP3    H252602   5.978   6.460   1.726 -2.4479  2.5545 -1.5472
10371TIP3   OH252603   5.640   2.950  15.284 -0.0050 -0.1121  0.4413
10371TIP3    H152604   5.734   2.967  15.279 -0.2397  0.9075 -2.6593
10371TIP3    H252605   5.601   3.016  15.228 -2.5428 -0.9264  1.1329
10372TIP3   OH252606   4.596   6.317  16.268 -1.2397  0.3657 -0.6177
10372TIP3    H152607   4.515   6.268  16.282 -0.7833 -1.1946 -3.0741
10372TIP3    H252608   4.652   6.293  16.342 -2.4230  0.2715  0.2747
10373TIP3   OH252609   3.376   5.517   3.147 -0.3763 -0.0240  0.0268
10373TIP3    H152610   3.317   5.463   3.094 -0.8388 -1.6611  2.0577
10373TIP3    H252611   3.464   5.497   3.114 -0.6980 -0.3608 -0.6410
10374TIP3   OH252612   1.847   0.767  14.166  0.5657  0.1752  0.1849
10374TIP3    H152613   1.927   0.766  14.114  0.3676 -1.4011 -0.1498
10374TIP3    H252614   1.812   0.856  14.156  0.6362  0.0061 -2.2448
10375TIP3   OH252615   3.883   2.031  14.670  0.6850 -0.4614 -0.3249
10375TIP3    H152616   3.818   2.099  14.689  1.5629  0.3165 -0.0315
10375TIP3    H252617   3.929   2.063  14.593 -0.5519 -1.9555 -1.7623
10376TIP3   OH252618   2.599   2.234  14.915  1.0116 -0.2307  0.0804
10376TIP3    H152619   2.534   2.189  14.969  0.0814 -1.0547 -1.6418
10376TIP3    H252620   2.565   2.227  14.826  2.2000  1.5793 -0.5766
10377TIP3   OH252621   3.846   5.928   6.349  0.1813 -0.6046  0.2533
10377TIP3    H152622   3.758   5.893   6.365 -0.8964  0.9676 -1.7782
10377TIP3    H252623   3.854   6.000   6.412 -0.5532  0.0680 -0.3914
10378TIP3   OH252624   6.435   4.723   4.701  0.1937 -0.5925  0.1938
10378TIP3    H152625   6.382   4.792   4.661 -2.0686 -1.8821  0.7377
10378TIP3    H252626   6.451   4.661   4.629  0.2019 -0.6356  0.2335
10379TIP3   OH252627   4.924   0.740  12.564  0.0899 -0.1840  0.9528
10379TIP3    H152628   4.976   0.724  12.643 -0.8188 -2.6458  1.1264
10379TIP3    H252629   4.989   0.770  12.500  0.8190  2.0935  2.5848
10380TIP3   OH252630   1.391   0.141   1.924  0.0240 -0.4134  0.2696
10380TIP3    H152631   1.307   0.095   1.928 -1.6061  2.2968 -0.2568
10380TIP3    H252632   1.435   0.118   2.006 -1.3548 -1.6828  0.6975
10381TIP3   OH252633   4.201   5.881   1.378  1.0677  0.2141 -0.2311
10381TIP3    H152634   4.231   5.829   1.303  0.4947  0.8235 -0.8894
10381TIP3    H252635   4.225   5.971   1.356  1.0118  0.3840  0.3815
10382TIP3   OH252636   3.878   0.111  11.688 -0.6542 -0.6791 -0.1696
10382TIP3    H152637   3.816   0.184  11.685 -0.5008 -0.4629  1.3457
10382TIP3    H252638   3.839   0.045  11.630 -0.6403  0.6881 -1.8296
10383TIP3   OH252639   5.871   5.053  13.558 -0.1805 -0.0696 -0.1036
10383TIP3    H152640   5.852   5.013  13.473  2.2780 -0.1686 -0.6885
10383TIP3    H252641   5.927   4.989  13.602 -2.4307 -0.6014  2.1958
10384TIP3   OH252642   4.091   5.172  11.223  0.4092  0.3415 -0.4065
10384TIP3    H152643   4.123   5.136  11.306 -1.1354 -1.1000 -0.3878
10384TIP3    H252644   4.159   5.149  11.160  1.3308  0.9503  0.3347
10385TIP3   OH252645   0.913   2.516   6.556 -0.0436 -0.1708  0.2643
10385TIP3    H152646   0.906   2.594   6.501  2.1963 -0.6279 -0.7709
10385TIP3    H252647   0.824   2.481   6.558 -0.3585  0.1706 -2.6801
10386TIP3   OH252648   0.864   4.039   5.229  0.4968 -0.3217  0.2940
10386TIP3    H152649   0.958   4.050   5.215  0.1756  2.0579 -0.5981
10386TIP3    H252650   0.842   4.106   5.294 -0.5357 -1.1569  0.8397
10387TIP3   OH252651   2.545   1.481  14.356  0.0286 -0.0265  0.2036
10387TIP3    H152652   2.615   1.487  14.291 -1.4783 -0.9556 -1.5799
10387TIP3    H252653   2.586   1.511  14.438  1.8200  1.7682 -1.2510
10388TIP3   OH252654   6.029   4.431   6.300  0.0213 -0.0329 -0.6087
10388TIP3    H152655   6.110   4.380   6.301 -0.7191 -1.2492 -0.7603
10388TIP3    H252656   6.006   4.441   6.393  0.9743  1.4037 -0.4906
10389TIP3   OH252657   5.921   2.578  15.102  0.0389  0.5235 -0.6178
10389TIP3    H152658   5.901   2.491  15.067 -0.5262  0.3385  0.1344
10389TIP3    H252659   5.877   2.580  15.187  0.5338  1.3359 -0.3739
10390TIP3   OH252660   5.225   0.878  16.679 -0.2305  0.9179  0.5045
10390TIP3    H152661   5.274   0.927  16.745  2.2279  1.4148 -1.4977
10390TIP3    H252662   5.210   0.941  16.608 -2.8378  0.4322  0.5396
10391TIP3   OH252663   1.841   0.607   5.017  0.1540 -0.1626 -1.1310
10391TIP3    H152664   1.751   0.627   5.044  1.1785  5.3781 -0.5131
10391TIP3    H252665   1.894   0.630   5.093  2.2452  1.0168 -2.8208
10392TIP3   OH252666   1.309   2.689  15.188 -0.0967 -0.3871 -0.2720
10392TIP3    H152667   1.275   2.761  15.241  1.0488 -0.0635  0.0542
10392TIP3    H252668   1.366   2.640  15.248  1.8563  0.4365 -1.3545
10393TIP3   OH252669   6.746   2.249  13.088  0.1238  0.3535  0.4878
10393TIP3    H152670   6.738   2.200  13.006  1.5094  1.1212 -0.1335
10393TIP3    H252671   6.655   2.264  13.115 -0.3482 -1.6733  0.2040
10394TIP3   OH252672   0.439   4.734   2.108 -0.0118 -0.1382 -0.1708
10394TIP3    H152673   0.423   4.797   2.037  1.3944  1.0200  0.4726
10394TIP3    H252674   0.518   4.767   2.151  0.3621 -1.9772  0.6469
10395TIP3   OH252675   6.735   6.252  13.706  0.1691  0.4037 -0.0869
10395TIP3    H152676   6.771   6.229  13.620  0.8585 -1.5874  0.6927
10395TIP3    H252677   6.739   6.171  13.756 -1.4881  1.1854  1.4109
10396TIP3   OH252678   4.620   2.768   1.960 -0.4104  0.2543 -0.1468
10396TIP3    H152679   4.531   2.733   1.960 -0.5154  0.5079  0.5481
10396TIP3    H252680   4.609   2.863   1.956 -0.1611  0.2719 -0.4414
10397TIP3   OH252681   3.516   6.623  14.445  0.0884 -0.5739  0.3504
10397TIP3    H152682   3.494   6.543  14.493 -1.0542 -0.6745 -0.3079
10397TIP3    H252683   3.564   6.593  14.368  2.1302 -0.3965  1.4609
10398TIP3   OH252684   6.206   6.506   4.300 -0.7114 -0.1385  0.0139
10398TIP3    H152685   6.160   6.492   4.216  2.5292 -3.1150 -1.5286
10398TIP3    H252686   6.270   6.574   4.281 -1.1686  0.4798  0.6560
10399TIP3   OH252687   0.813   4.190   2.782 -0.4101  0.1210  0.2469
10399TIP3    H152688   0.888   4.238   2.818 -0.6182  0.3422  0.3955
10399TIP3    H252689   0.737   4.242   2.809 -0.4912  1.3072 -2.0543
10400TIP3   OH252690   0.022   4.774   3.594 -0.6889  0.0385 -0.9011
10400TIP3    H152691   0.014   4.781   3.689 -0.5012 -0.6829 -0.8256
10400TIP3    H252692   0.016   4.865   3.563  2.1609  0.6596  0.0300
10401TIP3   OH252693   1.894   1.997   2.128  0.0736 -0.3946  0.0280
10401TIP3    H152694   1.848   1.913   2.121 -0.3319 -0.2296  0.5821
10401TIP3    H252695   1.832   2.054   2.174  0.3633  0.1971 -0.3042
10402TIP3   OH252696   3.922   1.497  17.130 -0.9186  0.1265 -0.3413
10402TIP3    H152697   3.859   1.531  17.193  1.7817  1.5007  1.8482
10402TIP3    H252698   3.903   1.403  17.124 -1.7085  0.0819  2.0542
10403TIP3   OH252699   1.583   6.126  16.367 -0.1188  0.3912 -0.4514
10403TIP3    H152700   1.628   6.207  16.392 -1.0666  0.8436 -0.1874
10403TIP3    H252701   1.544   6.094  16.449 -0.1281 -0.0933 -0.6432
10404TIP3   OH252702   1.029   2.049  16.342 -0.5856  0.4074  0.2644
10404TIP3    H152703   0.998   2.136  16.317 -2.2585 -0.7462 -2.0569
10404TIP3    H252704   1.025   1.998  16.261 -0.5161 -2.0798  1.7165
10405TIP3   OH252705   6.362   6.125  12.720 -0.0140  0.9590 -0.6463
10405TIP3    H152706   6.446   6.084  12.739  0.0756  0.4694 -1.9954
10405TIP3    H252707   6.298   6.057  12.740 -0.0614  1.1456 -0.1469
10406TIP3   OH252708   5.780   6.180   5.366 -0.3518 -0.2355 -0.2278
10406TIP3    H152709   5.732   6.141   5.439  0.5923  1.4986  1.4274
10406TIP3    H252710   5.826   6.107   5.325 -1.0034 -1.2806  0.8381
10407TIP3   OH252711   6.710   3.846  15.135 -0.0721  0.0698  0.1934
10407TIP3    H152712   6.633   3.798  15.166  0.4595 -1.6740 -1.0567
10407TIP3    H252713   6.707   3.836  15.040  1.7157 -0.0577  0.1241
10408TIP3   OH252714   2.549   1.364  12.994  0.1638 -0.4885 -0.0710
10408TIP3    H152715   2.557   1.458  13.010 -0.8298 -0.4028 -0.0118
10408TIP3    H252716   2.629   1.341  12.945  2.6239 -0.4748  3.5695
10409TIP3   OH252717   2.566   5.029  11.063  0.0229 -0.2690 -0.5510
10409TIP3    H152718   2.616   4.988  11.134 -0.1549 -0.2640 -0.4217
10409TIP3    H252719   2.632   5.051  10.997  0.5979  1.9815  0.6537
10410TIP3   OH252720   5.244   0.438   6.454 -0.0301 -0.3942 -0.0897
10410TIP3    H152721   5.307   0.371   6.477  0.3763 -0.1361 -0.4405
10410TIP3    H252722   5.258   0.454   6.361  0.3034  0.6051  0.1091
10411TIP3   OH252723   5.760   0.736  13.493  0.6409 -0.5573 -0.0906
10411TIP3    H152724   5.820   0.755  13.420 -0.2717 -1.0968 -1.0025
10411TIP3    H252725   5.796   0.785  13.567  1.2422  0.5004 -1.0558
10412TIP3   OH252726   4.038   3.102  11.349  0.4530 -0.5460  0.0036
10412TIP3    H152727   4.028   3.009  11.330  1.1000 -0.8130  0.8996
10412TIP3    H252728   4.120   3.127  11.305  0.0305 -0.2703 -0.6472
10413TIP3   OH252729   4.985   1.292   0.560 -0.0276 -0.5072 -0.2143
10413TIP3    H152730   4.916   1.235   0.593  0.0161 -0.6295 -0.3299
10413TIP3    H252731   5.024   1.242   0.488  1.3091 -1.1758  0.9245
10414TIP3   OH252732   1.934   4.591  13.993 -0.0697  0.2537  0.1525
10414TIP3    H152733   1.888   4.648  14.055  0.8924  1.2616 -0.0123
10414TIP3    H252734   2.023   4.585  14.027 -0.2576 -1.5718  0.4130
10415TIP3   OH252735   1.449   0.406   1.973 -0.2144  0.4471 -0.0259
10415TIP3    H152736   1.485   0.357   2.047 -1.0127 -0.1634 -0.0191
10415TIP3    H252737   1.412   0.338   1.915 -1.0528  1.0117 -0.1762
10416TIP3   OH252738   0.304   3.142  12.145  0.0070  0.3552 -0.3628
10416TIP3    H152739   0.379   3.154  12.086  2.4612 -2.1846  1.9505
10416TIP3    H252740   0.323   3.200  12.219 -0.4634 -0.0968  0.1140
10417TIP3   OH252741   4.521   4.934  10.550  0.0375  0.2882 -0.2500
10417TIP3    H152742   4.502   4.958  10.459 -1.7588 -1.1168 -0.3074
10417TIP3    H252743   4.454   4.979  10.601  0.1285 -0.0771  0.2025
10418TIP3   OH252744   6.408   5.429   2.300 -0.0177  0.2137  0.4417
10418TIP3    H152745   6.496   5.466   2.292 -0.7405  1.7028 -1.3437
10418TIP3    H252746   6.349   5.502   2.281 -1.6411 -0.9926  0.5533
10419TIP3   OH252747   0.783   5.257  12.776 -0.1102 -0.6682 -0.3109
10419TIP3    H152748   0.705   5.225  12.730 -0.3028 -0.2848 -0.2546
10419TIP3    H252749   0.816   5.328  12.721 -2.5870  2.5307  2.0002
10420TIP3   OH252750   0.834   0.761   6.260 -0.0114 -0.9106 -0.6133
10420TIP3    H152751   0.759   0.776   6.202 -0.1587 -0.9929 -0.4473
10420TIP3    H252752   0.794   0.751   6.346  0.2804  0.2863 -0.3132
10421TIP3   OH252753   4.511   1.125   5.997  0.7626 -0.2176 -0.1206
10421TIP3    H152754   4.604   1.110   6.016  0.7186 -0.4975 -0.1341
10421TIP3    H252755   4.512   1.191   5.927  0.9267  0.9107  0.8991
10422TIP3   OH252756   3.290   3.535  13.147  0.1985  0.8799  0.0401
10422TIP3    H152757   3.293   3.547  13.052  0.2532 -0.1878 -0.1001
10422TIP3    H252758   3.286   3.441  13.160  1.2023  0.9640  1.1302
10423TIP3   OH252759   0.717   5.951  10.537  0.8806 -0.0763 -0.0739
10423TIP3    H152760   0.783   5.894  10.576  0.6361 -1.2173 -1.2474
10423TIP3    H252761   0.707   5.918  10.447 -1.5454 -0.1904  0.1793
10424TIP3   OH252762   0.951   4.976   0.799  0.2130  0.0069  0.7896
10424TIP3    H152763   0.860   4.974   0.828 -0.1346 -0.8496 -0.2663
10424TIP3    H252764   0.948   5.023   0.715  1.1521  2.2512  1.9212
10425TIP3   OH252765   5.879   1.620   2.241  0.0746  0.5559 -0.0345
10425TIP3    H152766   5.916   1.532   2.243  0.8950  0.8287 -1.4333
10425TIP3    H252767   5.918   1.664   2.317  1.0457  0.2098 -0.3087
10426TIP3   OH252768   3.673   4.509   1.205 -0.0500  0.5778  0.2376
10426TIP3    H152769   3.598   4.451   1.222  0.2569  0.1253  0.0696
10426TIP3    H252770   3.717   4.516   1.290 -0.1040  0.5823  0.2653
10427TIP3   OH252771   1.909   2.390   4.338  0.3166  0.6000 -0.6506
10427TIP3    H152772   1.840   2.365   4.276  0.6698  0.7179 -1.0957
10427TIP3    H252773   1.911   2.486   4.333  0.7588  0.5836 -0.9212
10428TIP3   OH252774   5.157   3.248  13.215 -0.1129  0.0827  0.0930
10428TIP3    H152775   5.215   3.224  13.287  0.6138  1.1475 -0.1210
10428TIP3    H252776   5.131   3.164  13.176 -1.1300 -0.5732  2.0252
10429TIP3   OH252777   6.470   0.914  16.588 -0.7217  0.6007 -0.9635
10429TIP3    H152778   6.515   0.988  16.628  0.9461 -0.5155 -0.6614
10429TIP3    H252779   6.507   0.837  16.631  0.2326 -0.5913 -3.6685
10430TIP3   OH252780   1.430   6.555  10.148  0.3962  0.4282  0.2292
10430TIP3    H152781   1.523   6.533  10.148 -0.0871 -1.8100  0.1841
10430TIP3    H252782   1.419   6.611  10.071  1.5241 -0.1324 -0.3746
10431TIP3   OH252783   3.695   1.592   3.158  0.3372 -0.2501  0.0372
10431TIP3    H152784   3.790   1.593   3.160  0.3799  0.9265  3.0687
10431TIP3    H252785   3.670   1.684   3.148 -0.5043 -0.5512 -0.7868
10432TIP3   OH252786   4.021   4.109  15.951  0.1784  0.2629  0.1244
10432TIP3    H152787   3.988   4.021  15.933 -0.1167  0.4586 -0.3185
10432TIP3    H252788   4.094   4.095  16.011 -0.1714 -0.2452  0.4425
10433TIP3   OH252789   1.605   2.724  12.798 -0.3647 -0.0468 -0.3120
10433TIP3    H152790   1.514   2.740  12.774  0.0495  1.1973 -1.1956
10433TIP3    H252791   1.628   2.644  12.751 -0.4385  0.7484 -1.7791
10434TIP3   OH252792   1.793   6.576  12.867  0.1361  0.5235  0.5164
10434TIP3    H152793   1.885   6.572  12.841  0.3833 -1.6645  1.4965
10434TIP3    H252794   1.791   6.536  12.954 -1.5951  1.6022  1.0158
10435TIP3   OH252795   1.421   5.439   2.961 -0.3267 -0.1982 -0.6835
10435TIP3    H152796   1.411   5.403   3.050 -1.0129 -0.5854 -0.9105
10435TIP3    H252797   1.338   5.418   2.918 -0.3277  0.7419 -1.1540
10436TIP3   OH252798   6.198   5.980   1.681 -0.3776 -0.3682 -0.0095
10436TIP3    H152799   6.247   6.054   1.646 -0.2426 -0.0403  0.8373
10436TIP3    H252800   6.133   6.019   1.739 -2.4679 -0.7180 -1.9738
10437TIP3   OH252801   5.438   1.570  11.785  0.1309  0.8674 -0.5076
10437TIP3    H152802   5.411   1.512  11.856  0.4588  2.2326  0.7632
10437TIP3    H252803   5.393   1.534  11.707 -0.9940 -0.0916  0.5338
10438TIP3   OH252804   1.224   5.959  16.702  0.0481  0.0039 -0.6824
10438TIP3    H152805   1.173   6.035  16.732  0.2282 -0.2738  0.3723
10438TIP3    H252806   1.224   5.900  16.777 -0.9100 -1.4822 -1.8053
10439TIP3   OH252807   1.479   6.254  16.124  0.3505  0.0717  0.1063
10439TIP3    H152808   1.566   6.242  16.086 -0.0460 -1.8895 -0.2778
10439TIP3    H252809   1.485   6.215  16.211 -0.7750 -2.4524 -0.8581
10440TIP3   OH252810   3.655   4.829   1.709 -0.2461  0.1372  0.1631
10440TIP3    H152811   3.570   4.810   1.747  0.2583 -1.0582  0.7408
10440TIP3    H252812   3.677   4.916   1.742 -1.9862  1.2320 -1.3881
10441TIP3   OH252813   6.499   2.830  16.570  0.2255  0.6552 -0.1999
10441TIP3    H152814   6.552   2.904  16.539  2.0552  0.1447  1.5001
10441TIP3    H252815   6.523   2.758  16.511  0.9808  0.5889  0.1768
10442TIP3   OH252816   4.658   1.451   0.032 -0.0837  0.4716 -0.7624
10442TIP3    H152817   4.613   1.498  -0.038 -0.9101 -0.8891 -1.1762
10442TIP3    H252818   4.656   1.512   0.106 -0.5903  1.3249 -1.4509
10443TIP3   OH252819   6.683   6.474  13.160 -0.2450 -0.2525  0.2603
10443TIP3    H152820   6.753   6.536  13.139 -0.2555 -0.5527 -0.7437
10443TIP3    H252821   6.647   6.505  13.243  0.8980  0.0611  0.6561
10444TIP3   OH252822   4.311   1.461  15.998 -0.6635 -0.3664 -0.0690
10444TIP3    H152823   4.229   1.416  16.019 -0.7184 -0.5103 -0.5842
10444TIP3    H252824   4.326   1.442  15.906 -1.4078  1.7757 -0.7088
10445TIP3   OH252825   3.454   6.023  15.076 -0.3939 -0.3810 -0.4125
10445TIP3    H152826   3.451   5.931  15.103  1.1521 -0.2917  0.1702
10445TIP3    H252827   3.472   6.071  15.156 -1.3009  0.4716 -0.6953
10446TIP3   OH252828   1.755   3.016  13.039 -0.5748 -0.1345 -0.4062
10446TIP3    H152829   1.822   3.020  13.107 -0.5671 -0.5926 -0.3836
10446TIP3    H252830   1.796   3.058  12.963 -1.3044  2.2578  0.4361
10447TIP3   OH252831   5.434   4.595   5.951  0.4569 -0.3845  0.4465
10447TIP3    H152832   5.378   4.520   5.970  0.3516 -0.7460 -1.1399
10447TIP3    H252833   5.392   4.668   5.995 -0.4093 -0.9437  0.5671
10448TIP3   OH252834   3.099   4.647   2.153  0.0055  0.3189 -0.1619
10448TIP3    H152835   3.182   4.599   2.151  0.1496  0.5377  0.5089
10448TIP3    H252836   3.039   4.592   2.102  0.5752  0.1978 -0.7205
10449TIP3   OH252837   5.768   0.343  14.087  0.0270  0.4022 -0.3679
10449TIP3    H152838   5.835   0.405  14.058  0.6967 -0.5058 -0.8128
10449TIP3    H252839   5.801   0.310  14.170 -0.9016  1.4783  0.4747
10450TIP3   OH252840   1.429   4.784  12.837  0.5041 -0.7703 -0.0353
10450TIP3    H152841   1.358   4.725  12.814 -1.3347  2.1370 -2.7708
10450TIP3    H252842   1.411   4.811  12.927 -1.8335 -0.2923 -0.5752
10451TIP3   OH252843   2.708   5.195   2.927  0.0564  0.4967  0.6820
10451TIP3    H152844   2.675   5.270   2.977  2.4388  0.6242  2.1885
10451TIP3    H252845   2.683   5.119   2.980  1.1254  0.5247  1.2526
10452TIP3   OH252846   4.948   0.830   2.157  0.7315 -0.3738 -0.1449
10452TIP3    H152847   4.921   0.746   2.121  0.3914  0.5122 -2.1376
10452TIP3    H252848   5.029   0.851   2.110  1.1794  0.1062  0.8242
10453TIP3   OH252849   1.762   4.309   0.049  0.0854 -0.7508  0.3362
10453TIP3    H152850   1.749   4.403   0.064 -1.5905 -1.0391  1.0068
10453TIP3    H252851   1.703   4.289  -0.024  0.1681 -1.3479  0.4345
10454TIP3   OH252852   1.597   2.021  16.523 -0.0148  0.5151  0.3984
10454TIP3    H152853   1.553   2.104  16.504 -0.8361  0.1111  0.5092
10454TIP3    H252854   1.671   2.046  16.579 -0.7921  1.0692  1.1962
10455TIP3   OH252855   3.422   2.682   3.716  0.1616  0.3721  0.2951
10455TIP3    H152856   3.430   2.606   3.773 -0.5533  0.4505  0.5069
10455TIP3    H252857   3.480   2.747   3.755 -0.0148  0.2875  0.7030
10456TIP3   OH252858   1.215   1.545  16.262 -0.6243  0.3943  0.3619
10456TIP3    H152859   1.297   1.590  16.281  0.5805 -1.5076 -0.0918
10456TIP3    H252860   1.147   1.612  16.275  1.0346  2.2559 -0.1036
10457TIP3   OH252861   6.338   0.503  14.304  0.2567 -0.4233 -0.0563
10457TIP3    H152862   6.247   0.525  14.319  0.3746 -0.9458  1.5852
10457TIP3    H252863   6.340   0.468  14.215 -1.1863 -0.6525 -0.0157
10458TIP3   OH252864   2.134   6.798   3.177  0.4186 -0.2904 -0.5792
10458TIP3    H152865   2.139   6.884   3.135 -0.7433  0.4793  0.7816
10458TIP3    H252866   2.068   6.751   3.126 -0.5345  0.4223 -0.0520
10459TIP3   OH252867   6.446   6.642  16.161 -0.3478  0.2226 -0.0747
10459TIP3    H152868   6.500   6.686  16.227 -0.4844  2.3992 -1.3221
10459TIP3    H252869   6.500   6.569  16.131  0.5788  0.4680  0.9258
10460TIP3   OH252870   3.821   5.877   5.116  0.7458 -0.1622 -0.0822
10460TIP3    H152871   3.850   5.898   5.205  2.1589  0.9666 -0.7591
10460TIP3    H252872   3.797   5.961   5.078  0.2720 -0.6168 -0.8189
10461TIP3   OH252873   4.449   2.961   6.101 -0.4102 -0.3181  0.3211
10461TIP3    H152874   4.373   3.018   6.093  1.0511  1.5833 -0.7683
10461TIP3    H252875   4.422   2.893   6.163 -2.0964  1.7702  2.0031
10462TIP3   OH252876   3.642   6.249   2.616 -0.3577  0.1018 -0.4772
10462TIP3    H152877   3.560   6.251   2.666 -0.8933  0.0262 -1.3319
10462TIP3    H252878   3.639   6.328   2.562 -0.1896 -0.2561 -1.0165
10463TIP3   OH252879   2.600   1.983  12.468 -0.4121  0.2246  0.2766
10463TIP3    H152880   2.599   1.889  12.451 -1.9423  0.7360 -3.1876
10463TIP3    H252881   2.663   2.018  12.404  1.2862  1.5117  2.4937
10464TIP3   OH252882   2.290   6.446  15.292  0.5281 -0.0089 -0.0577
10464TIP3    H152883   2.312   6.426  15.201 -0.7441  2.9149 -1.1396
10464TIP3    H252884   2.374   6.464  15.334  1.0668 -0.6241 -0.8377
10465TIP3   OH252885   2.289   3.220   4.899  0.2027 -0.1010  0.6410
10465TIP3    H152886   2.256   3.267   4.975  1.1013  2.0537 -0.2283
10465TIP3    H252887   2.336   3.145   4.935  0.3081  0.6775  2.1814
10466TIP3   OH252888   5.861   1.370  11.622 -0.4591 -0.0623  0.0730
10466TIP3    H152889   5.921   1.423  11.674 -0.6457 -0.0956  0.3274
10466TIP3    H252890   5.828   1.430  11.555 -0.4545  0.0677  0.1866
10467TIP3   OH252891   6.341   1.127   4.085 -0.4230  0.1710  0.1178
10467TIP3    H152892   6.370   1.076   4.009 -1.8294 -1.6269  0.7053
10467TIP3    H252893   6.316   1.212   4.049  0.8176  0.0470 -1.1073
10468TIP3   OH252894   2.676   4.203  13.833  0.2535 -0.2565  0.1595
10468TIP3    H152895   2.722   4.163  13.759  0.1771  0.7700 -0.4759
10468TIP3    H252896   2.648   4.129  13.887  2.3512 -0.9321  0.4106
10469TIP3   OH252897   3.503   4.705  17.141 -0.2118 -0.2651 -0.0707
10469TIP3    H152898   3.445   4.776  17.169  0.5726 -0.0851  1.2117
10469TIP3    H252899   3.580   4.714  17.198  1.2734 -0.2384 -2.0014
10470TIP3   OH252900   4.206   4.423   0.504 -0.4587 -0.4341  0.2423
10470TIP3    H152901   4.291   4.434   0.460 -0.1930 -1.3942  0.4936
10470TIP3    H252902   4.150   4.384   0.437 -1.0107  1.0915 -0.2323
10471TIP3   OH252903   6.348   4.292  10.872 -0.0086 -0.1639 -0.2714
10471TIP3    H152904   6.262   4.258  10.846 -0.4715  0.2313  0.7129
10471TIP3    H252905   6.330   4.379  10.906  1.0318  0.6814 -1.7744
10472TIP3   OH252906   4.029   1.831  17.107  0.6472 -0.3946 -0.0281
10472TIP3    H152907   3.973   1.794  17.174 -0.1919 -3.1963 -2.0538
10472TIP3    H252908   4.036   1.923  17.129 -0.2142 -0.9989  3.3673
10473TIP3   OH252909   3.212   0.769   3.330 -0.0880  0.1002  0.4338
10473TIP3    H152910   3.277   0.809   3.271 -0.6221  1.3815  0.6933
10473TIP3    H252911   3.223   0.675   3.316 -1.1708  0.3319 -2.8352
10474TIP3   OH252912   4.409   5.498  14.778 -0.5571 -0.7994  0.3680
10474TIP3    H152913   4.489   5.447  14.792 -0.4632 -0.6940  0.2169
10474TIP3    H252914   4.439   5.583  14.746 -0.7554 -1.0240 -0.4565
10475TIP3   OH252915   4.539   1.811   4.046 -0.0856  0.6633 -0.7625
10475TIP3    H152916   4.563   1.904   4.051  0.3895  0.5219 -0.4195
10475TIP3    H252917   4.460   1.811   3.992 -0.8480  1.4064  0.2944
10476TIP3   OH252918   5.211   0.236  12.964  0.1653 -0.2837 -0.3205
10476TIP3    H152919   5.141   0.227  12.899  0.2475  0.7998 -0.5706
10476TIP3    H252920   5.291   0.220  12.915  0.1567 -0.5778 -0.2400
10477TIP3   OH252921   0.496   3.517  13.110 -0.1352 -0.2881  0.4413
10477TIP3    H152922   0.536   3.603  13.099 -0.4348 -0.2932 -0.7919
10477TIP3    H252923   0.545   3.460  13.051 -0.7398 -0.6932  0.3235
10478TIP3   OH252924   0.974   5.570  13.637  0.7985 -0.4935  0.4482
10478TIP3    H152925   1.032   5.646  13.641  2.3872 -1.4124 -2.1907
10478TIP3    H252926   1.013   5.514  13.570 -1.7425 -2.4340  0.4388
10479TIP3   OH252927   6.467   3.124  13.653  0.1121  0.3770 -0.4101
10479TIP3    H152928   6.479   3.134  13.559  1.4558  0.5178 -0.2395
10479TIP3    H252929   6.433   3.208  13.682 -2.5086 -0.3587 -1.0584
10480TIP3   OH252930   3.396   4.403  13.802  0.4711 -0.0775  0.0853
10480TIP3    H152931   3.433   4.473  13.748 -0.7179 -0.4708 -1.3361
10480TIP3    H252932   3.392   4.328  13.742 -1.5189 -0.3509  0.4833
10481TIP3   OH252933   4.604   1.755   4.753 -0.1144  0.5862  0.5892
10481TIP3    H152934   4.684   1.763   4.700  0.2216  2.6427  1.3031
10481TIP3    H252935   4.580   1.663   4.746  1.8750  0.0692 -0.2928
10482TIP3   OH252936   0.882   0.145  14.363 -0.2086 -0.2265 -0.0208
10482TIP3    H152937   0.853   0.188  14.443  0.8678 -1.2796  0.9744
10482TIP3    H252938   0.879   0.051  14.382  0.0897 -0.4999 -1.2004
10483TIP3   OH252939   6.794   4.436   4.694  0.3575  0.3773 -0.0358
10483TIP3    H152940   6.796   4.425   4.599 -0.1415 -1.5876  0.1550
10483TIP3    H252941   6.883   4.418   4.723  0.7720  2.0005 -0.1892
10484TIP3   OH252942   1.081   1.839  11.618  0.1768 -0.2020 -0.0374
10484TIP3    H152943   1.004   1.895  11.610 -0.5447 -1.1276  0.3727
10484TIP3    H252944   1.067   1.768  11.556  0.9831 -0.0746 -0.3877
10485TIP3   OH252945   1.878   4.043   4.704 -0.2851 -0.2364  0.0764
10485TIP3    H152946   1.893   3.969   4.645 -0.5455 -1.3137  1.3170
10485TIP3    H252947   1.965   4.073   4.729 -0.1812 -0.1894 -0.3392
10486TIP3   OH252948   1.365   2.903   2.658 -0.1497 -0.7368 -0.2697
10486TIP3    H152949   1.281   2.875   2.695 -1.0541 -0.3255 -1.9435
10486TIP3    H252950   1.369   2.997   2.676  0.3610 -0.8949  0.5233
10487TIP3   OH252951   5.781   3.439   0.834 -0.1139 -0.2490  0.2220
10487TIP3    H152952   5.855   3.500   0.832 -0.7574  0.5678  0.5819
10487TIP3    H252953   5.820   3.353   0.845  1.0082 -0.2368 -2.8345
10488TIP3   OH252954   2.359   6.695  16.251 -0.2324  0.1818 -0.2417
10488TIP3    H152955   2.268   6.708  16.276 -0.0565 -0.5039  0.7925
10488TIP3    H252956   2.399   6.651  16.326  1.0715  0.9178 -0.4756
10489TIP3   OH252957   2.394   3.233  11.702  0.3793 -0.3603 -0.6446
10489TIP3    H152958   2.351   3.313  11.731 -0.1725 -1.2376  1.0573
10489TIP3    H252959   2.399   3.178  11.780  1.0502 -1.8615 -1.6923
10490TIP3   OH252960   5.171   4.822   5.469 -0.4143 -0.1024 -0.0940
10490TIP3    H152961   5.233   4.881   5.511 -1.1823 -0.3372  1.4346
10490TIP3    H252962   5.223   4.743   5.450 -0.5473 -1.0001  2.7710
10491TIP3   OH252963   5.933   4.961  15.830 -0.1154  0.5398  0.1284
10491TIP3    H152964   5.977   4.904  15.767  0.9194  0.2508  1.0837
10491TIP3    H252965   5.912   5.040  15.781  0.6872  0.3275 -0.5696
10492TIP3   OH252966   5.053   5.875  14.760  0.2637  0.1716  0.3920
10492TIP3    H152967   5.108   5.945  14.726 -0.4144  0.2382 -0.6208
10492TIP3    H252968   5.114   5.807  14.787  0.8726  0.6303  0.1853
10493TIP3   OH252969   0.413   0.199  16.643 -0.3213  0.3442 -0.3004
10493TIP3    H152970   0.486   0.138  16.644 -1.2192 -0.7938  1.6228
10493TIP3    H252971   0.402   0.222  16.551  1.7034 -0.3238 -0.7606
10494TIP3   OH252972   0.170   1.567   1.164 -0.6586 -0.5087 -0.1094
10494TIP3    H152973   0.096   1.577   1.224  0.2938  0.9175  0.9195
10494TIP3    H252974   0.219   1.649   1.174  0.6452 -1.1055 -1.3285
10495TIP3   OH252975   4.261   3.987  14.482 -0.0147  0.4601  0.6980
10495TIP3    H152976   4.325   4.040  14.530 -0.4600  0.7221  1.0180
10495TIP3    H252977   4.179   4.036  14.491 -0.9090 -1.2901  2.7758
10496TIP3   OH252978   2.098   1.424   4.249 -0.3924  0.2722  0.2115
10496TIP3    H152979   2.022   1.369   4.229 -0.5520  0.4164  0.4165
10496TIP3    H252980   2.078   1.509   4.210 -0.5064  0.4209  0.5841
10497TIP3   OH252981   2.960   3.562  12.515  0.3601  0.5914  0.4740
10497TIP3    H152982   2.967   3.628  12.446 -1.7297  0.0721 -0.2857
10497TIP3    H252983   2.869   3.534  12.513  0.9372 -1.5876  1.4686
10498TIP3   OH252984   5.594   6.028  11.333  0.4532 -0.1018  0.5668
10498TIP3    H152985   5.545   6.025  11.415  0.3888  0.5265  0.5580
10498TIP3    H252986   5.531   6.059  11.268  0.9319  1.0371  0.6227
10499TIP3   OH252987   4.069   6.516   1.535 -0.3630  0.0592 -0.5787
10499TIP3    H152988   4.143   6.514   1.596 -0.3960  0.5833 -0.5146
10499TIP3    H252989   3.996   6.480   1.585  0.3121 -2.5806 -1.3303
10500TIP3   OH252990   2.066   5.274  14.400 -0.7126  0.2009 -0.1341
10500TIP3    H152991   2.075   5.246  14.309  2.5381 -0.1610  0.1771
10500TIP3    H252992   2.127   5.218  14.448 -1.8394  0.8492  2.1921
10501TIP3   OH252993   0.371   1.681  13.145  0.2546 -0.2967  0.1949
10501TIP3    H152994   0.284   1.653  13.117  0.0064 -4.1148  3.7968
10501TIP3    H252995   0.428   1.660  13.071 -1.3681 -1.5563 -0.7671
10502TIP3   OH252996   0.660   0.471  11.795 -0.1154 -0.4221 -0.0187
10502TIP3    H152997   0.577   0.501  11.758 -0.8297 -0.6387  1.3729
10502TIP3    H252998   0.645   0.467  11.889  1.9505  0.9750  0.4297
10503TIP3   OH252999   3.375   5.483   0.821  0.0903 -0.0571  0.0735
10503TIP3    H153000   3.376   5.464   0.727 -1.8367 -1.5089  0.2706
10503TIP3    H253001   3.448   5.432   0.856  0.9294  0.6303 -0.6477
10504TIP3   OH253002   4.617   0.283  10.754  0.0114 -0.2610 -0.0508
10504TIP3    H153003   4.683   0.215  10.743 -0.3824 -0.6730  0.0756
10504TIP3    H253004   4.605   0.289  10.849  1.6181  1.5365  0.0825
10505TIP3   OH253005   3.418   4.118  11.376  0.3823 -0.6218  0.2515
10505TIP3    H153006   3.473   4.191  11.405  0.5039  0.0701 -1.5930
10505TIP3    H253007   3.330   4.142  11.405  0.5089 -0.0171  0.1525
10506TIP3   OH253008   6.145   6.222  11.507 -0.3091 -0.0294 -0.2914
10506TIP3    H153009   6.130   6.137  11.467 -0.2326 -0.3915  0.4390
10506TIP3    H253010   6.163   6.281  11.433 -0.2303 -0.6696 -0.7853
10507TIP3   OH253011   2.428   6.096  10.942 -0.3151  0.3039  0.2194
10507TIP3    H153012   2.383   6.147  10.875 -0.2486 -1.8230 -1.5550
10507TIP3    H253013   2.358   6.047  10.985 -0.1708  0.4119  0.5823
10508TIP3   OH253014   5.439   5.451   0.278  0.2151 -0.1006 -0.6061
10508TIP3    H153015   5.399   5.517   0.222  0.0764  2.2303  2.0086
10508TIP3    H253016   5.396   5.462   0.363  0.5417 -3.2953  0.1227
10509TIP3   OH253017   4.331   4.540  13.710 -0.5638 -0.3701 -0.4595
10509TIP3    H153018   4.373   4.615  13.669 -1.2228 -0.5120 -1.4208
10509TIP3    H253019   4.386   4.465  13.684 -0.8551 -0.4312 -0.9082
10510TIP3   OH253020   5.405   4.043   4.227  0.0428  0.1167 -0.2327
10510TIP3    H153021   5.417   4.122   4.173 -1.1178  0.3367 -0.2100
10510TIP3    H253022   5.493   4.008   4.239  0.4616  0.7908 -1.1842
10511TIP3   OH253023   5.930   2.799   3.125 -0.1683  0.3924  0.0970
10511TIP3    H153024   5.877   2.860   3.176 -0.2427  1.1456 -0.8555
10511TIP3    H253025   5.880   2.718   3.125  0.9506 -0.4315  3.2279
10512TIP3   OH253026   2.867   0.706   4.603  0.0741 -0.2150 -0.7623
10512TIP3    H153027   2.782   0.676   4.635  0.4544 -2.1761 -1.4157
10512TIP3    H253028   2.904   0.754   4.677 -1.0941 -0.4008 -0.0251
10513TIP3   OH253029   3.544   0.112   1.023  0.3366  0.0915 -0.2906
10513TIP3    H153030   3.470   0.110   0.963  0.0025  1.9054  0.0195
10513TIP3    H253031   3.507   0.087   1.108  0.6529 -1.6631 -0.6176
10514TIP3   OH253032   1.904   0.179   2.463 -0.1509  0.0768 -0.8106
10514TIP3    H153033   1.964   0.110   2.492  0.4418  0.3466 -1.3754
10514TIP3    H253034   1.885   0.229   2.542 -0.5579 -0.7093 -0.3977
10515TIP3   OH253035   5.456   0.287  12.811 -0.0770  0.0467  0.0508
10515TIP3    H153036   5.508   0.360  12.846 -0.7347  0.2709  0.5877
10515TIP3    H253037   5.408   0.325  12.738 -0.7803  0.2893  0.6238
10516TIP3   OH253038   2.719   3.249  12.759 -0.2047 -0.7294  0.6753
10516TIP3    H153039   2.807   3.223  12.732 -0.1691 -2.3588  2.1903
10516TIP3    H253040   2.678   3.281  12.679  0.8707 -2.4510 -0.6330
10517TIP3   OH253041   6.335   3.451  15.316  0.3747 -0.0293 -0.3117
10517TIP3    H153042   6.367   3.488  15.234  0.4262 -0.9617 -0.7236
10517TIP3    H253043   6.406   3.393  15.346  0.1502 -0.0869  0.1238
10518TIP3   OH253044   6.557   2.733  13.695  0.1335  0.0085  0.0182
10518TIP3    H153045   6.603   2.805  13.652 -2.1454 -0.8211 -4.3402
10518TIP3    H253046   6.615   2.708  13.767  4.4613  1.6573 -2.4886
10519TIP3   OH253047   3.451   4.138  16.115  0.0601 -0.8971 -0.2981
10519TIP3    H153048   3.359   4.147  16.140  0.0993  2.0132 -0.7497
10519TIP3    H253049   3.500   4.178  16.187  0.9464 -1.9715 -0.2827
10520TIP3   OH253050   3.421   4.106  12.614 -0.0490  0.1017 -0.7884
10520TIP3    H153051   3.500   4.075  12.658 -0.3659 -0.3111 -0.5073
10520TIP3    H253052   3.373   4.154  12.681 -0.7172 -0.8482 -0.5580
10521TIP3   OH253053   0.959   1.523   2.388 -0.0021  0.3869  0.2141
10521TIP3    H153054   0.928   1.513   2.298  1.0034  0.4442 -0.1555
10521TIP3    H253055   0.998   1.610   2.390  2.2097 -0.5384 -0.0199
10522TIP3   OH253056   1.329   3.284   1.669  0.5455 -0.1501  0.1678
10522TIP3    H153057   1.241   3.292   1.632 -0.1551 -1.5639  1.4023
10522TIP3    H253058   1.314   3.263   1.761  2.1565 -0.9189  0.2928
10523TIP3   OH253059   3.478   6.301  11.990  0.0073 -0.2771 -0.2901
10523TIP3    H153060   3.548   6.268  11.933  0.4365  0.2241 -0.0672
10523TIP3    H253061   3.524   6.351  12.058 -0.6326  1.6851 -1.2140
10524TIP3   OH253062   0.175   1.026   6.672 -0.9351 -0.3168  0.0613
10524TIP3    H153063   0.154   0.975   6.595  0.8067 -1.4356  0.2764
10524TIP3    H253064   0.162   0.966   6.746  0.2076 -0.1824  0.3935
10525TIP3   OH253065   1.777   0.315  12.230 -0.4856 -0.5607 -0.0936
10525TIP3    H153066   1.807   0.399  12.194 -0.4251 -0.8520 -0.7270
10525TIP3    H253067   1.721   0.340  12.304  0.7891  0.0076  0.7275
10526TIP3   OH253068   6.531   3.636  16.802 -0.8146  0.8084 -0.2390
10526TIP3    H153069   6.594   3.638  16.729 -0.6591 -0.6456 -0.1736
10526TIP3    H253070   6.464   3.698  16.776  0.1660  1.6905 -0.7611
10527TIP3   OH253071   2.001   4.645   4.263 -0.4356  0.0683 -0.5397
10527TIP3    H153072   1.985   4.577   4.329  0.9149  1.1165  0.9541
10527TIP3    H253073   2.094   4.635   4.241  0.3024  2.4490  1.0463
10528TIP3   OH253074   3.488   2.736  12.319  0.0391  0.0685  0.6427
10528TIP3    H153075   3.507   2.820  12.279 -1.2227 -0.7581 -1.9329
10528TIP3    H253076   3.495   2.673  12.247 -1.8303 -1.6047  1.8042
10529TIP3   OH253077   4.397   3.013  11.364  0.4249  0.1914 -0.8741
10529TIP3    H153078   4.341   3.077  11.319  0.9956 -0.7271 -3.0512
10529TIP3    H253079   4.421   2.951  11.295 -0.8971 -2.9847  1.3226
10530TIP3   OH253080   1.911   4.477   1.789  0.2189  0.1842  0.7508
10530TIP3    H153081   1.945   4.417   1.856  0.8440 -0.0267  0.2529
10530TIP3    H253082   1.825   4.441   1.766  0.6394 -0.6004  0.3689
10531TIP3   OH253083   0.561   5.372  16.830 -0.0945  0.3017  0.1465
10531TIP3    H153084   0.524   5.310  16.893  0.6725  0.8424  1.1779
10531TIP3    H253085   0.644   5.333  16.804 -0.9117 -0.4504 -1.4131
10532TIP3   OH253086   2.020   2.224  10.678 -0.3486  0.2602 -0.7793
10532TIP3    H153087   2.045   2.225  10.586  1.0461  0.7941 -0.4220
10532TIP3    H253088   2.102   2.211  10.725 -0.9535  0.5878  0.4097
10533TIP3   OH253089   5.795   6.133   2.727 -0.3614 -0.1913 -0.7135
10533TIP3    H153090   5.716   6.174   2.693 -0.1295  0.2695 -0.7070
10533TIP3    H253091   5.772   6.107   2.816 -0.0776  1.2409 -0.1906
10534TIP3   OH253092   5.984   6.730  15.465 -0.3913 -0.6207 -0.6426
10534TIP3    H153093   6.036   6.798  15.422 -0.3378  0.0533  0.4761
10534TIP3    H253094   5.893   6.757  15.452 -0.4002 -0.7298 -0.8226
10535TIP3   OH253095   0.303   1.855  13.335 -0.0017 -0.1133 -0.4574
10535TIP3    H153096   0.346   1.940  13.347  0.1369 -0.1012 -1.0054
10535TIP3    H253097   0.323   1.831  13.245 -1.2851 -0.0293 -0.7860
10536TIP3   OH253098   3.718   3.317   2.125 -0.3340 -0.2596  0.2080
10536TIP3    H153099   3.758   3.230   2.123 -0.5217 -0.4068  1.6603
10536TIP3    H253100   3.658   3.313   2.200 -0.0329  1.2386  0.5508
10537TIP3   OH253101   2.138   6.104   2.884  0.1608  0.1409  0.1479
10537TIP3    H153102   2.153   6.164   2.811  0.1353 -0.1298 -0.0804
10537TIP3    H253103   2.086   6.032   2.847 -1.3658  0.8438  0.8248
10538TIP3   OH253104   3.662   5.840  11.268  0.1400 -0.2285  0.3690
10538TIP3    H153105   3.627   5.875  11.186  0.6459 -0.3454  0.0986
10538TIP3    H253106   3.626   5.897  11.335  1.7508  1.4821 -0.1296
10539TIP3   OH253107   0.206   5.714  13.174 -0.2306  0.1587 -0.3486
10539TIP3    H153108   0.198   5.795  13.124  0.5813  1.2733  1.2421
10539TIP3    H253109   0.294   5.717  13.212 -1.0427 -0.2650  1.7063
10540TIP3   OH253110   5.694   5.863  12.976 -0.0060  0.5042 -0.0018
10540TIP3    H153111   5.690   5.913  13.057 -0.4988 -0.2711  0.4652
10540TIP3    H253112   5.699   5.771  13.005  3.0751  0.3347 -0.7757
10541TIP3   OH253113   3.264   4.798   2.452 -0.0026  0.6138  0.3173
10541TIP3    H153114   3.235   4.825   2.365 -1.9369 -1.0236  0.3856
10541TIP3    H253115   3.346   4.752   2.436 -2.1112 -3.0287 -1.3051
10542TIP3   OH253116   4.229   0.998  13.572  0.1292 -0.0669 -0.2181
10542TIP3    H153117   4.311   0.949  13.568 -0.5387 -1.1870 -0.6606
10542TIP3    H253118   4.210   1.020  13.481  0.3289  0.8744 -0.0404
10543TIP3   OH253119   4.528   3.813  11.454  0.5585 -0.3503  0.4713
10543TIP3    H153120   4.459   3.869  11.419  0.6580  0.2871  1.2925
10543TIP3    H253121   4.597   3.816  11.387  0.3373  0.0666  0.2588
10544TIP3   OH253122   1.464   3.964  13.979  0.0714 -0.1316 -0.1618
10544TIP3    H153123   1.422   3.953  14.064 -2.7532 -1.9019 -1.6265
10544TIP3    H253124   1.539   3.905  13.982  1.6182  1.7645  1.9075
10545TIP3   OH253125   2.143   5.642  16.075 -0.3133  0.0016 -0.1263
10545TIP3    H153126   2.063   5.642  16.127 -1.0399  1.5817 -1.1623
10545TIP3    H253127   2.114   5.614  15.988  0.3707  0.0396 -0.3686
10546TIP3   OH253128   2.114   4.063  14.828 -0.5932  0.2838 -0.4666
10546TIP3    H153129   2.192   4.087  14.879  0.2727  0.7754 -1.9656
10546TIP3    H253130   2.052   4.031  14.894  0.0223  2.0183  1.0582
10547TIP3   OH253131   0.868   3.651   0.240 -0.5440 -0.3252 -0.1879
10547TIP3    H153132   0.856   3.745   0.248 -1.1127 -0.4289  0.2598
10547TIP3    H253133   0.902   3.638   0.152  1.1611  0.4377  0.3242
10548TIP3   OH253134   4.692   5.583   5.741  0.0653 -0.1043  0.5917
10548TIP3    H153135   4.780   5.590   5.777  0.2674 -0.5045  0.1865
10548TIP3    H253136   4.661   5.674   5.736  0.0132 -0.0480  1.7954
10549TIP3   OH253137   2.299   6.281  14.273  0.2907  0.4117 -0.0576
10549TIP3    H153138   2.282   6.217  14.342 -2.4668  0.2083 -0.8085
10549TIP3    H253139   2.352   6.349  14.315  1.5654 -1.3317  1.2968
10550TIP3   OH253140   1.478   5.954  12.575 -0.1789 -0.2712  0.3352
10550TIP3    H153141   1.460   5.922  12.487 -0.7017 -1.3447  0.8103
10550TIP3    H253142   1.394   5.948  12.620  0.1546 -0.0520  1.0009
10551TIP3   OH253143   5.825   6.145  14.014  0.3791  0.4132 -0.2871
10551TIP3    H153144   5.808   6.164  13.922  1.8914  1.3188 -0.4178
10551TIP3    H253145   5.919   6.124  14.017  0.5264  1.1533  1.1493
10552TIP3   OH253146   0.783   1.335   2.718  0.0982 -0.1118  0.0378
10552TIP3    H153147   0.691   1.314   2.732  0.0733 -0.2382 -0.3242
10552TIP3    H253148   0.794   1.340   2.623  0.5393 -0.4341  0.0677
10553TIP3   OH253149   0.970   5.038  10.982  0.2712  0.0953  0.3229
10553TIP3    H153150   1.017   5.035  10.899  0.8120 -0.0428  0.6325
10553TIP3    H253151   1.037   5.025  11.049 -0.2346 -0.3453  0.7611
10554TIP3   OH253152   0.400   0.438  13.423 -0.1337 -0.2477  0.1407
10554TIP3    H153153   0.461   0.431  13.497 -0.2225 -1.3559  0.1314
10554TIP3    H253154   0.403   0.351  13.382  0.8718  0.7089 -1.9287
10555TIP3   OH253155   1.168   3.433   4.080  0.4241  0.4421 -0.1688
10555TIP3    H153156   1.207   3.390   4.156  0.5294  1.7707  0.5556
10555TIP3    H253157   1.073   3.427   4.096  0.4334  3.1231  1.5482
10556TIP3   OH253158   5.181   5.680  15.450 -0.3590 -0.5051 -0.5772
10556TIP3    H153159   5.183   5.706  15.542 -1.7692 -1.5395 -0.2150
10556TIP3    H253160   5.101   5.719  15.416  1.0744  1.4401 -1.9160
10557TIP3   OH253161   5.312   4.379   1.833 -0.0607  0.4612  0.5662
10557TIP3    H153162   5.335   4.386   1.740  0.9877  1.9186  0.8971
10557TIP3    H253163   5.254   4.303   1.838  1.4852 -0.8839 -0.9466
10558TIP3   OH253164   2.020   5.898  11.750  0.0334 -0.2944  0.0970
10558TIP3    H153165   2.005   5.823  11.807 -1.4291  0.5069  0.8279
10558TIP3    H253166   2.057   5.965  11.808  0.4110 -0.1174 -0.3373
10559TIP3   OH253167   2.846   6.798  11.746 -0.1343 -0.0634  0.5452
10559TIP3    H153168   2.785   6.736  11.784  1.3120 -1.0285  1.4009
10559TIP3    H253169   2.922   6.745  11.722  0.2042  1.0118 -0.9316
10560TIP3   OH253170   6.759   6.697  11.548  0.2015 -0.2513 -0.0601
10560TIP3    H153171   6.669   6.674  11.571  0.0674 -0.6440 -0.9409
10560TIP3    H253172   6.794   6.740  11.626 -0.2629 -1.4459  0.8357
10561TIP3   OH253173   0.476   4.651   1.731  0.0192 -0.2324  0.0345
10561TIP3    H153174   0.561   4.677   1.696  0.0996 -1.3921 -0.6759
10561TIP3    H253175   0.496   4.579   1.791 -0.5632 -1.4277 -1.1604
10562TIP3   OH253176   1.242   5.762  14.564  0.2311 -0.6091  0.1376
10562TIP3    H153177   1.177   5.694  14.586  0.6611 -1.3282 -0.7549
10562TIP3    H253178   1.194   5.844  14.572 -0.1199 -0.9493  1.9185
10563TIP3   OH253179   6.677   1.482  12.591  0.0757  0.6544  0.1856
10563TIP3    H153180   6.631   1.545  12.645  0.1573  1.9865 -1.2305
10563TIP3    H253181   6.693   1.528  12.508  0.3407 -1.1342 -0.8191
10564TIP3   OH253182   2.582   1.178   2.926  0.3732  0.1539 -0.3381
10564TIP3    H153183   2.601   1.093   2.966 -0.4466  0.5234  0.8973
10564TIP3    H253184   2.488   1.188   2.935  0.4012  1.0041 -0.8787
10565TIP3   OH253185   5.740   3.532  11.950 -0.1602 -0.4666  0.3732
10565TIP3    H153186   5.718   3.494  11.865 -0.8226 -1.7604  1.0940
10565TIP3    H253187   5.656   3.547  11.992  0.1653  0.0467  0.8533
10566TIP3   OH253188   4.476   2.829  12.734  0.0219  0.4933 -0.0277
10566TIP3    H153189   4.437   2.893  12.794  1.8623  1.0353  0.6696
10566TIP3    H253190   4.494   2.753  12.789 -1.3201 -0.3196 -0.6619
10567TIP3   OH253191   6.778   2.054  11.677  0.3920  0.2311  0.3181
10567TIP3    H153192   6.731   2.127  11.637  1.1392  0.0147 -1.0220
10567TIP3    H253193   6.860   2.093  11.710  0.2478  0.2109  0.7099
10568TIP3   OH253194   5.530   4.068   3.255 -1.1776  0.4806 -0.5653
10568TIP3    H153195   5.561   3.978   3.263 -1.0142  0.6991  2.2467
10568TIP3    H253196   5.448   4.070   3.304 -0.9973  1.9102 -0.2744
10569TIP3   OH253197   0.044   0.349   5.135 -0.2698  0.5391  0.3243
10569TIP3    H153198   0.128   0.304   5.124 -0.2423  0.3370  1.2739
10569TIP3    H253199   0.004   0.307   5.212 -0.5357  1.6945  0.8359
10570TIP3   OH253200   2.800   4.515   1.153 -0.0103 -0.1875  0.4100
10570TIP3    H153201   2.743   4.548   1.223  1.1632 -0.1312  1.3795
10570TIP3    H253202   2.792   4.580   1.083 -0.4330  0.2913  0.8947
10571TIP3   OH253203   2.697   6.349  11.201  0.1640  0.1176  0.9385
10571TIP3    H153204   2.782   6.344  11.158  0.1313  0.2412  0.8589
10571TIP3    H253205   2.635   6.315  11.137 -0.1020  1.7675  0.2743
10572TIP3   OH253206   0.401   0.998  15.900  0.6200  0.2016  0.0286
10572TIP3    H153207   0.339   1.006  15.973 -0.4564  0.3121 -0.8855
10572TIP3    H253208   0.475   1.054  15.926 -0.1694  1.0157  0.5949
10573TIP3   OH253209   3.447   4.209   2.850 -0.3775  0.1748  0.1211
10573TIP3    H153210   3.394   4.261   2.789  0.0828 -0.2583 -0.6688
10573TIP3    H253211   3.536   4.242   2.838  0.1522 -1.6328 -1.3653
10574TIP3   OH253212   3.232   5.532  16.253  0.1410 -0.2884 -0.1109
10574TIP3    H153213   3.163   5.541  16.319  0.3678 -2.5697  0.5453
10574TIP3    H253214   3.204   5.588  16.181 -2.2084 -0.8336  0.3020
10575TIP3   OH253215   0.618   2.272  11.572 -0.0706  0.2480 -0.1246
10575TIP3    H153216   0.594   2.183  11.544 -0.8745  0.2173  0.6362
10575TIP3    H253217   0.591   2.276  11.663 -1.0940  1.6581 -0.4647
10576TIP3   OH253218   1.649   2.601   5.807  0.2194 -0.0710  0.2741
10576TIP3    H153219   1.595   2.680   5.798  0.2730  0.0373  0.8609
10576TIP3    H253220   1.622   2.562   5.890  0.8085 -0.1949  0.4166
10577TIP3   OH253221   1.456   5.927   1.209  0.0010 -0.5911 -0.2248
10577TIP3    H153222   1.417   5.923   1.121  2.2047  1.1770 -1.4102
10577TIP3    H253223   1.433   6.014   1.242  1.4056 -0.1636 -0.2673
10578TIP3   OH253224   4.394   6.567   2.245 -0.0673  0.0876  0.2742
10578TIP3    H153225   4.416   6.555   2.153  0.0063  0.1649  0.2815
10578TIP3    H253226   4.304   6.535   2.253  0.9167 -2.9101  0.7829
10579TIP3   OH253227   0.142   3.357  11.442 -0.1171 -0.8735  0.5816
10579TIP3    H153228   0.227   3.322  11.417 -0.8869 -1.1554 -1.9095
10579TIP3    H253229   0.106   3.291  11.501  1.9557  0.0231  3.0660
10580TIP3   OH253230   1.233   3.820   4.469  0.0009  0.2182  0.1443
10580TIP3    H153231   1.153   3.858   4.506 -0.3090  2.1037 -2.1577
10580TIP3    H253232   1.201   3.763   4.399  0.6055  1.2906 -1.0543
10581TIP3   OH253233   2.681   5.812   5.260 -0.0413 -0.0243  0.4061
10581TIP3    H153234   2.683   5.870   5.337  0.8078  0.6198 -0.0838
10581TIP3    H253235   2.667   5.871   5.186 -0.7808 -0.6364  0.0548
10582TIP3   OH253236   5.762   6.404   5.998 -0.4362  0.5069  0.2175
10582TIP3    H153237   5.817   6.401   5.920  0.4235  0.5300  0.8050
10582TIP3    H253238   5.824   6.404   6.071 -1.2278 -0.3391  0.9226
10583TIP3   OH253239   5.259   3.257   3.298  0.1926 -0.2799 -0.0237
10583TIP3    H153240   5.242   3.288   3.209 -0.2143 -2.3951 -0.7428
10583TIP3    H253241   5.354   3.264   3.308  0.2779 -0.3092 -0.7494
10584TIP3   OH253242   0.673   2.927   1.025 -0.2419  0.3737  0.0777
10584TIP3    H153243   0.650   2.834   1.018  1.0581 -0.2471  2.5473
10584TIP3    H253244   0.632   2.955   1.107 -0.2963  1.8928 -0.4429
10585TIP3   OH253245   6.255   5.952   1.325  0.1707 -0.0052  0.2830
10585TIP3    H153246   6.262   5.934   1.232  0.8098  1.6719 -0.0217
10585TIP3    H253247   6.260   5.866   1.367  0.1754 -0.7457 -1.2023
10586TIP3   OH253248   4.017   3.281   4.104  0.4620  0.0375 -0.2380
10586TIP3    H153249   4.076   3.207   4.098 -0.2616 -0.4311 -2.0074
10586TIP3    H253250   3.940   3.256   4.054 -0.4854  1.3633  0.4610
10587TIP3   OH253251   3.794   6.666  16.735  0.2671  0.4118  0.2957
10587TIP3    H153252   3.820   6.614  16.658 -3.8787  2.1767 -2.6639
10587TIP3    H253253   3.850   6.743  16.731  0.4335  0.2542 -0.6861
10588TIP3   OH253254   1.490   2.064  13.501  0.7302  0.9203 -0.0490
10588TIP3    H153255   1.474   1.969  13.501  0.0473  1.0263  0.3540
10588TIP3    H253256   1.529   2.082  13.416 -0.6570  0.5240 -0.8079
10589TIP3   OH253257   2.703   0.569  16.455 -0.4933 -0.2592  0.0207
10589TIP3    H153258   2.637   0.533  16.396  0.2403 -1.1103 -0.3008
10589TIP3    H253259   2.711   0.504  16.525 -2.5429  1.4689  2.0383
10590TIP3   OH253260   4.359   0.848  16.461 -0.0335  1.0030  0.2552
10590TIP3    H153261   4.340   0.777  16.399  1.7650  0.1138  0.6640
10590TIP3    H253262   4.388   0.921  16.405 -0.7975  1.0703 -0.0798
10591TIP3   OH253263   5.900   1.190  12.065 -0.3551 -0.1951 -0.0826
10591TIP3    H153264   5.819   1.204  12.017  0.7028  1.5609 -1.4939
10591TIP3    H253265   5.899   1.256  12.135  0.7736  1.3938 -1.4684
10592TIP3   OH253266   2.969   6.272  14.249  0.0784 -0.2839 -0.1368
10592TIP3    H153267   3.030   6.322  14.303 -0.2113 -2.3350  2.2772
10592TIP3    H253268   2.908   6.337  14.215 -0.4293  1.0625  3.0305
10593TIP3   OH253269   1.615   1.051  12.858  0.0759 -0.4172  0.4221
10593TIP3    H153270   1.648   0.966  12.888  0.7410 -0.8534 -1.4556
10593TIP3    H253271   1.669   1.073  12.783 -1.3846  0.7191 -0.3442
10594TIP3   OH253272   6.261   5.104  17.101  0.0869  0.0418  0.2612
10594TIP3    H153273   6.314   5.026  17.115 -0.1778  0.0686  1.5771
10594TIP3    H253274   6.265   5.151  17.185 -3.0449 -0.6099  0.8938
10595TIP3   OH253275   1.217   5.968  15.706 -0.4049 -0.3435 -0.5661
10595TIP3    H153276   1.160   6.030  15.751  2.0056  0.3698  1.7980
10595TIP3    H253277   1.241   5.904  15.773  0.8608 -1.1350 -1.7115
10596TIP3   OH253278   1.977   2.249  14.710 -0.1118  0.1225  0.0013
10596TIP3    H153279   2.031   2.220  14.784 -0.4491 -1.0684 -0.1990
10596TIP3    H253280   1.888   2.226  14.736 -0.4423  1.3257 -0.0235
10597TIP3   OH253281   2.921   0.498   4.440  0.6248 -0.3196  0.5943
10597TIP3    H153282   2.917   0.567   4.507  2.0807 -0.8662  1.2882
10597TIP3    H253283   2.829   0.480   4.419  0.1019  3.9031 -1.8558
10598TIP3   OH253284   4.256   3.480  15.493  0.0087 -0.1701  0.0796
10598TIP3    H153285   4.162   3.490  15.508  0.4273  1.4347  2.0191
10598TIP3    H253286   4.291   3.569  15.500  1.5586 -0.5690 -1.7895
10599TIP3   OH253287   6.396   2.375  11.784 -0.0981 -0.0828  0.0510
10599TIP3    H153288   6.357   2.420  11.859 -3.8486 -0.8776 -1.1822
10599TIP3    H253289   6.394   2.440  11.714  1.5223  0.0403  0.0813
10600TIP3   OH253290   0.003   1.096  11.056 -0.0850  0.0779 -0.0560
10600TIP3    H153291  -0.025   1.156  10.987 -2.1201 -0.0992  0.5507
10600TIP3    H253292  -0.077   1.072  11.102  1.0227 -0.9507  1.4752
10601TIP3   OH253293   2.601   4.383   2.074 -0.2901 -0.0631 -0.1766
10601TIP3    H153294   2.655   4.434   2.134 -2.4334  1.1417  0.8396
10601TIP3    H253295   2.540   4.446   2.036 -1.8654 -1.5351 -0.2512
10602TIP3   OH253296   3.651   1.094  12.884  0.1571  0.6895 -0.4967
10602TIP3    H153297   3.732   1.147  12.883  1.4800 -1.2251 -0.3215
10602TIP3    H253298   3.601   1.129  12.958  0.3784  2.5030 -1.1483
10603TIP3   OH253299   1.173   4.567  13.862  0.6881  0.3499  0.1353
10603TIP3    H153300   1.110   4.560  13.933  1.7829  0.0092  1.1169
10603TIP3    H253301   1.168   4.658  13.835  0.0035  0.4008  0.4092
10604TIP3   OH253302   0.773   5.665  13.205 -0.1048 -0.1217 -0.5676
10604TIP3    H153303   0.819   5.718  13.139  0.0769  0.6825  0.1871
10604TIP3    H253304   0.831   5.668  13.281 -0.8089 -0.1814 -0.0313
10605TIP3   OH253305   2.557   3.331   0.333  0.8940  0.0523 -0.4320
10605TIP3    H153306   2.517   3.267   0.392 -0.3468 -1.0108 -2.3144
10605TIP3    H253307   2.534   3.300   0.245  1.9086  2.0411 -1.4643
10606TIP3   OH253308   5.657   6.543  14.888 -0.9398 -0.2414  0.5128
10606TIP3    H153309   5.586   6.487  14.854  0.9306 -2.5651  0.1625
10606TIP3    H253310   5.731   6.525  14.830  0.6502  0.2085  2.3038
10607TIP3   OH253311   0.372   0.123   2.167 -0.4175  0.6104  0.3364
10607TIP3    H153312   0.397   0.133   2.259  0.1717  0.5724  0.1845
10607TIP3    H253313   0.437   0.063   2.130 -2.1127 -1.4269  0.4812
10608TIP3   OH253314   6.779   1.656   4.203 -0.1803  0.4916  0.4725
10608TIP3    H153315   6.794   1.723   4.136 -0.0462 -0.9026 -0.9195
10608TIP3    H253316   6.866   1.630   4.232 -0.0972 -0.9866 -0.9617
10609TIP3   OH253317   3.576   5.815   2.455 -0.1899 -0.4306 -0.3745
10609TIP3    H153318   3.581   5.906   2.485 -0.7271 -1.0814  1.9030
10609TIP3    H253319   3.647   5.808   2.391 -0.0914  1.5650 -0.5660
10610TIP3   OH253320   5.764   2.203  14.740 -0.2163  0.0321 -0.0397
10610TIP3    H153321   5.839   2.145  14.723  0.9270  1.4562 -0.0147
10610TIP3    H253322   5.692   2.163  14.692  1.0428 -0.2923 -1.7553
10611TIP3   OH253323   1.454   4.275   0.770 -0.1336 -0.5019 -0.0397
10611TIP3    H153324   1.521   4.258   0.704  1.6973 -1.4431  1.9312
10611TIP3    H253325   1.443   4.370   0.769 -0.0458 -0.4800 -1.5547
10612TIP3   OH253326   0.452   5.195  12.323 -0.1585 -0.1162 -0.4085
10612TIP3    H153327   0.431   5.126  12.260 -0.1741  1.3886 -2.1266
10612TIP3    H253328   0.366   5.223  12.356 -0.1632 -0.7490  0.1488
10613TIP3   OH253329   6.793   0.584  11.618 -1.2002  0.2065 -0.0839
10613TIP3    H153330   6.857   0.513  11.612 -1.7507 -0.2955 -0.1795
10613TIP3    H253331   6.845   0.663  11.628 -0.5803 -0.2751  0.6250
10614TIP3   OH253332   2.608   4.331   1.769  0.4747 -0.1645 -0.0178
10614TIP3    H153333   2.591   4.377   1.852 -0.8977 -0.0978 -0.3166
10614TIP3    H253334   2.692   4.287   1.783  1.6217  2.0330  0.4511
10615TIP3   OH253335   5.402   4.883  15.097 -0.1706  0.0319 -0.4755
10615TIP3    H153336   5.411   4.920  15.185 -0.6356 -1.3589  0.1835
10615TIP3    H253337   5.430   4.953  15.039  1.1670  0.6341  0.8217
10616TIP3   OH253338   3.417   6.284  14.083 -0.3051  0.0349 -0.8965
10616TIP3    H153339   3.398   6.199  14.122 -0.4939  0.2873 -0.4233
10616TIP3    H253340   3.404   6.347  14.155  2.2912  0.2377 -0.4951
10617TIP3   OH253341   4.541   4.657  15.995  0.2599  0.1189  0.0585
10617TIP3    H153342   4.450   4.686  16.004  0.3171  1.1906 -2.0617
10617TIP3    H253343   4.592   4.725  16.039  0.1016  0.2935 -0.0225
10618TIP3   OH253344   6.798   3.601   3.153 -0.1515 -0.4523 -0.1982
10618TIP3    H153345   6.721   3.544   3.155  0.0135 -0.6859  1.4210
10618TIP3    H253346   6.792   3.648   3.070 -2.2822 -0.1326  0.0851
10619TIP3   OH253347   0.278   4.416   0.008 -0.0603 -0.3642  0.5894
10619TIP3    H153348   0.290   4.503   0.047 -1.5428  0.3609 -0.4827
10619TIP3    H253349   0.245   4.434  -0.080 -2.7850 -2.0013  1.1599
10620TIP3   OH253350   4.376   4.986  11.067 -0.0094 -0.0645 -0.2283
10620TIP3    H153351   4.306   4.931  11.032 -0.0629  0.5848 -1.1491
10620TIP3    H253352   4.453   4.962  11.015  0.2123 -0.0078  0.0707
10621TIP3   OH253353   6.481   5.555  13.044 -0.4013  0.1729  0.0629
10621TIP3    H153354   6.513   5.464  13.046  0.7344  0.5067 -1.1807
10621TIP3    H253355   6.559   5.608  13.062 -0.4978  0.9716 -1.6644
10622TIP3   OH253356   5.137   1.888   1.982 -0.5616 -0.2400 -0.0357
10622TIP3    H153357   5.107   1.827   2.049 -1.1752  1.9502  1.8314
10622TIP3    H253358   5.226   1.911   2.007 -0.8300  0.6721  0.1423
10623TIP3   OH253359   0.334   1.247  16.615  0.0004  0.1974  0.0052
10623TIP3    H153360   0.242   1.218  16.614  0.7341 -2.4556  1.1458
10623TIP3    H253361   0.348   1.284  16.528 -1.5221 -1.5586 -1.0723
10624TIP3   OH253362   5.958   6.782   0.741  0.1224  0.1128  0.0846
10624TIP3    H153363   5.894   6.719   0.775  1.4033 -0.1516  2.2169
10624TIP3    H253364   5.950   6.857   0.801 -1.3173  2.0616 -2.3422
10625TIP3   OH253365   4.695   6.610   0.623 -0.0157 -0.2185  0.0446
10625TIP3    H153366   4.780   6.567   0.633 -0.4764 -0.9577  0.8841
10625TIP3    H253367   4.636   6.559   0.679 -1.2266 -0.3360 -1.2838
10626TIP3   OH253368   4.747   3.555   5.142 -0.8575 -0.6098  0.0915
10626TIP3    H153369   4.747   3.509   5.225 -2.6145 -1.3149 -0.2525
10626TIP3    H253370   4.727   3.646   5.165  2.5059  0.0736  0.7575
10627TIP3   OH253371   3.252   4.154  12.816 -0.3556  0.7093 -0.4871
10627TIP3    H153372   3.181   4.201  12.861 -1.2402 -0.6514 -0.4132
10627TIP3    H253373   3.283   4.090  12.880  0.7669  1.0827 -0.6287
10628TIP3   OH253374   3.563   0.543  14.401  0.4303  0.3421  0.8067
10628TIP3    H153375   3.595   0.455  14.381 -1.1127  0.2690 -1.8190
10628TIP3    H253376   3.468   0.535  14.398  0.1835  1.5972  3.2046
10629TIP3   OH253377   4.038   6.123   3.873  0.0149  0.5442  0.6675
10629TIP3    H153378   3.991   6.194   3.829  0.9426  0.6485 -0.1814
10629TIP3    H253379   4.003   6.043   3.833  0.7210  0.6310 -0.1556
10630TIP3   OH253380   5.791   1.740  15.620  0.1167 -0.7036  0.6543
10630TIP3    H153381   5.863   1.681  15.598  0.8355  0.3520  0.0834
10630TIP3    H253382   5.815   1.776  15.706 -1.3755 -2.8021  2.0456
10631TIP3   OH253383   2.685   2.088   0.281 -0.4225 -0.4392  0.4146
10631TIP3    H153384   2.778   2.065   0.285 -0.2861  0.1808  1.6007
10631TIP3    H253385   2.686   2.183   0.268 -0.8923 -0.4805  0.1010
10632TIP3   OH253386   2.755   0.622   2.721 -0.0499  0.0753  0.4577
10632TIP3    H153387   2.763   0.527   2.733 -0.5349  0.0678  0.7818
10632TIP3    H253388   2.839   0.649   2.686 -0.4924 -0.7281 -1.3168
10633TIP3   OH253389   1.382   1.124   2.418 -0.3830  0.0519 -0.0132
10633TIP3    H153390   1.464   1.170   2.431 -1.2227  1.4249  0.6165
10633TIP3    H253391   1.408   1.035   2.392  1.2733  0.5746 -0.2449
10634TIP3   OH253392   2.781   4.344  14.080 -0.6212 -0.2561  0.1768
10634TIP3    H153393   2.794   4.364  13.988 -1.2368  1.0985  0.3660
10634TIP3    H253394   2.845   4.399  14.126 -1.4331  0.3231  0.6393
10635TIP3   OH253395   6.323   2.698   5.292 -0.2961 -0.4864  0.7433
10635TIP3    H153396   6.299   2.716   5.201  0.3929 -0.1670  0.6161
10635TIP3    H253397   6.407   2.652   5.286 -0.7628 -1.4273  1.1807
10636TIP3   OH253398   1.428   3.370  13.894  0.2266  0.2364 -0.1986
10636TIP3    H153399   1.346   3.409  13.924  0.9405  0.4090  1.6373
10636TIP3    H253400   1.488   3.380  13.967  2.2986  1.2431 -1.9241
10637TIP3   OH253401   3.698   6.490   0.271  0.1500  0.1706 -0.4213
10637TIP3    H153402   3.605   6.468   0.265 -0.1665  1.4249 -0.3894
10637TIP3    H253403   3.706   6.575   0.226  0.8615  1.1617  1.4485
10638TIP3   OH253404   6.323   5.073  11.461 -0.3843  0.2630  0.3960
10638TIP3    H153405   6.325   4.995  11.405 -1.8312 -0.2917  1.0539
10638TIP3    H253406   6.368   5.140  11.411  2.8448 -1.4996  0.6529
10639TIP3   OH253407   0.895   5.564  12.361  0.3412  0.3642 -0.3564
10639TIP3    H153408   0.897   5.621  12.437  0.1603  0.3888 -0.3715
10639TIP3    H253409   0.954   5.606  12.298  0.7532  0.1697 -0.1069
10640TIP3   OH253410   3.291   1.262  16.966  0.1531  0.4587 -0.3736
10640TIP3    H153411   3.252   1.270  17.053  0.6413  3.1047 -0.3195
10640TIP3    H253412   3.376   1.219  16.982 -0.7952 -1.3671  0.0584
10641TIP3   OH253413   6.362   1.545   1.575 -0.3239  0.8227  0.3469
10641TIP3    H153414   6.455   1.523   1.576 -0.8910 -2.1848  2.4126
10641TIP3    H253415   6.339   1.546   1.482  1.3115 -0.9442 -0.1565
10642TIP3   OH253416   4.385   6.132  16.299  0.3527  0.6189  0.1680
10642TIP3    H153417   4.290   6.134  16.286  0.5056  0.2231 -1.1335
10642TIP3    H253418   4.396   6.117  16.393 -0.8516  2.4688  0.6638
10643TIP3   OH253419   4.151   6.412   5.868  0.0411  0.0108  0.2808
10643TIP3    H153420   4.092   6.402   5.942  0.0081 -0.3755  0.2032
10643TIP3    H253421   4.239   6.410   5.906  0.0977 -2.0047  0.1354
10644TIP3   OH253422   5.062   5.068  11.929 -0.3730  0.3709 -0.5658
10644TIP3    H153423   4.992   5.085  11.992  0.4492  0.2449  0.4046
10644TIP3    H253424   5.037   4.985  11.887 -2.1158  1.5989 -2.1239
10645TIP3   OH253425   5.978   1.815   0.621  0.6264 -0.3306  0.4033
10645TIP3    H153426   5.985   1.836   0.714  1.4881  0.2558  0.2270
10645TIP3    H253427   6.008   1.724   0.614 -1.2608 -1.0371  0.9243
10646TIP3   OH253428   3.450   0.712   1.056  0.5686 -0.0853  0.2147
10646TIP3    H153429   3.397   0.655   1.001  0.0816 -0.0085  0.6056
10646TIP3    H253430   3.537   0.709   1.016 -0.0121  0.8059 -1.1925
10647TIP3   OH253431   3.207   5.850   4.589  0.1526 -1.0885  0.1593
10647TIP3    H153432   3.205   5.766   4.634 -0.0674 -1.5982 -0.7840
10647TIP3    H253433   3.300   5.873   4.585  0.2021 -1.2103  0.5378
10648TIP3   OH253434   5.198   2.422  14.371 -0.1737  0.1819  0.2368
10648TIP3    H153435   5.203   2.327  14.369 -0.6330  0.1558 -0.7865
10648TIP3    H253436   5.257   2.451  14.302  0.8157  0.7050  1.2750
10649TIP3   OH253437   6.705   2.940  13.558 -0.4005 -0.1382  0.2806
10649TIP3    H153438   6.726   3.032  13.542  0.5010 -0.2117  0.9241
10649TIP3    H253439   6.775   2.910  13.616 -1.4291 -0.8763  1.1710
10650TIP3   OH253440   0.468   1.067  12.937 -0.0262  0.1088 -0.3982
10650TIP3    H153441   0.522   1.013  12.994 -2.7096 -1.8903  0.4302
10650TIP3    H253442   0.520   1.146  12.923  1.6701 -0.1734  3.1408
10651TIP3   OH253443   5.577   2.085  12.300  0.4120 -0.0086 -0.3503
10651TIP3    H153444   5.541   2.168  12.267  1.6898  1.0928  0.8942
10651TIP3    H253445   5.553   2.084  12.392  2.4114  0.1567  0.2140
10652TIP3   OH253446   1.512   6.237   1.538  0.2022 -0.1090  0.3068
10652TIP3    H153447   1.457   6.275   1.607  1.1252 -0.5678  1.3290
10652TIP3    H253448   1.583   6.300   1.527 -0.1151  0.1194 -0.4756
10653TIP3   OH253449   2.421   5.613  11.538 -0.4135 -0.5092 -0.0860
10653TIP3    H153450   2.373   5.663  11.604  1.2698 -0.8593  1.5133
10653TIP3    H253451   2.434   5.527  11.579 -1.2469 -1.4972 -1.8204
10654TIP3   OH253452   2.470   5.496   1.986 -0.1785  0.7531  0.1581
10654TIP3    H153453   2.508   5.490   2.074  0.5077 -4.3616 -0.1662
10654TIP3    H253454   2.376   5.483   2.000  0.1387 -2.0814  0.1847
10655TIP3   OH253455   2.913   6.401  16.345 -0.1022 -0.6095 -0.1761
10655TIP3    H153456   2.858   6.447  16.409 -1.2528  0.3129 -1.7500
10655TIP3    H253457   2.971   6.346  16.398 -1.5951 -0.5536  1.6199
10656TIP3   OH253458   3.393   6.432   0.243  0.1757  0.1396 -0.1833
10656TIP3    H153459   3.355   6.520   0.240 -3.8620 -1.2432  2.1125
10656TIP3    H253460   3.359   6.389   0.165  1.5024  0.3205 -0.8885
10657TIP3   OH253461   4.643   1.979   3.814  0.7482 -0.4338 -0.3128
10657TIP3    H153462   4.587   2.026   3.752 -1.1931  0.2667  1.8390
10657TIP3    H253463   4.631   1.886   3.792 -0.3866 -0.2317 -0.5849
10658TIP3   OH253464   0.565   6.525   0.860 -0.4050 -0.5979  0.1529
10658TIP3    H153465   0.551   6.603   0.913 -0.0250 -0.9269  0.7515
10658TIP3    H253466   0.486   6.517   0.806  0.0787  0.8983 -0.8245
10659TIP3   OH253467   1.258   3.321   4.321 -0.5774 -0.4902  0.5902
10659TIP3    H153468   1.322   3.393   4.321 -0.5374 -0.4747 -1.2386
10659TIP3    H253469   1.198   3.342   4.393 -0.7837  1.6124 -0.1291
10660TIP3   OH253470   6.784   0.823  13.826 -0.0509  0.0565  0.1036
10660TIP3    H153471   6.758   0.752  13.767 -2.4053  1.4942 -0.7184
10660TIP3    H253472   6.857   0.866  13.782  0.8068 -1.2590  0.1837
10661TIP3   OH253473   2.877   2.706  13.380  0.2998 -0.4721 -0.4067
10661TIP3    H153474   2.850   2.615  13.372 -0.9632 -0.1946  0.3160
10661TIP3    H253475   2.801   2.756  13.349  0.4876  0.3359  0.3825
10662TIP3   OH253476   3.645   1.846  11.295 -0.9426  0.3848 -0.3077
10662TIP3    H153477   3.569   1.835  11.353 -0.1944 -2.1938  0.3220
10662TIP3    H253478   3.634   1.777  11.228  1.2513 -0.6793  0.3430
10663TIP3   OH253479   5.539   5.756   2.810  0.0909  0.0010  0.0659
10663TIP3    H153480   5.521   5.720   2.897 -0.6044  0.0085 -0.0726
10663TIP3    H253481   5.632   5.777   2.812  0.2618 -0.7619  0.5317
10664TIP3   OH253482   6.402   6.715   0.770 -0.9315 -0.5544 -0.1468
10664TIP3    H153483   6.401   6.810   0.762 -0.3125 -0.4410  1.0055
10664TIP3    H253484   6.465   6.686   0.704 -0.1397 -0.0661  0.3839
10665TIP3   OH253485   3.731   5.172   0.059 -0.4079 -0.0328  0.0840
10665TIP3    H153486   3.721   5.235   0.131 -1.4451 -0.5828  0.4392
10665TIP3    H253487   3.826   5.170   0.042 -0.0638 -0.3624  1.8570
10666TIP3   OH253488   5.673   1.934  15.454 -1.2122  0.1843 -0.0196
10666TIP3    H153489   5.611   1.886  15.400 -0.3712  0.3104 -1.1450
10666TIP3    H253490   5.698   1.872  15.523 -0.7069 -0.7627 -1.0172
10667TIP3   OH253491   1.462   0.327   4.986 -0.6410  0.4474  0.6239
10667TIP3    H153492   1.457   0.231   4.993 -1.4696  0.2641 -1.7153
10667TIP3    H253493   1.453   0.358   5.076  1.3278 -1.7070  1.6832
10668TIP3   OH253494   3.074   6.748   2.665 -0.3735 -0.2042 -0.0184
10668TIP3    H153495   2.990   6.781   2.633 -0.8534 -0.5406  0.8721
10668TIP3    H253496   3.136   6.772   2.596 -0.7192  2.2931  0.4424
10669TIP3   OH253497   6.366   5.671   1.355 -0.1484  0.5993  0.4816
10669TIP3    H153498   6.460   5.673   1.335 -0.0259  0.3206  1.0120
10669TIP3    H253499   6.331   5.600   1.300  0.0924  0.1819  0.8602
10670TIP3   OH253500   6.187   2.785   4.558  0.4616  0.7188 -0.7416
10670TIP3    H153501   6.165   2.876   4.539  0.7295  0.7408 -0.9535
10670TIP3    H253502   6.280   2.778   4.535  0.3004  0.2491 -1.2640
10671TIP3   OH253503   3.653   1.367   1.820 -0.7990  0.2045 -0.2996
10671TIP3    H153504   3.670   1.322   1.902 -0.3800  2.0615  0.6852
10671TIP3    H253505   3.563   1.344   1.798 -0.5555 -1.1828  0.0825
10672TIP3   OH253506   5.743   1.273   4.553 -0.1323 -0.4310 -0.0105
10672TIP3    H153507   5.770   1.192   4.511 -2.0112 -0.0968 -2.0250
10672TIP3    H253508   5.692   1.319   4.487  0.8182  2.4161  1.0626
10673TIP3   OH253509   1.693   6.202   1.116 -0.0270  0.1149  0.0098
10673TIP3    H153510   1.622   6.264   1.135 -0.6134 -0.9676  1.5470
10673TIP3    H253511   1.657   6.144   1.049 -0.5303 -0.2828  0.6123
10674TIP3   OH253512   1.004   4.963   3.652 -0.3099 -0.0101 -0.0929
10674TIP3    H153513   1.080   5.018   3.674 -2.2198  2.2736  1.3802
10674TIP3    H253514   1.017   4.938   3.561  1.3745  1.7916 -0.4105
10675TIP3   OH253515   0.625   4.592  11.072  0.3750 -0.1323  1.1176
10675TIP3    H153516   0.536   4.604  11.105  0.8041  0.2408  2.1757
10675TIP3    H253517   0.635   4.660  11.006 -0.2733 -0.4756  0.6430
10676TIP3   OH253518   3.276   2.661   5.335  0.1764  0.5417  0.2030
10676TIP3    H153519   3.203   2.719   5.315 -0.5651  0.1935  1.7678
10676TIP3    H253520   3.341   2.680   5.267  0.3774  3.8921  1.1426
10677TIP3   OH253521   1.612   1.129   5.522 -0.0379 -0.0879  0.4561
10677TIP3    H153522   1.664   1.204   5.551 -0.4971 -0.0868  1.3313
10677TIP3    H253523   1.653   1.101   5.441  0.7408  0.5054  0.6329
10678TIP3   OH253524   0.963   2.622   1.814 -1.2351 -0.1701 -0.0918
10678TIP3    H153525   1.009   2.561   1.755  1.1559 -0.1884  1.6667
10678TIP3    H253526   0.957   2.703   1.764  0.6422 -0.2143 -0.4517
10679TIP3   OH253527   5.007   5.254   4.897  0.0921 -0.9584  0.1466
10679TIP3    H153528   5.065   5.306   4.953 -0.0961  1.0397 -1.4145
10679TIP3    H253529   4.921   5.293   4.909  0.2327  0.2415 -2.3032
10680TIP3   OH253530   3.035   2.379  15.003  0.2390  0.1665 -0.3941
10680TIP3    H153531   2.996   2.464  14.984  0.2353  0.8520  2.2021
10680TIP3    H253532   2.961   2.320  15.014  0.2567 -0.4045 -2.8404
10681TIP3   OH253533   0.026   4.749  12.931 -1.0079 -0.2842 -0.1602
10681TIP3    H153534   0.079   4.818  12.969  0.9673 -0.4190 -2.4243
10681TIP3    H253535  -0.010   4.702  13.006  0.4526  1.0700  1.4716
10682TIP3   OH253536   6.272   5.612   2.921 -0.0248  0.9539  0.0153
10682TIP3    H153537   6.361   5.587   2.896  0.1589  1.4140  0.2153
10682TIP3    H253538   6.283   5.677   2.990 -0.5231  0.2584  0.7800
10683TIP3   OH253539   5.239   3.418  16.448 -0.0614  0.2020  0.4034
10683TIP3    H153540   5.193   3.500  16.462  0.9575  0.9714 -0.5812
10683TIP3    H253541   5.305   3.438  16.381 -0.5531 -1.6853 -0.7171
10684TIP3   OH253542   5.606   1.282  16.169  0.0152  0.4278 -0.1642
10684TIP3    H153543   5.600   1.234  16.086 -2.0952 -0.0099  0.1993
10684TIP3    H253544   5.684   1.247  16.211 -0.9752 -2.1153 -0.2921
10685TIP3   OH253545   2.806   4.424   2.912  0.3551 -0.0379  0.0482
10685TIP3    H153546   2.833   4.346   2.863 -0.4390 -0.1553 -0.2205
10685TIP3    H253547   2.868   4.492   2.885  1.8895 -0.8789  1.2846
10686TIP3   OH253548   2.292   2.247   4.638  0.6792  0.9065 -0.1677
10686TIP3    H153549   2.303   2.170   4.582 -0.8403 -0.9238  1.8382
10686TIP3    H253550   2.197   2.257   4.646  0.8585  1.6905  1.2388
10687TIP3   OH253551   6.630   2.196  17.109 -0.3059 -0.7834  0.0382
10687TIP3    H153552   6.698   2.166  17.169 -0.0284 -1.2731 -0.5174
10687TIP3    H253553   6.588   2.269  17.155  0.9543 -0.1080  0.1637
10688TIP3   OH253554   6.203   4.738   3.555 -0.6478 -0.1282  0.3798
10688TIP3    H153555   6.158   4.812   3.597  0.9216  1.5506 -0.7431
10688TIP3    H253556   6.236   4.685   3.628 -2.1994 -0.0158  1.2037
10689TIP3   OH253557   3.861   0.810   1.474  0.3827  0.2080 -0.1604
10689TIP3    H153558   3.772   0.776   1.475  0.8458 -1.2214 -2.4309
10689TIP3    H253559   3.913   0.744   1.520  0.9071 -1.2100 -2.6109
10690TIP3   OH253560   1.497   1.097   2.065 -0.3654 -0.3592 -0.3095
10690TIP3    H153561   1.419   1.059   2.024  0.3853 -0.7968 -1.3621
10690TIP3    H253562   1.530   1.027   2.122 -0.7462 -0.1680  0.1488
10691TIP3   OH253563   6.571   2.663  13.107  0.3267 -0.1721  0.2292
10691TIP3    H153564   6.500   2.710  13.151  1.3030  0.7871  0.8202
10691TIP3    H253565   6.620   2.622  13.178  0.8274 -0.1533 -0.1045
10692TIP3   OH253566   1.712   5.862   4.293  0.3144 -0.4613  0.4836
10692TIP3    H153567   1.711   5.784   4.237  1.2033  0.8993 -1.5769
10692TIP3    H253568   1.702   5.935   4.232  0.1766  1.0863  2.2644
10693TIP3   OH253569   1.462   1.530  15.084  0.0682 -0.2636 -0.0430
10693TIP3    H153570   1.425   1.507  14.999 -0.8700 -0.5362  0.4164
10693TIP3    H253571   1.555   1.541  15.068 -0.2760  0.9682 -1.3686
10694TIP3   OH253572   2.149   0.065  16.578  0.0796 -0.5210 -0.3640
10694TIP3    H153573   2.123  -0.015  16.532 -0.6894  0.4892 -1.7689
10694TIP3    H253574   2.066   0.108  16.600  0.4729 -0.3577  0.8519
10695TIP3   OH253575   2.224   1.097  13.744 -0.1489  0.4891 -0.7283
10695TIP3    H153576   2.133   1.067  13.744 -0.4973  1.4590 -1.5645
10695TIP3    H253577   2.217   1.192  13.734  0.9083  0.8234  1.3059
10696TIP3   OH253578   0.319   0.927   4.279  0.3560 -0.2975  0.0237
10696TIP3    H153579   0.330   0.927   4.183 -4.7452  0.4418 -0.8210
10696TIP3    H253580   0.281   0.842   4.299  0.3069 -0.0062  1.2429
10697TIP3   OH253581   3.686   4.127   5.591  0.0451  0.1120 -0.4272
10697TIP3    H153582   3.729   4.070   5.527  1.7248 -0.0423  0.7965
10697TIP3    H253583   3.595   4.130   5.562  0.6206 -0.4605 -2.4604
10698TIP3   OH253584   0.209   1.413  14.582 -0.5721 -0.5794 -0.7724
10698TIP3    H153585   0.283   1.378  14.533 -0.1032  0.0800 -0.5407
10698TIP3    H253586   0.167   1.335  14.620  0.4434 -0.9015 -0.2749
10699TIP3   OH253587   5.088   2.078   3.559  0.1446 -0.3151  0.4779
10699TIP3    H153588   5.063   2.054   3.470  1.2902 -0.2416  0.1160
10699TIP3    H253589   5.005   2.086   3.606 -0.4790 -0.3569 -0.5789
10700TIP3   OH253590   3.520   6.211  15.267  0.4550 -0.4672 -0.3845
10700TIP3    H153591   3.572   6.287  15.240  0.3571 -0.8990 -1.8484
10700TIP3    H253592   3.535   6.204  15.362  0.0855  1.6378 -0.1432
10701TIP3   OH253593   6.522   1.656  12.721  0.7938  0.3705 -0.2151
10701TIP3    H153594   6.566   1.738  12.698  0.6149  0.4997 -0.1005
10701TIP3    H253595   6.510   1.661  12.816  0.4890  0.3587 -0.2515
10702TIP3   OH253596   0.484   2.757   1.958 -0.2573  0.1079 -0.6115
10702TIP3    H153597   0.479   2.712   2.042  0.4149  0.1125 -0.5632
10702TIP3    H253598   0.440   2.841   1.973  2.0158  1.1870  0.4881
10703TIP3   OH253599   6.717   6.311   0.577  0.1044 -0.1332  0.5107
10703TIP3    H153600   6.722   6.312   0.673 -0.3943 -0.6630  0.5495
10703TIP3    H253601   6.757   6.228   0.552  2.8551  1.2038  0.0583
10704TIP3   OH253602   5.290   6.293  12.055  0.0048  0.5081  0.3045
10704TIP3    H153603   5.359   6.332  12.109 -0.2656  2.3149 -0.5611
10704TIP3    H253604   5.290   6.201  12.078  2.9124  0.3726  0.1345
10705TIP3   OH253605   2.312   1.138   4.977  0.0398 -0.0463 -0.0197
10705TIP3    H153606   2.240   1.196   4.952 -1.4397 -2.1126 -0.7738
10705TIP3    H253607   2.279   1.088   5.052  0.2708 -1.6686 -0.9483
10706TIP3   OH253608   3.857   4.788  16.057 -0.1543 -0.0176 -0.5223
10706TIP3    H153609   3.829   4.880  16.063  0.5872  0.2896 -1.5065
10706TIP3    H253610   3.952   4.792  16.063 -0.1062 -0.7019 -0.8043
10707TIP3   OH253611   3.126   4.058  14.339  0.0749  0.0309  0.3966
10707TIP3    H153612   3.159   3.974  14.372 -0.6781 -0.6867 -0.6263
10707TIP3    H253613   3.032   4.045  14.330  0.2717  0.0093 -2.4586
10708TIP3   OH253614   2.576   5.675  13.845  0.2663 -0.1165  0.2246
10708TIP3    H153615   2.555   5.584  13.827 -2.1109  0.2305  0.9055
10708TIP3    H253616   2.585   5.680  13.940  0.8640  0.2705  0.1533
10709TIP3   OH253617   1.738   0.086  16.714 -0.1859  0.3893  0.5410
10709TIP3    H153618   1.752   0.096  16.808 -1.3425  1.5591  0.6158
10709TIP3    H253619   1.809   0.136  16.674 -0.8821  1.6592  0.8377
10710TIP3   OH253620   5.445   1.817  15.276 -0.0770  0.1473 -0.3469
10710TIP3    H153621   5.466   1.727  15.301  0.1715 -0.4786 -2.5802
10710TIP3    H253622   5.357   1.812  15.238 -0.1107  0.8629 -0.3723
10711TIP3   OH253623   6.541   0.436  12.291 -1.1879 -0.1670 -0.4200
10711TIP3    H153624   6.480   0.433  12.217 -1.2557 -1.8106 -0.3453
10711TIP3    H253625   6.606   0.368  12.271 -1.1015 -0.5119  0.9196
10712TIP3   OH253626   4.632   1.628   2.198 -0.1765  0.1219  0.0384
10712TIP3    H153627   4.595   1.543   2.224  1.8284 -1.0987 -0.8544
10712TIP3    H253628   4.659   1.615   2.107  1.9665  1.0424  0.4839
10713TIP3   OH253629   0.762   0.320  13.243 -0.0847  0.1973 -0.0145
10713TIP3    H153630   0.852   0.349  13.223  0.7806 -1.9557  0.4660
10713TIP3    H253631   0.752   0.239  13.192 -1.4542 -0.0442  0.6083
10714TIP3   OH253632   2.334   6.210  16.209 -1.0282  0.1842 -0.9767
10714TIP3    H153633   2.414   6.158  16.198 -0.2813  0.6722  1.4303
10714TIP3    H253634   2.350   6.290  16.160  0.0641  0.3331 -0.4198
10715TIP3   OH253635   1.137   4.322   4.126  0.1696 -0.1738 -0.8051
10715TIP3    H153636   1.045   4.298   4.141 -0.3461  1.2395 -1.4391
10715TIP3    H253637   1.177   4.317   4.213 -0.2321 -1.8067 -0.6829
10716TIP3   OH253638   6.721   4.773   3.136  0.3266 -0.0126  0.6209
10716TIP3    H153639   6.682   4.687   3.153 -0.1691 -0.5796 -2.5805
10716TIP3    H253640   6.806   4.753   3.097 -0.6823  0.7336 -2.1924
10717TIP3   OH253641   4.764   1.598   3.356 -0.3000  0.5903 -0.0753
10717TIP3    H153642   4.761   1.575   3.263 -0.2579  0.2060  0.0158
10717TIP3    H253643   4.833   1.664   3.362  0.5942 -0.3270 -0.1250
10718TIP3   OH253644   4.387   1.009   2.809  0.4669 -0.4380  0.1886
10718TIP3    H153645   4.444   0.942   2.772 -0.5458 -0.4871 -1.4088
10718TIP3    H253646   4.417   1.090   2.768  2.0491  0.2650  2.5226
10719TIP3   OH253647   6.187   5.613   3.583 -0.1602 -0.9931 -0.3883
10719TIP3    H153648   6.232   5.620   3.498  0.5093 -0.4151 -0.0005
10719TIP3    H253649   6.146   5.527   3.581 -0.9749 -0.6092 -1.6951
10720TIP3   OH253650   5.169   5.793  17.192  0.3297 -0.0439 -0.2632
10720TIP3    H153651   5.136   5.869  17.240  1.9279  1.1335 -0.9576
10720TIP3    H253652   5.172   5.822  17.101  2.5064 -0.3517 -0.3284
10721TIP3   OH253653   0.840   0.598  14.245 -0.0124  0.3098 -0.0977
10721TIP3    H153654   0.776   0.567  14.310  0.8188 -0.0577  0.5585
10721TIP3    H253655   0.921   0.553  14.268  0.6474  1.2515 -0.5505
10722TIP3   OH253656   0.690   1.199   6.250  0.2149  0.2403 -0.1639
10722TIP3    H153657   0.645   1.283   6.259 -0.9857 -0.3850 -0.0898
10722TIP3    H253658   0.738   1.205   6.167 -1.4444  0.3180 -1.1719
10723TIP3   OH253659   4.662   6.287  14.827 -0.3963  0.1313 -0.3648
10723TIP3    H153660   4.701   6.374  14.837  0.5335  0.1200 -3.1037
10723TIP3    H253661   4.735   6.226  14.840 -0.1981 -0.0308 -1.9637
10724TIP3   OH253662   5.646   4.596   0.447 -0.2277 -0.2708  0.2580
10724TIP3    H153663   5.568   4.596   0.392  0.5711  0.0905 -0.9131
10724TIP3    H253664   5.702   4.528   0.409  0.6944  0.5670  0.0815
10725TIP3   OH253665   1.947   5.332  15.847 -0.3400 -0.0256  0.5113
10725TIP3    H153666   1.930   5.384  15.926  0.8243 -0.2936  0.9523
10725TIP3    H253667   1.897   5.376  15.779  0.6616  1.7502  0.8563
10726TIP3   OH253668   2.265   0.484  10.524 -0.5873 -0.5798  0.5891
10726TIP3    H153669   2.340   0.451  10.574 -0.3628  2.2669  2.3801
10726TIP3    H253670   2.291   0.573  10.498 -3.3815  0.6249  1.5144
10727TIP3   OH253671   3.898   3.105  12.467 -0.3992 -0.1359 -0.4083
10727TIP3    H153672   3.841   3.172  12.431 -0.0322 -0.3387 -1.3951
10727TIP3    H253673   3.878   3.026  12.416  0.2430 -0.3924 -0.2753
10728TIP3   OH253674   0.062   2.440  12.323  0.4425  0.7852  0.4615
10728TIP3    H153675   0.020   2.526  12.329 -1.2550  0.0655 -0.4552
10728TIP3    H253676   0.014   2.385  12.385 -0.0350 -0.0638 -0.6161
10729TIP3   OH253677   0.777   1.597  12.020 -0.2488  0.1307 -0.7397
10729TIP3    H153678   0.747   1.627  11.934 -1.5854 -0.4356 -0.5074
10729TIP3    H253679   0.809   1.508  12.005  1.4799  0.7736 -1.0052
10730TIP3   OH253680   4.211   5.679  12.480  0.5451  0.1608 -0.2469
10730TIP3    H153681   4.176   5.765  12.502 -0.4159  0.0855 -1.3564
10730TIP3    H253682   4.303   5.696  12.460  1.2281  0.3713  2.6450
10731TIP3   OH253683   2.505   0.450  12.220 -0.3844 -0.0872  0.0136
10731TIP3    H153684   2.548   0.430  12.136 -0.1350  2.1356 -0.4722
10731TIP3    H253685   2.441   0.517  12.198  0.1907  1.0836  1.6949
10732TIP3   OH253686   1.046   3.313  12.260 -0.0949  0.2454  0.3318
10732TIP3    H153687   1.139   3.322  12.241  0.2754  1.5718  2.4002
10732TIP3    H253688   1.042   3.304  12.356 -2.0738 -0.0854  0.2564
10733TIP3   OH253689   0.370   2.460   1.302 -0.6073 -0.0592  0.1530
10733TIP3    H153690   0.433   2.531   1.289  1.1023 -1.5167 -0.0957
10733TIP3    H253691   0.339   2.471   1.391 -0.9603  1.4178 -0.1276
10734TIP3   OH253692   1.138   1.482   2.110  0.0095  0.5409  0.3610
10734TIP3    H153693   1.184   1.398   2.110 -0.9219 -0.0002  1.4773
10734TIP3    H253694   1.206   1.547   2.090  1.0818 -0.3209  1.0941
10735TIP3   OH253695   0.475   0.580   0.029 -0.2452 -0.1772 -0.5210
10735TIP3    H153696   0.489   0.674   0.042  2.3337 -0.6268  0.5524
10735TIP3    H253697   0.563   0.544   0.020 -1.2237 -2.3870 -1.9980
10736TIP3   OH253698   1.509   5.165   4.627 -0.0551  0.3900 -0.3320
10736TIP3    H153699   1.581   5.102   4.621 -0.5587 -0.1809 -0.5322
10736TIP3    H253700   1.438   5.126   4.575  0.0883  1.8003 -1.6725
10737TIP3   OH253701   2.533   5.923  12.819 -0.4634 -0.1678 -0.2826
10737TIP3    H153702   2.525   5.830  12.840  0.9174 -0.1248  0.5764
10737TIP3    H253703   2.463   5.940  12.757 -0.4580 -1.8869 -0.8021
10738TIP3   OH253704   5.520   1.538  16.157 -0.9438 -0.2720  0.4182
10738TIP3    H153705   5.584   1.593  16.202 -1.0651 -1.6261  2.3421
10738TIP3    H253706   5.554   1.449  16.166 -1.5884 -0.7112 -1.1939
10739TIP3   OH253707   0.349   4.878  14.885  0.5082 -0.7688 -0.3661
10739TIP3    H153708   0.348   4.810  14.818  0.1874  0.1743 -1.3581
10739TIP3    H253709   0.352   4.831  14.968  1.8298 -1.9481 -1.0608
10740TIP3   OH253710   3.978   1.355   0.208  0.6965  0.4303 -0.3815
10740TIP3    H153711   3.997   1.436   0.256  0.2623  0.2375  0.1330
10740TIP3    H253712   3.979   1.380   0.116 -1.8055  1.5654 -0.1684
10741TIP3   OH253713   2.092   2.573   4.596  0.7465  0.4319 -0.3035
10741TIP3    H153714   2.022   2.588   4.532 -0.6712  1.8530  1.4960
10741TIP3    H253715   2.047   2.538   4.673  2.2086  0.2245  0.4895
10742TIP3   OH253716   3.628   4.771  15.683  0.3202  0.0821 -0.4910
10742TIP3    H153717   3.683   4.706  15.728 -1.2301  0.0600  1.4937
10742TIP3    H253718   3.539   4.738  15.693 -0.2849  1.2905 -1.6263
10743TIP3   OH253719   6.158   2.427   2.425 -0.4725 -0.0502 -0.0459
10743TIP3    H153720   6.117   2.384   2.350 -2.7121  1.7681  0.0059
10743TIP3    H253721   6.221   2.488   2.387 -0.8743  0.1404 -0.4225
10744TIP3   OH253722   2.799   0.956   3.067  0.2631 -0.0342  0.2633
10744TIP3    H153723   2.781   0.922   2.980 -0.7913  0.6116  0.2107
10744TIP3    H253724   2.888   0.991   3.061  0.5916 -0.9253 -0.2459
10745TIP3   OH253725   1.654   3.140   2.172  0.1353  0.4485  0.0175
10745TIP3    H153726   1.599   3.062   2.165 -0.9973  1.2394 -0.1205
10745TIP3    H253727   1.624   3.184   2.251 -0.1702  1.4470 -0.6344
10746TIP3   OH253728   5.772   0.222  12.796  0.2667  0.2100  0.1080
10746TIP3    H153729   5.720   0.185  12.867  2.4823 -0.9981  1.2211
10746TIP3    H253730   5.837   0.276  12.840 -0.3528  2.1560 -1.2659
10747TIP3   OH253731   0.782   4.404   0.522 -0.2330  0.2593  0.2566
10747TIP3    H153732   0.833   4.388   0.601 -1.2643  0.1221  0.9165
10747TIP3    H253733   0.741   4.489   0.536  2.2139  1.9055 -1.6113
10748TIP3   OH253734   1.960   5.399   2.423  0.0035  0.1367  0.0784
10748TIP3    H153735   1.888   5.416   2.484 -0.2420  0.8911 -0.4110
10748TIP3    H253736   1.964   5.303   2.418 -1.1248  0.0791 -0.0599
10749TIP3   OH253737   6.674   3.010  16.804  0.5232 -0.8747  0.5926
10749TIP3    H153738   6.655   2.994  16.711  1.0783 -0.1620  0.3456
10749TIP3    H253739   6.759   2.968  16.819  1.3511  0.6118  0.2770
10750TIP3   OH253740   2.665   5.428  11.614 -0.3941 -0.4069 -0.3869
10750TIP3    H153741   2.759   5.443  11.625 -0.0847 -1.5306 -1.3342
10750TIP3    H253742   2.660   5.347  11.565 -1.8795 -0.4316 -0.2177
10751TIP3   OH253743   3.961   2.379  14.700 -0.5749 -0.5967 -0.1544
10751TIP3    H153744   3.922   2.426  14.626  0.7727 -0.9507 -1.1375
10751TIP3    H253745   4.034   2.330  14.661  1.2675  0.5557  1.6747
10752TIP3   OH253746   0.292   4.063   0.162  0.4813 -0.4720 -0.4015
10752TIP3    H153747   0.385   4.064   0.188  0.3518 -1.0655  0.1046
10752TIP3    H253748   0.278   3.975   0.128 -0.2085 -0.7959  0.6838
10753TIP3   OH253749   0.622   6.426   2.461  0.1385  0.5644  0.3639
10753TIP3    H153750   0.643   6.377   2.381  0.7602  0.0233  0.8428
10753TIP3    H253751   0.545   6.478   2.438  0.4168  0.5489 -0.6371
10754TIP3   OH253752   2.709   2.859   4.937  0.0798  0.1731  0.1572
10754TIP3    H153753   2.771   2.870   4.865 -0.3782  0.0077 -0.2631
10754TIP3    H253754   2.669   2.774   4.922  2.7284 -1.7369  2.7138
10755TIP3   OH253755   0.067   5.487   0.431 -0.1186  0.0109 -0.2538
10755TIP3    H153756   0.062   5.391   0.431 -0.0291  0.0052 -0.5540
10755TIP3    H253757   0.014   5.514   0.506  3.2360 -0.4515  2.5642
10756TIP3   OH253758   5.357   5.501   5.908 -0.6113 -0.0810 -0.5834
10756TIP3    H153759   5.392   5.590   5.908 -0.0484 -0.3009 -0.7279
10756TIP3    H253760   5.431   5.445   5.932 -1.0241 -0.4894 -0.2247
10757TIP3   OH253761   1.813   6.135  12.319  0.3350  0.9351  0.1747
10757TIP3    H153762   1.872   6.065  12.292  1.4615  1.3063  1.5056
10757TIP3    H253763   1.813   6.197  12.246  0.3030  0.1468 -0.4998
10758TIP3   OH253764   5.313   3.115  14.050 -0.5027 -0.2434 -0.3509
10758TIP3    H153765   5.357   3.083  14.129  0.5012  1.5041 -0.1467
10758TIP3    H253766   5.241   3.169  14.083  0.6759  1.5203 -0.5570
10759TIP3   OH253767   5.508   0.259   3.361  0.2690 -0.0015 -0.7174
10759TIP3    H153768   5.531   0.350   3.381  0.9325 -0.1166 -0.9627
10759TIP3    H253769   5.458   0.264   3.280  0.7403  0.0956 -1.0030
10760TIP3   OH253770   3.855   2.291   6.851 -0.2935 -0.0583 -0.7080
10760TIP3    H153771   3.896   2.351   6.914  0.5054  1.3410 -2.4707
10760TIP3    H253772   3.913   2.215   6.850  0.6885  0.6686 -1.0388
10761TIP3   OH253773   3.131   1.837   3.899 -0.0316  0.1040  0.9723
10761TIP3    H153774   3.036   1.846   3.901  0.0961  1.8530  0.5650
10761TIP3    H253775   3.161   1.906   3.840  1.5121 -0.2246  1.3253
10762TIP3   OH253776   1.553   2.132   4.549  0.4546  0.3019  0.1369
10762TIP3    H153777   1.546   2.220   4.587  1.9002 -0.1109  1.4448
10762TIP3    H253778   1.480   2.083   4.586 -0.2705  0.8977 -0.4804
10763TIP3   OH253779   1.922   2.379   2.435 -0.0263  0.1112 -0.1280
10763TIP3    H153780   1.958   2.310   2.378 -1.4127  1.0090 -2.2517
10763TIP3    H253781   1.998   2.415   2.481  0.8065 -2.4478  0.6823
10764TIP3   OH253782   2.374   1.311   2.493  0.2834  0.3900 -0.0835
10764TIP3    H153783   2.345   1.223   2.520 -2.6671  1.3799  0.3511
10764TIP3    H253784   2.442   1.294   2.428 -0.1049 -2.2309  0.0551
10765TIP3   OH253785   4.299   5.326   0.244  0.1644 -0.0117 -0.3691
10765TIP3    H153786   4.377   5.368   0.282 -0.1025 -1.6632  2.2657
10765TIP3    H253787   4.237   5.397   0.233  1.3103  1.0020 -0.5663
10766TIP3   OH253788   1.852   2.000  12.497  0.0432 -0.2978 -0.4416
10766TIP3    H153789   1.816   1.989  12.409 -0.5421  0.2902 -0.2824
10766TIP3    H253790   1.775   2.000  12.555  0.4763 -1.6715  0.1846
10767TIP3   OH253791   3.874   1.452   2.798 -0.1783 -0.2471  0.4272
10767TIP3    H153792   3.948   1.506   2.824 -0.6824  0.4386  0.4786
10767TIP3    H253793   3.877   1.450   2.703  0.0962 -0.4943  0.4411
10768TIP3   OH253794   6.358   4.842   5.820  0.3571  0.1480  0.2574
10768TIP3    H153795   6.276   4.840   5.870  0.5812 -1.3382  0.6032
10768TIP3    H253796   6.349   4.771   5.756  0.8922  0.7478 -0.4998
10769TIP3   OH253797   1.005   4.829   5.438  0.4336  0.2072 -0.3139
10769TIP3    H153798   0.954   4.903   5.404  0.2189  0.7273  1.0768
10769TIP3    H253799   0.942   4.758   5.445  0.2882  0.3450 -0.2122
10770TIP3   OH253800   5.092   1.219  13.990  0.5818  0.2425  0.4493
10770TIP3    H153801   5.100   1.289  13.925  0.9593  1.0307  1.3156
10770TIP3    H253802   5.064   1.142  13.940  1.8138  0.5693 -0.8051
10771TIP3   OH253803   3.563   6.707   0.565  0.0499 -0.1366  0.0489
10771TIP3    H153804   3.656   6.690   0.574  0.0490 -0.5097 -0.6010
10771TIP3    H253805   3.556   6.774   0.497 -0.1112  0.5461  0.7195
10772TIP3   OH253806   2.537   0.108  17.045  0.1959 -0.2339 -0.3890
10772TIP3    H153807   2.505   0.186  17.090 -0.8312  0.1200 -1.6625
10772TIP3    H253808   2.630   0.125  17.031  0.0722  0.5768 -0.2710
10773TIP3   OH253809   5.308   0.991  12.740  0.6652  0.8655  0.1921
10773TIP3    H153810   5.286   1.027  12.826 -0.3335  2.9373 -0.8761
10773TIP3    H253811   5.272   0.902  12.742  0.2618  1.0379  1.7552
10774TIP3   OH253812   3.355   1.625   3.485  0.8356 -0.5376 -0.0794
10774TIP3    H153813   3.349   1.530   3.482  1.2566 -0.5656 -0.1979
10774TIP3    H253814   3.441   1.644   3.446  0.0851 -0.0141 -1.5571
10775TIP3   OH253815   3.962   5.509   6.167  0.3870  0.6317  0.3466
10775TIP3    H153816   4.015   5.585   6.189  1.0121  1.3357 -3.0155
10775TIP3    H253817   4.025   5.446   6.130 -0.0707 -1.7277  3.2069
10776TIP3   OH253818   6.072   3.577  16.134 -0.0220  0.3338  0.4745
10776TIP3    H153819   6.029   3.637  16.074  0.1979 -0.7583 -0.8304
10776TIP3    H253820   6.126   3.522  16.078 -0.7430 -1.5338  1.5245
10777TIP3   OH253821   0.063   1.075   0.748 -0.5478 -0.3356 -0.3974
10777TIP3    H153822  -0.021   1.116   0.766 -0.1016  0.2912  0.3021
10777TIP3    H253823   0.093   1.042   0.832 -0.2469 -0.8463 -0.6998
10778TIP3   OH253824   5.374   1.328   5.253 -0.1675  0.6910 -0.4267
10778TIP3    H153825   5.401   1.366   5.336 -1.3486  2.1251 -0.6526
10778TIP3    H253826   5.279   1.338   5.252 -0.4789 -1.6721 -0.8378
10779TIP3   OH253827   6.248   3.549   4.542 -0.1442  0.0605  0.2696
10779TIP3    H153828   6.189   3.488   4.499  0.5642  0.5650 -1.4779
10779TIP3    H253829   6.253   3.624   4.483  2.1698  0.0599  0.3695
10780TIP3   OH253830   1.023   1.995   0.207 -0.1021 -0.2218 -0.3145
10780TIP3    H153831   0.973   1.932   0.259 -0.6620 -1.7071 -2.5168
10780TIP3    H253832   0.968   2.073   0.205  0.4094  0.2738  2.1096
10781TIP3   OH253833   1.619   5.493   3.574  0.1824 -0.3312 -0.3250
10781TIP3    H153834   1.629   5.535   3.489  1.0418 -0.7665 -0.4534
10781TIP3    H253835   1.708   5.465   3.597  0.2676  1.2995  1.5235
10782TIP3   OH253836   3.314   2.420  12.720 -0.0326  0.2306 -0.6883
10782TIP3    H153837   3.402   2.394  12.745 -0.2936  0.4310  0.5312
10782TIP3    H253838   3.317   2.430  12.625  1.3542  0.6042 -0.6249
10783TIP3   OH253839   5.437   5.363  12.167  0.7076  0.1962 -0.3110
10783TIP3    H153840   5.475   5.283  12.202  0.9645  0.9402  1.1740
10783TIP3    H253841   5.507   5.402  12.114  0.6399 -0.4598 -0.8896
10784TIP3   OH253842   6.443   6.462  15.390  0.2067  0.1303  0.5126
10784TIP3    H153843   6.415   6.370  15.388 -0.8453  0.4205  0.9353
10784TIP3    H253844   6.538   6.458  15.387  0.2040 -1.0063  1.2605
10785TIP3   OH253845   0.719   1.624   6.293 -0.8317 -0.0955  0.3179
10785TIP3    H153846   0.642   1.572   6.270 -1.0767  0.2472  0.3534
10785TIP3    H253847   0.784   1.560   6.320 -0.7263 -0.4659 -0.7667
10786TIP3   OH253848   4.307   5.977   0.858 -0.2297  0.1703 -0.0716
10786TIP3    H153849   4.313   6.020   0.772  0.7301 -0.5180 -0.3659
10786TIP3    H253850   4.254   6.037   0.911 -0.7047  0.6830 -1.0938
10787TIP3   OH253851   0.492   0.978   3.499  0.6805  0.0725 -0.5686
10787TIP3    H153852   0.545   1.053   3.527  0.2270 -0.1679  1.0224
10787TIP3    H253853   0.555   0.908   3.484  0.9772  0.3654 -0.7180
10788TIP3   OH253854   2.125   0.936  16.715  0.5472 -0.5172 -0.0101
10788TIP3    H153855   2.034   0.953  16.692  0.3003 -1.0793  0.5152
10788TIP3    H253856   2.170   0.923  16.631  0.2381  0.2138 -0.2899
10789TIP3   OH253857   0.016   0.801  15.276 -0.7162 -0.4040  0.2592
10789TIP3    H153858  -0.002   0.770  15.187 -0.7934  0.0371  0.1199
10789TIP3    H253859  -0.047   0.755  15.331  0.3693 -1.9219  0.3186
10790TIP3   OH253860   4.515   6.066   1.479  0.5008 -0.5095 -0.3606
10790TIP3    H153861   4.610   6.078   1.484  0.3331  0.6005  0.6940
10790TIP3    H253862   4.503   5.996   1.416  1.8546  1.8031 -3.4876
10791TIP3   OH253863   6.570   4.728   4.957 -0.7513  0.1970 -0.1471
10791TIP3    H153864   6.650   4.771   4.929 -0.7252  0.7157  0.7049
10791TIP3    H253865   6.529   4.698   4.875 -0.4520  1.2632 -0.7077
10792TIP3   OH253866   5.618   0.078   1.340  0.2853 -0.1237 -0.4137
10792TIP3    H153867   5.615  -0.000   1.284  2.4098 -2.1518  2.0489
10792TIP3    H253868   5.551   0.061   1.407 -0.9501  1.4130 -1.1974
10793TIP3   OH253869   6.823   4.343  10.755  0.0159 -0.1338 -0.1970
10793TIP3    H153870   6.888   4.272  10.759  0.2204  0.1105  1.7162
10793TIP3    H253871   6.741   4.299  10.729 -0.0533 -1.2571  1.7568
10794TIP3   OH253872   0.558   6.537   4.160  0.5676  0.3625  0.4844
10794TIP3    H153873   0.532   6.462   4.107  1.5546 -0.0347  0.5292
10794TIP3    H253874   0.550   6.612   4.101  0.0360  0.1544  0.2915
10795TIP3   OH253875   3.308   1.134   3.489  0.0045 -0.0422 -0.3487
10795TIP3    H153876   3.225   1.126   3.443 -1.0764  1.0174  1.3044
10795TIP3    H253877   3.367   1.175   3.425 -0.5514 -1.2607 -1.6994
10796TIP3   OH253878   3.674   4.868   0.801  0.1431 -0.1165  0.0066
10796TIP3    H153879   3.648   4.873   0.893 -0.2672 -0.6439 -0.0767
10796TIP3    H253880   3.759   4.825   0.803 -0.4186 -1.2776  0.0667
10797TIP3   OH253881   1.121   2.233  13.105  0.5240 -0.1585  0.1685
10797TIP3    H153882   1.212   2.216  13.129  1.3337  0.7933 -1.9640
10797TIP3    H253883   1.117   2.328  13.092 -0.5499 -0.2859 -0.5991
10798TIP3   OH253884   6.429   6.661   4.212 -0.0596  0.0208 -0.2101
10798TIP3    H153885   6.517   6.655   4.248  0.2034 -0.7635 -0.9312
10798TIP3    H253886   6.423   6.750   4.177  0.4296  0.1015 -0.0992
10799TIP3   OH253887   1.597   4.458  12.348 -0.1413  0.0465 -0.2726
10799TIP3    H153888   1.609   4.401  12.272 -1.2745  0.6912 -0.9608
10799TIP3    H253889   1.642   4.539  12.325 -2.3999  1.0997 -1.2933
10800TIP3   OH253890   3.219   5.974   1.846 -0.1330 -0.3791  0.2245
10800TIP3    H153891   3.253   6.062   1.829 -1.3491 -0.0653 -0.7307
10800TIP3    H253892   3.128   5.977   1.817 -0.4578 -1.7144  0.9851
10801TIP3   OH253893   3.140   5.707   3.402 -0.6945  1.0232  0.0363
10801TIP3    H153894   3.126   5.788   3.451 -2.2235 -0.0190  1.4511
10801TIP3    H253895   3.213   5.664   3.447 -0.5368  1.1503 -0.0959
10802TIP3   OH253896   4.254   0.542  11.882  0.2566  0.0749 -0.1354
10802TIP3    H153897   4.191   0.541  11.954  1.2776 -0.8355  0.7851
10802TIP3    H253898   4.210   0.590  11.812 -1.7882 -1.2135  0.1778
10803TIP3   OH253899   2.572   6.814   4.969  0.1257  0.5831 -0.0954
10803TIP3    H153900   2.511   6.764   4.914  1.2535  0.5869 -1.3917
10803TIP3    H253901   2.650   6.759   4.974  0.0171  0.5413  1.6225
10804TIP3   OH253902   3.431   4.467  10.598  0.5277 -0.4044 -0.5012
10804TIP3    H153903   3.338   4.477  10.578  0.6847 -1.4896 -1.8844
10804TIP3    H253904   3.453   4.379  10.567  1.4504 -1.1787  2.0891
10805TIP3   OH253905   0.993   5.957  12.693 -0.1779  0.1544 -0.3991
10805TIP3    H153906   0.926   6.021  12.669 -2.4150 -1.1964  1.7412
10805TIP3    H253907   1.033   5.993  12.773  0.5212  0.1492 -0.7340
10806TIP3   OH253908   3.146   3.688  13.686 -0.7940  0.1946 -0.4352
10806TIP3    H153909   3.193   3.748  13.744 -0.3505  0.2493 -0.8437
10806TIP3    H253910   3.067   3.665  13.734  1.3624 -3.0018  2.0334
10807TIP3   OH253911   1.484   1.768  15.553  0.0116 -0.3376 -0.3318
10807TIP3    H153912   1.487   1.726  15.466 -2.2030  0.3546 -0.8005
10807TIP3    H253913   1.391   1.782  15.569  0.5245  1.8007  1.0859
10808TIP3   OH253914   0.671   4.226  13.375 -0.2393 -0.1175 -0.3557
10808TIP3    H153915   0.678   4.168  13.299  0.3457  0.0319 -0.4223
10808TIP3    H253916   0.740   4.291  13.362 -0.9935  0.7031 -0.3670
10809TIP3   OH253917   0.446   4.292   3.930  0.3218  0.0357  0.3797
10809TIP3    H153918   0.506   4.232   3.976  0.9428  1.4454  1.4874
10809TIP3    H253919   0.491   4.376   3.931 -1.3863  0.9881  0.6288
10810TIP3   OH253920   1.788   5.748   1.003  0.0645  0.5291 -0.0878
10810TIP3    H153921   1.805   5.654   0.997  0.3969  0.4310  1.7247
10810TIP3    H253922   1.758   5.761   1.093  0.0164  2.1553 -0.3061
10811TIP3   OH253923   6.807   4.794  15.444  0.8642 -0.0516 -0.2279
10811TIP3    H153924   6.783   4.701  15.450  1.9831 -0.3775 -0.4799
10811TIP3    H253925   6.814   4.823  15.534  2.2177 -0.6915 -0.1097
10812TIP3   OH253926   1.016   5.413   3.703  0.0897 -0.2605  0.3624
10812TIP3    H153927   1.068   5.488   3.675 -3.1759  1.6522 -1.1406
10812TIP3    H253928   0.980   5.439   3.787 -0.2687 -0.5811  0.3091
10813TIP3   OH253929   2.227   6.627   2.345 -0.5467 -0.0492 -0.0260
10813TIP3    H153930   2.209   6.720   2.362  0.8237  0.3815 -0.7688
10813TIP3    H253931   2.287   6.601   2.415  0.2700  0.0575 -0.6707
10814TIP3   OH253932   2.829   0.307   2.997 -0.0478 -0.4193 -0.1479
10814TIP3    H153933   2.771   0.375   3.031  0.3654 -0.7536  1.2943
10814TIP3    H253934   2.917   0.345   3.003  0.3723 -1.6363  2.2599
10815TIP3   OH253935   4.240   0.739   2.143 -0.3751 -0.3781  0.3161
10815TIP3    H153936   4.252   0.825   2.104 -1.8815  0.0788  0.7923
10815TIP3    H253937   4.275   0.678   2.078  0.2687  0.5605 -0.2322
10816TIP3   OH253938   4.454   5.184  16.741  0.1294 -0.0887  0.6349
10816TIP3    H153939   4.421   5.095  16.749  0.4122 -0.2754 -0.2319
10816TIP3    H253940   4.438   5.208  16.650 -0.5892  1.0130  1.0320
10817TIP3   OH253941   4.477   6.075  11.747  0.2931 -0.5969  0.0704
10817TIP3    H153942   4.492   6.124  11.827  1.2486  0.6266 -0.8185
10817TIP3    H253943   4.409   6.012  11.769  0.3802 -0.1303  1.7645
10818TIP3   OH253944   0.176   2.502   0.421 -0.1517 -0.1750  0.2615
10818TIP3    H153945   0.135   2.436   0.366 -4.0234  2.8488 -0.9553
10818TIP3    H253946   0.155   2.475   0.510 -1.7676 -0.5785 -0.2130
10819TIP3   OH253947   6.513   6.523  12.574  0.0086 -0.2036  0.2676
10819TIP3    H153948   6.481   6.435  12.553 -0.1511  0.0065 -0.4118
10819TIP3    H253949   6.531   6.562  12.488  0.2644  0.3551  0.5733
10820TIP3   OH253950   4.727   0.963   1.327 -0.1179  0.2009 -0.6964
10820TIP3    H153951   4.700   0.878   1.362 -0.6485  0.2569 -0.9674
10820TIP3    H253952   4.684   0.969   1.242 -2.7802  2.1010  0.6185
10821TIP3   OH253953   3.768   0.707  15.462  0.3431 -0.2902  0.0640
10821TIP3    H153954   3.729   0.632  15.508  2.1317 -1.7886 -0.7424
10821TIP3    H253955   3.858   0.680  15.444  1.6151  2.7394  1.1977
10822TIP3   OH253956   3.929   6.248  12.122 -0.2874 -0.0576  0.3335
10822TIP3    H153957   3.874   6.190  12.069 -0.1276  0.0183  0.0815
10822TIP3    H253958   4.013   6.251  12.075 -0.2153  0.1819  0.4747
10823TIP3   OH253959   6.073   6.811   5.929 -0.2107  0.7017  0.2429
10823TIP3    H153960   6.142   6.854   5.878 -0.4009  1.1106  0.3255
10823TIP3    H253961   6.119   6.772   6.003  0.0943 -0.0651 -0.3368
10824TIP3   OH253962   4.490   1.657   5.774  0.1520  0.2049 -0.5067
10824TIP3    H153963   4.551   1.587   5.749 -0.0884 -0.1262 -0.1725
10824TIP3    H253964   4.547   1.732   5.794  0.5988 -0.5790  1.4487
10825TIP3   OH253965   1.575   1.341  17.181  0.3583 -0.1384  0.5818
10825TIP3    H153966   1.507   1.284  17.216 -0.6401  0.6233 -0.0739
10825TIP3    H253967   1.642   1.281  17.148 -0.4902 -0.9187  0.2557
10826TIP3   OH253968   1.574   4.018   3.080 -0.3493  0.2525  0.1634
10826TIP3    H153969   1.499   4.066   3.114 -0.1044 -0.3879  1.6590
10826TIP3    H253970   1.539   3.933   3.054 -0.4003  0.4875 -0.5793
10827TIP3   OH253971   3.381   4.532  14.056  0.4213  0.1111  0.2552
10827TIP3    H153972   3.477   4.531  14.063  0.4149 -3.2350  2.0801
10827TIP3    H253973   3.362   4.482  13.977  0.2429 -1.1612  1.0678
10828TIP3   OH253974   1.893   4.205  16.560  0.2789  0.7098  0.1574
10828TIP3    H153975   1.898   4.289  16.515  0.7970  0.4872 -0.2160
10828TIP3    H253976   1.821   4.159  16.517  0.3961  0.7248 -0.0542
10829TIP3   OH253977   3.980   2.240   0.245  0.0759  0.2411 -0.6036
10829TIP3    H153978   4.072   2.220   0.261 -0.1940  0.1620  0.9877
10829TIP3    H253979   3.981   2.330   0.213  0.7774 -0.1143 -1.6274
10830TIP3   OH253980   3.037   6.625  15.960  0.7319  0.7054  0.1710
10830TIP3    H153981   3.056   6.606  15.868 -0.7708  1.9603 -0.4355
10830TIP3    H253982   2.987   6.549  15.990 -0.3479  1.0992 -0.5901
10831TIP3   OH253983   2.920   0.021   5.571 -0.0477  0.2925 -0.7464
10831TIP3    H153984   2.842   0.048   5.522  0.5271  0.8116 -1.3937
10831TIP3    H253985   2.899   0.039   5.663 -1.3702 -1.2306 -0.7049
10832TIP3   OH253986   1.484   4.388   1.039 -0.0790  0.0007 -0.0271
10832TIP3    H153987   1.545   4.460   1.023 -0.4839  0.3486 -0.0213
10832TIP3    H253988   1.466   4.352   0.952  0.2129 -0.1727 -0.0185
10833TIP3   OH253989   4.858   5.134  16.909  0.5329 -0.0960  0.3346
10833TIP3    H153990   4.821   5.079  16.840  1.1976  1.3685 -1.2614
10833TIP3    H253991   4.952   5.133  16.892  0.4990  2.0213 -0.1373
10834TIP3   OH253992   3.189   5.583  14.383  0.1528  0.7055  0.5957
10834TIP3    H153993   3.190   5.604  14.289 -0.5249 -0.2983  0.3516
10834TIP3    H253994   3.146   5.658  14.423 -3.0701 -0.4546 -0.3641
10835TIP3   OH253995   2.985   6.485   3.829  0.0786 -0.2640 -0.0559
10835TIP3    H153996   3.037   6.549   3.878  0.6111 -0.9775  0.3343
10835TIP3    H253997   3.020   6.488   3.740 -0.5153  0.6318 -0.2759
10836TIP3   OH253998   5.132   4.394  15.937 -0.2841  0.3229 -0.3556
10836TIP3    H153999   5.049   4.373  15.893 -0.2171 -0.3593 -0.1650
10836TIP3    H254000   5.192   4.413  15.865 -0.1470 -0.8961 -0.5843
10837TIP3   OH254001   5.126   6.423  14.369 -0.8148 -0.5431  0.1849
10837TIP3    H154002   5.183   6.462  14.303 -1.6925  1.5357  0.5801
10837TIP3    H254003   5.120   6.489  14.438 -1.5883 -1.8094  1.3881
10838TIP3   OH254004   2.126   5.114   0.695 -0.3332 -0.5351 -0.4164
10838TIP3    H154005   2.062   5.044   0.707  0.1768 -1.1662 -1.2479
10838TIP3    H254006   2.207   5.079   0.734 -0.4401  0.1740  0.4494
10839TIP3   OH254007   1.777   3.488  12.338  0.4219  0.2829 -0.0833
10839TIP3    H154008   1.706   3.424  12.328 -0.7735  1.7027 -1.1475
10839TIP3    H254009   1.776   3.537  12.256  0.8044  2.1576  0.9951
10840TIP3   OH254010   1.444   6.636  13.576 -0.2040  0.5093  0.2965
10840TIP3    H154011   1.381   6.649  13.647 -0.6848 -0.4930  0.0685
10840TIP3    H254012   1.451   6.541  13.567  0.2820  0.6179 -0.6159
10841TIP3   OH254013   0.314   2.270  11.754  0.1973 -0.0804 -0.2318
10841TIP3    H154014   0.284   2.361  11.749 -1.6970 -0.6998 -0.6374
10841TIP3    H254015   0.405   2.277  11.785 -0.2541  1.8795  0.8191
10842TIP3   OH254016   5.098   3.550   0.007 -0.1418  0.0640 -0.3505
10842TIP3    H154017   5.082   3.540  -0.086 -2.3667 -1.2139  0.1030
10842TIP3    H254018   5.157   3.625   0.014  2.2289 -1.4028 -2.9104
10843TIP3   OH254019   4.153   0.321   5.393 -0.0793 -0.0781 -0.3179
10843TIP3    H154020   4.145   0.256   5.463 -1.0114 -0.0732 -0.4121
10843TIP3    H254021   4.213   0.280   5.330  2.2901  0.6780  1.3156
10844TIP3   OH254022   5.167   1.716   3.936 -0.3957 -0.4485 -0.2877
10844TIP3    H154023   5.184   1.802   3.976 -3.2004  0.9105 -1.7166
10844TIP3    H254024   5.114   1.670   4.001  1.0098 -1.1232  0.4288
10845TIP3   OH254025   2.927   0.805  11.926  0.2138  0.5318  0.0187
10845TIP3    H154026   2.866   0.871  11.959  0.6843  1.0756 -0.1721
10845TIP3    H254027   2.897   0.788  11.837 -1.4709 -1.4430  0.8950
10846TIP3   OH254028   4.045   0.571   4.611  0.4903  0.5564 -0.1349
10846TIP3    H154029   3.988   0.607   4.543  0.2526 -0.3724 -0.4319
10846TIP3    H254030   4.099   0.646   4.637 -2.9406  2.4266  2.4737
10847TIP3   OH254031   3.713   4.927   2.855  0.3925 -0.5581  0.1797
10847TIP3    H154032   3.665   4.854   2.817  0.9958 -0.5460 -0.6436
10847TIP3    H254033   3.668   5.005   2.824  0.2905 -0.5618  0.3163
10848TIP3   OH254034   3.087   0.184  16.685 -0.6543  0.3160 -0.6398
10848TIP3    H154035   3.015   0.188  16.621  1.7697  2.4112 -3.4924
10848TIP3    H254036   3.092   0.272  16.721 -0.1542 -0.1104  0.3900
10849TIP3   OH254037   5.362   1.440  13.293  0.4445 -0.6625 -0.1221
10849TIP3    H154038   5.414   1.453  13.214  1.8851  1.1679  1.0440
10849TIP3    H254039   5.392   1.355  13.327 -1.6236 -2.4707 -2.4681
10850TIP3   OH254040   5.119   5.654  12.933  0.3643 -0.3170 -0.3286
10850TIP3    H154041   5.158   5.567  12.927  1.1791 -0.0770  1.1244
10850TIP3    H254042   5.070   5.653  13.015 -1.2319 -0.0080 -1.2292
10851TIP3   OH254043   2.283   5.523  13.223  0.1911  0.0500 -0.2110
10851TIP3    H154044   2.353   5.472  13.183 -0.3086 -0.1752 -0.8157
10851TIP3    H254045   2.259   5.587  13.157 -1.2987 -0.9378 -0.6799
10852TIP3   OH254046   0.539   4.050  15.645 -0.1578  0.3824  0.0174
10852TIP3    H154047   0.625   4.047  15.687  0.3856  0.4035 -1.0686
10852TIP3    H254048   0.477   4.044  15.718  0.7520 -0.7035  0.7366
10853TIP3   OH254049   4.751   5.404  16.234 -0.3204  0.4660  0.6557
10853TIP3    H154050   4.718   5.445  16.314 -3.4794 -0.1969 -0.1708
10853TIP3    H254051   4.801   5.329  16.265 -0.9630  0.5733  2.0445
10854TIP3   OH254052   3.034   0.167  13.036 -0.6366 -0.7251  0.4843
10854TIP3    H154053   3.077   0.230  13.093 -0.2952 -0.3678 -0.1585
10854TIP3    H254054   3.040   0.083  13.083  2.1095 -1.0178 -0.2491
10855TIP3   OH254055   2.297   1.277  10.950  0.4658  0.2788 -0.0883
10855TIP3    H154056   2.204   1.255  10.951  0.4669  0.2685 -0.2544
10855TIP3    H254057   2.310   1.325  10.868 -0.0612  3.2234  1.4081
10856TIP3   OH254058   5.108   5.310   2.282  0.1423 -0.4574 -0.7220
10856TIP3    H154059   5.152   5.299   2.197  0.4580 -1.2270 -0.4678
10856TIP3    H254060   5.058   5.230   2.294  1.9982 -1.4506  0.9093
10857TIP3   OH254061   5.358   1.879   2.224  0.1649 -0.4150 -0.2845
10857TIP3    H154062   5.445   1.864   2.187  0.0434  0.2617 -0.8706
10857TIP3    H254063   5.326   1.791   2.246  1.1654 -0.6335  0.3581
10858TIP3   OH254064   5.800   6.052  13.693 -0.0622 -0.1182 -0.4019
10858TIP3    H154065   5.733   5.986  13.673  0.6645 -0.8099 -0.6218
10858TIP3    H254066   5.872   6.001  13.730 -0.0949  0.7568  0.9092
10859TIP3   OH254067   5.467   6.334  11.422  0.0219  0.0238 -0.6646
10859TIP3    H154068   5.410   6.267  11.384  1.9089 -3.3552  1.8843
10859TIP3    H254069   5.411   6.379  11.486 -0.4939 -1.6281  0.1172
10860TIP3   OH254070   4.458   6.586  15.634  0.2141 -0.4781 -0.0911
10860TIP3    H154071   4.450   6.541  15.550 -0.3506  1.0635 -0.9105
10860TIP3    H254072   4.552   6.586  15.653  0.5389  0.5126 -1.5324
10861TIP3   OH254073   2.712   5.604  16.362  0.2920 -0.5014 -0.2801
10861TIP3    H154074   2.695   5.619  16.269  0.2786 -1.2609 -0.4012
10861TIP3    H254075   2.644   5.654  16.407 -0.3151 -0.9409 -0.7003
10862TIP3   OH254076   5.300   1.165  16.164  0.1974  0.1472 -0.7998
10862TIP3    H154077   5.382   1.185  16.118  0.6093  1.7890  0.5213
10862TIP3    H254078   5.299   1.226  16.238 -2.3591  0.3590 -0.9181
10863TIP3   OH254079   4.477   5.988   6.386 -0.4230  0.2538  0.1091
10863TIP3    H154080   4.497   5.931   6.460  0.8122 -0.4684 -0.7419
10863TIP3    H254081   4.488   6.077   6.419 -0.5621 -0.0426  0.9656
10864TIP3   OH254082   1.164   1.467   2.890 -0.2124 -0.0427  0.1342
10864TIP3    H154083   1.083   1.424   2.920 -0.3088  1.2994  1.9695
10864TIP3    H254084   1.146   1.493   2.800 -1.4228 -0.6864  0.1676
10865TIP3   OH254085   1.342   2.733   3.275 -0.2703  1.1472  0.0185
10865TIP3    H154086   1.377   2.775   3.197  0.4349  1.3725  0.4541
10865TIP3    H254087   1.405   2.753   3.344  0.2088 -0.8040  0.2023
10866TIP3   OH254088   3.317   0.217  13.447 -0.2644 -0.1086  0.5479
10866TIP3    H154089   3.262   0.187  13.374 -0.6729  0.3217  0.6736
10866TIP3    H254090   3.368   0.289  13.410  0.7420 -0.9576  0.2359
10867TIP3   OH254091   6.127   1.446   1.891  0.0681 -0.1836  0.3130
10867TIP3    H154092   6.102   1.462   1.800  3.0973 -0.1334 -0.5983
10867TIP3    H254093   6.158   1.530   1.923  1.2855 -0.7238  0.5930
10868TIP3   OH254094   0.229   0.915  12.138  0.0688 -0.4769  0.1711
10868TIP3    H154095   0.232   0.893  12.231 -1.7263 -1.8132 -0.0434
10868TIP3    H254096   0.222   0.831  12.094 -1.5866  0.2233 -1.0123
10869TIP3   OH254097   2.886   4.245   2.708 -0.3761 -0.2244 -0.5959
10869TIP3    H154098   2.865   4.254   2.615  0.3488 -0.6082 -0.8028
10869TIP3    H254099   2.806   4.212   2.747 -0.7251  0.0478 -1.0626
10870TIP3   OH254100   4.439   1.452   4.437 -0.0589 -0.1122 -0.3712
10870TIP3    H154101   4.362   1.491   4.396 -0.4601  0.0162  0.4801
10870TIP3    H254102   4.427   1.358   4.425 -0.8920 -0.1597  0.6577
10871TIP3   OH254103   4.704   3.039  14.957  0.4125  0.1351  0.0652
10871TIP3    H154104   4.770   3.103  14.929 -1.0621  1.1842 -1.1301
10871TIP3    H254105   4.710   3.040  15.053  2.1675  0.1342 -0.0018
10872TIP3   OH254106   6.804   0.845  15.765  0.1398 -0.8054 -0.1397
10872TIP3    H154107   6.782   0.933  15.736 -2.3814 -0.3723  2.5854
10872TIP3    H254108   6.899   0.838  15.755  0.3538  2.0733 -0.7803
10873TIP3   OH254109   1.928   4.836  16.274 -0.2685 -0.4438  0.4758
10873TIP3    H154110   2.017   4.805  16.262  0.0293 -0.2581  1.9859
10873TIP3    H254111   1.873   4.768  16.236  0.5089 -0.0840 -1.3948
10874TIP3   OH254112   0.814   1.867   4.439  0.3697 -0.6075 -0.2515
10874TIP3    H154113   0.901   1.826   4.444  1.0291  0.8633  0.9886
10874TIP3    H254114   0.817   1.919   4.358  0.3332 -1.1881 -0.6352
10875TIP3   OH254115   3.038   2.833   5.261 -0.1301 -0.3497 -0.3425
10875TIP3    H154116   3.105   2.887   5.221 -0.4220 -0.9583 -1.7044
10875TIP3    H254117   3.002   2.781   5.189 -1.2726 -0.8630  0.5576
10876TIP3   OH254118   4.572   1.874   0.846  0.0731  0.4532  0.1878
10876TIP3    H154119   4.616   1.881   0.931  2.1572  1.0166 -0.8702
10876TIP3    H254120   4.548   1.965   0.825  1.6677  0.6760 -0.8293
10877TIP3   OH254121   0.568   0.398  13.636  0.2603 -0.2940  0.3101
10877TIP3    H154122   0.611   0.484  13.636  0.5735 -0.4241  1.6492
10877TIP3    H254123   0.523   0.394  13.721  0.4294 -1.5358  0.3622
10878TIP3   OH254124   4.110   4.980   1.963  0.6265 -0.1474  0.0783
10878TIP3    H154125   4.079   5.051   1.907 -0.9228  1.0581  2.3248
10878TIP3    H254126   4.205   4.992   1.967  0.4730  1.3008 -0.2354
10879TIP3   OH254127   0.879   6.398  13.957  0.2013  0.2492 -0.2588
10879TIP3    H154128   0.785   6.401  13.973 -0.2851 -2.2473 -2.1182
10879TIP3    H254129   0.918   6.382  14.043 -0.9100  2.2585  0.6959
10880TIP3   OH254130   5.882   3.768   3.204  0.3837 -0.3087  0.1771
10880TIP3    H154131   5.809   3.828   3.189 -1.4659 -2.3258  0.6037
10880TIP3    H254132   5.876   3.703   3.134  2.0695 -0.2888 -0.0323
10881TIP3   OH254133   3.878   5.768  13.220 -0.1254  0.0738 -0.2453
10881TIP3    H154134   3.897   5.861  13.227 -1.5878  0.4741 -1.1483
10881TIP3    H254135   3.964   5.725  13.224  0.4324  1.2302  2.7688
10882TIP3   OH254136   2.212   2.432  13.835 -0.2265  0.2874 -0.0380
10882TIP3    H154137   2.148   2.370  13.800  0.6573 -0.3614 -0.5589
10882TIP3    H254138   2.206   2.508  13.777 -0.6464  0.2985  0.0204
10883TIP3   OH254139   3.545   3.000  14.096 -0.1633 -0.0082 -0.1319
10883TIP3    H154140   3.511   2.938  14.031 -0.5923 -0.0384  0.1167
10883TIP3    H254141   3.536   2.954  14.180  0.4871 -0.0108 -0.0581
10884TIP3   OH254142   3.449   1.665  14.986 -0.3344  0.0993  0.0249
10884TIP3    H154143   3.401   1.732  15.034  0.2600 -0.0823  0.8994
10884TIP3    H254144   3.407   1.582  15.011 -0.7760  0.0998 -0.6960
10885TIP3   OH254145   3.850   6.550   6.572 -0.6040  0.6206  0.3141
10885TIP3    H154146   3.862   6.456   6.580 -0.5527  0.7222  1.6471
10885TIP3    H254147   3.785   6.572   6.638 -0.6442  1.5142 -0.0052
10886TIP3   OH254148   4.615   3.096   3.962  0.1582  0.1650 -0.1709
10886TIP3    H154149   4.587   3.184   3.988 -0.7694 -0.3123  0.4903
10886TIP3    H254150   4.652   3.058   4.042 -1.4163 -0.8032  0.1468
10887TIP3   OH254151   2.895   5.928   3.341  0.2724  0.1469  0.3427
10887TIP3    H154152   2.980   5.968   3.322  0.4184  0.0216  0.7073
10887TIP3    H254153   2.857   5.984   3.409  0.2966 -0.0930  0.5570
10888TIP3   OH254154   0.630   4.959   5.494  0.1046 -0.3973  0.0170
10888TIP3    H154155   0.626   4.902   5.571  0.8289 -1.5493 -0.7771
10888TIP3    H254156   0.700   5.022   5.514  1.4628 -1.7383 -0.3654
10889TIP3   OH254157   5.387   6.092   3.124 -0.7730  0.4065 -0.1686
10889TIP3    H154158   5.306   6.045   3.141 -0.9541  0.9162  0.4173
10889TIP3    H254159   5.361   6.184   3.119 -0.3111  0.5212 -0.5229
10890TIP3   OH254160   6.539   1.612  17.071 -0.1198 -0.4740 -0.2411
10890TIP3    H154161   6.530   1.554  17.147 -0.1033 -1.0917 -0.7067
10890TIP3    H254162   6.580   1.691  17.106 -2.2773  0.2270  0.8944
10891TIP3   OH254163   0.329   3.229  12.858  0.2236  0.4397  0.2043
10891TIP3    H154164   0.342   3.141  12.892 -0.6138  0.1713 -0.1506
10891TIP3    H254165   0.268   3.270  12.920  1.4539  1.1635  0.9930
10892TIP3   OH254166   5.898   5.311   4.312 -0.1217 -0.7170  0.3046
10892TIP3    H154167   5.809   5.304   4.278 -0.8619 -1.0672  2.1814
10892TIP3    H254168   5.914   5.405   4.321  0.8535 -0.4999 -2.7496
10893TIP3   OH254169   2.148   4.109   4.731 -0.4318  0.1412 -0.4454
10893TIP3    H154170   2.216   4.091   4.796  0.3643 -1.1327 -1.5672
10893TIP3    H254171   2.173   4.194   4.693  1.1517 -0.7483 -1.5194
10894TIP3   OH254172   1.188   4.299   1.470  0.0889 -0.4041  0.2738
10894TIP3    H154173   1.277   4.293   1.506  0.6754  0.8617 -0.8671
10894TIP3    H254174   1.195   4.364   1.400 -2.0113  0.6760  0.9736
10895TIP3   OH254175   2.462   2.812   3.700 -0.3923  0.0476  0.0775
10895TIP3    H154176   2.428   2.747   3.760 -0.3185 -0.2242 -0.1724
10895TIP3    H254177   2.468   2.767   3.616 -2.4544  0.9855 -0.6341
10896TIP3   OH254178   2.326   3.607   0.978  0.3353 -0.4920 -0.0315
10896TIP3    H154179   2.278   3.689   0.986  0.3584 -0.5658  1.0742
10896TIP3    H254180   2.402   3.618   1.036  1.3197 -0.6144 -1.2615
10897TIP3   OH254181   2.554   5.480  15.822  0.0495  0.4815  0.2162
10897TIP3    H154182   2.523   5.570  15.825 -1.3685  0.0797 -1.0638
10897TIP3    H254183   2.521   5.446  15.738  1.7263 -0.8096  0.0145
10898TIP3   OH254184   0.156   5.023  15.931  0.4590  0.1196 -0.0510
10898TIP3    H154185   0.089   5.087  15.909  0.0451  0.3378  1.7095
10898TIP3    H254186   0.145   4.953  15.867 -1.0387  0.4489 -0.1713
10899TIP3   OH254187   3.842   4.260  16.773  0.3024 -0.3578  0.4652
10899TIP3    H154188   3.867   4.171  16.798 -0.9664 -0.8556  0.0423
10899TIP3    H254189   3.749   4.266  16.795  0.4503  0.9885  0.8069
10900TIP3   OH254190   2.950   6.763   3.686 -0.2885  0.2586 -0.1342
10900TIP3    H154191   2.958   6.792   3.777  0.7665 -0.1738 -0.0811
10900TIP3    H254192   2.875   6.703   3.686 -0.2106  0.1614  0.4805
10901TIP3   OH254193   2.172   0.346  15.654  0.4283 -0.1607 -0.0102
10901TIP3    H154194   2.179   0.442  15.654  1.1941 -0.1184  2.8039
10901TIP3    H254195   2.080   0.330  15.675 -0.0404 -0.1264 -1.8528
10902TIP3   OH254196   4.709   6.538  15.218  0.3341  0.1484  0.0997
10902TIP3    H154197   4.748   6.453  15.240  2.1990  0.4243 -1.7483
10902TIP3    H254198   4.660   6.520  15.137 -0.9711  0.4376  0.8126
10903TIP3   OH254199   2.346   3.334   1.055  0.2217  0.2886 -0.4563
10903TIP3    H154200   2.365   3.260   0.998  1.7437  0.2786  0.0335
10903TIP3    H254201   2.353   3.411   0.997  2.6774  0.3602 -0.1625
10904TIP3   OH254202   3.113   4.807  16.588  0.5968  0.1871 -0.1274
10904TIP3    H154203   3.055   4.731  16.577  1.4008 -0.6536  1.1403
10904TIP3    H254204   3.062   4.881  16.555 -0.7849 -0.6794 -0.0336
10905TIP3   OH254205   0.976   5.042  15.116 -0.6404 -0.3956 -0.1614
10905TIP3    H154206   1.072   5.046  15.114 -0.5753 -1.7456 -1.1439
10905TIP3    H254207   0.949   5.133  15.132  0.8028 -0.1410  1.1097
10906TIP3   OH254208   5.979   3.010   5.158 -0.1537  0.2813  0.1078
10906TIP3    H154209   5.895   3.036   5.120 -0.1425 -0.5042 -0.4778
10906TIP3    H254210   5.960   2.997   5.251 -0.6859  0.0595 -0.0287
10907TIP3   OH254211   4.184   3.846  11.144  0.5717 -0.6995  0.6956
10907TIP3    H154212   4.131   3.834  11.065  0.2445 -0.0238  0.8070
10907TIP3    H254213   4.246   3.773  11.142  0.7867 -0.5116 -0.3554
10908TIP3   OH254214   0.855   5.858  13.033  0.3907 -0.4601 -0.2816
10908TIP3    H154215   0.793   5.870  12.961  0.0028 -0.2738  0.0806
10908TIP3    H254216   0.938   5.891  12.999  0.2276 -0.4450 -0.6697
10909TIP3   OH254217   4.298   6.255  13.266  0.3657  0.2290 -0.3666
10909TIP3    H154218   4.219   6.257  13.320  1.4664  1.0462  1.2878
10909TIP3    H254219   4.268   6.276  13.178 -0.9266  3.2160  0.6812
10910TIP3   OH254220   4.236   3.467   2.491  0.1400  0.0834 -0.1269
10910TIP3    H154221   4.310   3.473   2.430 -1.1263 -1.6391 -1.9718
10910TIP3    H254222   4.166   3.516   2.447 -0.5154 -0.3369  0.4393
10911TIP3   OH254223   5.699   1.504  12.069  0.3934 -0.5343 -0.1832
10911TIP3    H154224   5.687   1.441  11.999 -0.0067  0.3175 -0.9022
10911TIP3    H254225   5.774   1.557  12.042 -0.3955  0.4558 -0.4859
10912TIP3   OH254226   0.236   1.321   0.210  0.2659 -0.0713 -0.0620
10912TIP3    H154227   0.283   1.350   0.289 -0.5170  1.6548 -0.1758
10912TIP3    H254228   0.301   1.271   0.161  1.4766  0.7721  0.6091
10913TIP3   OH254229   1.237   0.914  13.339 -0.2443  0.1601  0.3319
10913TIP3    H154230   1.251   0.935  13.431 -0.2151 -0.2077  0.4128
10913TIP3    H254231   1.163   0.853  13.339  0.0784 -0.2317  0.1525
10914TIP3   OH254232   2.009   6.396  16.475 -0.2556  0.1185  0.8723
10914TIP3    H154233   2.064   6.325  16.441 -1.1620 -1.3845  2.3921
10914TIP3    H254234   2.040   6.409  16.564 -0.1261  1.6481  0.6228
10915TIP3   OH254235   2.315   1.993  13.709  0.9912 -0.2944  0.3488
10915TIP3    H154236   2.363   1.914  13.685  0.2079 -0.7840  0.3665
10915TIP3    H254237   2.290   2.033  13.626  0.1358 -0.8474  0.3277
10916TIP3   OH254238   6.740   3.498  12.839 -0.1869 -0.0982  0.3388
10916TIP3    H154239   6.799   3.496  12.763 -0.6314  1.0964 -0.0672
10916TIP3    H254240   6.789   3.546  12.906 -0.9450  1.6031 -0.2645
10917TIP3   OH254241   2.318   0.676   5.005 -0.5610 -0.3602  0.2012
10917TIP3    H154242   2.300   0.602   5.064  1.2756 -0.0454  1.2529
10917TIP3    H254243   2.234   0.694   4.963 -1.8854 -0.8926  2.4201
10918TIP3   OH254244   5.028   0.831  12.307  0.2361  0.2456 -0.2800
10918TIP3    H154245   4.945   0.844  12.353  1.1974 -2.5642  2.6798
10918TIP3    H254246   5.083   0.904  12.334 -0.8849  1.6079 -1.5101
10919TIP3   OH254247   0.714   4.571   3.563 -0.1639  0.0994 -0.0878
10919TIP3    H154248   0.805   4.548   3.546 -0.3368 -0.9907  0.3456
10919TIP3    H254249   0.709   4.665   3.546  1.0351  0.1730 -0.1202
10920TIP3   OH254250   2.314   1.511  14.179  0.6946  0.9283 -0.2150
10920TIP3    H154251   2.395   1.476  14.216  0.3860 -2.0077 -1.9502
10920TIP3    H254252   2.302   1.461  14.098 -1.5821  3.0174 -1.2956
10921TIP3   OH254253   1.276   5.691   1.587  0.0736 -0.0484  0.2151
10921TIP3    H154254   1.295   5.675   1.679 -0.3917 -3.5073 -0.1512
10921TIP3    H254255   1.350   5.743   1.555  1.5607 -0.9858  1.9660
10922TIP3   OH254256   1.961   0.663   5.263 -0.2684  0.1366  0.1659
10922TIP3    H154257   1.916   0.748   5.267  0.5694  0.6451 -0.7915
10922TIP3    H254258   2.046   0.679   5.304  0.4898  0.1819 -1.3575
10923TIP3   OH254259   5.635   0.150  11.065 -0.4271  0.0895 -0.1120
10923TIP3    H154260   5.669   0.193  10.987  1.5551  1.8798  1.5894
10923TIP3    H254261   5.683   0.068  11.071 -0.5137 -0.0079 -0.6860
10924TIP3   OH254262   5.132   0.337   2.309 -0.2484  0.0912  0.2856
10924TIP3    H154263   5.068   0.277   2.270  0.0138 -0.5989  0.8865
10924TIP3    H254264   5.089   0.368   2.389 -0.0494  0.0435  0.4111
10925TIP3   OH254265   2.933   4.920   5.532 -0.0916  0.4964 -0.6865
10925TIP3    H154266   2.847   4.912   5.575 -1.4775  2.3589 -2.9047
10925TIP3    H254267   2.996   4.913   5.604 -1.9123 -2.6948  0.8405
10926TIP3   OH254268   4.163   3.434  15.876  0.3247 -0.0965 -0.7909
10926TIP3    H154269   4.186   3.429  15.969  1.6547 -1.9253 -1.1670
10926TIP3    H254270   4.216   3.366  15.835 -1.1186 -0.1212 -2.7264
10927TIP3   OH254271   2.356   2.462   4.135 -0.2839  0.0064 -0.3269
10927TIP3    H154272   2.429   2.405   4.113  0.9186  1.4283 -0.1532
10927TIP3    H254273   2.309   2.415   4.204  0.5576 -0.8509 -0.3186
10928TIP3   OH254274   0.468   4.723   4.876  0.5081  0.3364 -0.2695
10928TIP3    H154275   0.418   4.643   4.855 -0.5021  0.9320 -0.1971
10928TIP3    H254276   0.492   4.758   4.790  2.3898 -0.8903 -0.2986
10929TIP3   OH254277   6.413   4.790   5.332 -0.2191  0.6481  0.2321
10929TIP3    H154278   6.487   4.846   5.353  0.4989 -0.3079  0.3185
10929TIP3    H254279   6.397   4.805   5.238 -0.7112  1.7548  0.4769
10930TIP3   OH254280   3.863   5.362   2.776 -0.2567  0.4601  0.0797
10930TIP3    H154281   3.768   5.367   2.771 -0.3209 -1.1403 -1.9173
10930TIP3    H254282   3.883   5.268   2.770  1.4647  0.8616 -1.6437
10931TIP3   OH254283   4.589   2.481   4.313  0.4218  0.6919 -0.2737
10931TIP3    H154284   4.521   2.475   4.380 -0.3646 -1.4509 -1.1935
10931TIP3    H254285   4.541   2.481   4.230  1.4862  0.6048 -0.9047
10932TIP3   OH254286   0.773   1.324  11.042  0.0247  0.3022 -0.2236
10932TIP3    H154287   0.812   1.262  10.981  0.1011  1.1756 -1.0899
10932TIP3    H254288   0.679   1.315  11.028 -0.0984 -1.2253  1.2890
10933TIP3   OH254289   0.966   0.083  13.879 -0.1357  0.0212 -0.1118
10933TIP3    H154290   1.024   0.108  13.806  1.5237 -0.6406  0.9105
10933TIP3    H254291   0.986   0.147  13.948 -1.3917  0.3968 -0.0812
10934TIP3   OH254292   2.990   4.395  11.414  0.2771  0.1224 -0.0804
10934TIP3    H154293   3.057   4.419  11.478 -0.0288  1.0072 -0.0738
10934TIP3    H254294   3.039   4.363  11.338  0.6489 -0.6635  0.4839
10935TIP3   OH254295   0.208   6.202   2.171 -0.1288 -0.1338  0.0976
10935TIP3    H154296   0.257   6.195   2.089  0.4742 -0.5341  0.4798
10935TIP3    H254297   0.183   6.294   2.176 -1.3853 -0.3701 -1.2062
10936TIP3   OH254298   2.151   2.427  10.988 -0.2911  0.5717 -0.0473
10936TIP3    H154299   2.207   2.368  10.937  2.0555  1.7371  1.0124
10936TIP3    H254300   2.076   2.444  10.930 -0.4289 -2.3112 -0.9040
10937TIP3   OH254301   1.669   2.102  16.211 -0.0477 -0.2150  0.2706
10937TIP3    H154302   1.751   2.102  16.161  0.1335 -2.9864  0.4042
10937TIP3    H254303   1.688   2.156  16.288  1.4158 -0.1969 -0.0742
10938TIP3   OH254304   5.770   2.789   2.498  0.6175 -0.4869 -0.2138
10938TIP3    H154305   5.727   2.815   2.417  1.3682  0.0754 -0.4510
10938TIP3    H254306   5.827   2.716   2.472  0.8185 -0.3405 -0.1875
10939TIP3   OH254307   0.953   0.456  13.109  0.1272  0.0248 -0.4352
10939TIP3    H154308   0.939   0.437  13.016  0.5313  2.1083 -0.9827
10939TIP3    H254309   1.046   0.436  13.123  0.6978  1.9069 -1.1504
10940TIP3   OH254310   0.804   6.627   2.182  0.2875  0.0523 -0.1253
10940TIP3    H154311   0.830   6.718   2.170  2.4078 -0.4811  0.1209
10940TIP3    H254312   0.836   6.603   2.269  1.9046 -1.5772 -1.0994
10941TIP3   OH254313   3.810   4.017   0.759  0.5205 -0.2913  0.1692
10941TIP3    H154314   3.745   4.085   0.779  1.7992  0.6322  1.3802
10941TIP3    H254315   3.830   3.977   0.843  1.1975 -0.8513 -0.2450
10942TIP3   OH254316   6.499   2.099  12.108 -0.4215  0.0706 -0.2415
10942TIP3    H154317   6.496   2.193  12.129 -0.3613  0.1585 -0.6060
10942TIP3    H254318   6.592   2.077  12.112 -0.3278  0.2627 -1.1258
10943TIP3   OH254319   3.443   3.746  11.785  0.6566 -0.0965 -0.1746
10943TIP3    H154320   3.464   3.833  11.821  3.3505 -1.6517  2.5076
10943TIP3    H254321   3.358   3.724  11.823  0.0873  1.2109 -0.6391
10944TIP3   OH254322   2.676   6.824   4.292  0.2858  0.0443 -0.0341
10944TIP3    H154323   2.630   6.784   4.367 -2.6643 -0.6758 -2.0415
10944TIP3    H254324   2.755   6.861   4.330 -0.7461 -0.7983  3.3362
10945TIP3   OH254325   6.347   0.139  16.824 -0.0258  0.1753 -0.1773
10945TIP3    H154326   6.418   0.084  16.855  0.3236  0.8884  0.3259
10945TIP3    H254327   6.302   0.166  16.904 -1.9156 -1.6099 -0.5535
10946TIP3   OH254328   4.148   2.542   6.106  0.6496  0.2837  0.2310
10946TIP3    H154329   4.072   2.488   6.084  0.0641  1.0928  0.2086
10946TIP3    H254330   4.175   2.513   6.193  0.5141 -0.2210  0.1065
10947TIP3   OH254331   1.772   4.720   1.976 -0.0969 -0.4904 -0.5285
10947TIP3    H154332   1.833   4.683   2.039 -0.2182  0.8069  0.3770
10947TIP3    H254333   1.786   4.668   1.896  2.5857  0.1023 -0.5511
10948TIP3   OH254334   2.017   3.936  14.278 -0.6591 -0.4877  0.3563
10948TIP3    H154335   1.969   3.890  14.208  2.0154 -1.1077 -1.1980
10948TIP3    H254336   2.032   3.869  14.345 -0.7095 -0.6634  0.1923
10949TIP3   OH254337   1.285   5.607  10.984 -0.4458 -0.1857 -0.5153
10949TIP3    H154338   1.302   5.676  10.920  0.7384  0.5582  0.5489
10949TIP3    H254339   1.358   5.547  10.974  0.0082  0.1892  0.4388
10950TIP3   OH254340   6.483   3.800   5.507 -0.3400  0.3737 -0.5655
10950TIP3    H154341   6.420   3.784   5.578 -1.1633  0.9353 -1.1572
10950TIP3    H254342   6.434   3.780   5.427  0.4582  0.1398 -1.0048
10951TIP3   OH254343   2.471   1.527  10.984  0.5462 -0.4868 -0.4468
10951TIP3    H154344   2.431   1.526  10.897  0.5800  2.0664 -0.5595
10951TIP3    H254345   2.563   1.548  10.968  0.5166  0.1758  0.1870
10952TIP3   OH254346   4.309   2.381  14.424  0.4437  0.1683  0.3213
10952TIP3    H154347   4.325   2.308  14.484  1.8364 -0.5426 -0.8395
10952TIP3    H254348   4.383   2.379  14.363 -0.5171  1.3166 -0.9635
10953TIP3   OH254349   2.798   2.417   5.073  0.7049  0.0028  0.0810
10953TIP3    H154350   2.803   2.464   5.157 -0.3747 -3.9922  2.6727
10953TIP3    H254351   2.878   2.366   5.069  0.9953  0.5244 -1.7018
10954TIP3   OH254352   4.460   6.669  11.738  0.3520  0.1726  0.0881
10954TIP3    H154353   4.438   6.671  11.831  1.9917 -1.3888  0.5711
10954TIP3    H254354   4.491   6.580  11.723  2.5697  1.1022 -1.3487
10955TIP3   OH254355   0.007   6.634   4.096  0.3418  0.2416  0.5310
10955TIP3    H154356  -0.058   6.566   4.076 -2.0701  2.2877  0.8090
10955TIP3    H254357  -0.014   6.662   4.185  0.3987  2.1913 -0.0276
10956TIP3   OH254358   2.076   3.779  12.301 -0.1922 -0.1784  0.3007
10956TIP3    H154359   2.125   3.849  12.259 -0.0389 -0.0877  0.6275
10956TIP3    H254360   1.985   3.793  12.275 -0.2923  0.6606  1.0713
10957TIP3   OH254361   1.391   5.011   2.967 -0.2694  0.6627 -0.5083
10957TIP3    H154362   1.396   5.026   3.062 -1.1377  0.9372 -0.5011
10957TIP3    H254363   1.302   5.035   2.943 -0.0670  0.5706 -1.3995
10958TIP3   OH254364   0.556   5.863   5.714  0.5674 -0.3439 -0.2619
10958TIP3    H154365   0.494   5.891   5.782  2.8398  2.2026  0.9211
10958TIP3    H254366   0.579   5.943   5.668  1.3554 -1.5772 -2.1049
10959TIP3   OH254367   3.066   2.494  15.383  0.1878  0.4794  0.1153
10959TIP3    H154368   3.141   2.551  15.364  2.2595 -1.5306  1.6565
10959TIP3    H254369   3.045   2.513  15.475  0.1928 -0.4177  0.3139
10960TIP3   OH254370   1.064   2.812   3.167  0.5393  0.4269 -0.3745
10960TIP3    H154371   1.130   2.749   3.194 -1.2680 -0.7990  1.3952
10960TIP3    H254372   1.093   2.895   3.205  1.2940  0.0221 -0.0557
10961TIP3   OH254373   2.868   1.900   5.148 -0.4074 -0.2408 -0.5048
10961TIP3    H154374   2.778   1.926   5.165 -0.3298  0.9762 -1.7434
10961TIP3    H254375   2.879   1.817   5.194 -2.2497 -0.5774 -0.6198
10962TIP3   OH254376   2.513   3.490  16.226 -0.7584  0.3271  0.2639
10962TIP3    H154377   2.426   3.517  16.257 -1.3837 -1.1715 -0.0777
10962TIP3    H254378   2.551   3.443  16.300 -0.6846  0.0570  0.0565
10963TIP3   OH254379   3.377   2.596  11.445 -0.2021  0.2613 -0.2284
10963TIP3    H154380   3.432   2.674  11.442 -0.2296  0.2517 -0.9501
10963TIP3    H254381   3.436   2.524  11.422 -0.2610  0.1065  0.0875
10964TIP3   OH254382   5.839   2.065  16.888 -0.0359 -0.2267  0.1862
10964TIP3    H154383   5.782   2.110  16.825 -1.4071 -0.6275  1.1046
10964TIP3    H254384   5.800   2.083  16.973 -0.3724 -2.7217  0.6365
10965TIP3   OH254385   6.457   0.771  12.112 -0.5280  0.0211  0.3143
10965TIP3    H154386   6.539   0.753  12.157 -1.1252  1.4259  2.0834
10965TIP3    H254387   6.478   0.760  12.019  1.4138 -0.5055  0.7662
10966TIP3   OH254388   3.269   0.479   0.980 -0.0733  0.6366  0.3413
10966TIP3    H154389   3.191   0.487   0.925  0.7047  0.7364 -0.7791
10966TIP3    H254390   3.343   0.488   0.920  0.8491 -2.0584  0.9342
10967TIP3   OH254391   1.757   4.506   5.152  0.0138  0.2233 -0.4118
10967TIP3    H154392   1.699   4.461   5.091  1.0621 -1.7270 -0.0612
10967TIP3    H254393   1.820   4.552   5.096 -0.5875  0.6126 -0.7792
10968TIP3   OH254394   1.010   3.502  13.858 -0.1892 -0.5430 -0.1755
10968TIP3    H154395   0.981   3.425  13.808 -3.0043 -1.1104  2.0757
10968TIP3    H254396   1.082   3.471  13.911 -0.1562 -1.1412 -0.5635
10969TIP3   OH254397   0.889   2.104  13.234 -0.1857 -0.5754  0.5673
10969TIP3    H154398   0.930   2.069  13.313  0.6786  0.3238  0.5428
10969TIP3    H254399   0.961   2.145  13.186 -0.3060 -2.7220 -1.6446
10970TIP3   OH254400   0.960   2.126   3.834 -0.4210  0.5244 -0.4102
10970TIP3    H154401   0.996   2.037   3.828 -1.6023 -0.0341  0.4637
10970TIP3    H254402   0.917   2.140   3.750  0.9585  0.8341 -1.0996
10971TIP3   OH254403   2.743   2.818   3.684 -0.0939 -0.0048 -0.1827
10971TIP3    H154404   2.650   2.840   3.673 -0.0329  0.2694 -0.1605
10971TIP3    H254405   2.789   2.880   3.629  0.0442 -0.5853 -0.7258
10972TIP3   OH254406   5.396   5.113   4.411  0.2926  0.4704  0.0213
10972TIP3    H154407   5.321   5.162   4.443 -1.8225 -3.0171  0.9831
10972TIP3    H254408   5.393   5.122   4.316 -1.4058  0.3451  0.0435
10973TIP3   OH254409   0.187   3.699   5.397 -0.5291 -0.0381  0.1338
10973TIP3    H154410   0.190   3.785   5.440  0.6959 -0.1399  0.2759
10973TIP3    H254411   0.094   3.677   5.395 -1.1688  2.3310 -1.9963
10974TIP3   OH254412   6.202   4.526   5.903  0.0453 -0.4213  0.2541
10974TIP3    H154413   6.220   4.505   5.811 -1.1272 -1.4631  0.2354
10974TIP3    H254414   6.272   4.484   5.952  1.7187  1.6085 -0.2198
10975TIP3   OH254415   4.419   0.282  14.101  1.1805  0.1523 -0.2712
10975TIP3    H154416   4.486   0.223  14.134 -0.1946 -1.3896 -0.1192
10975TIP3    H254417   4.447   0.369  14.129  1.8599 -0.7303  1.9315
10976TIP3   OH254418   2.264   1.278  13.292  0.2244 -0.3947  0.7923
10976TIP3    H154419   2.265   1.278  13.196  3.1798 -2.6791  0.6885
10976TIP3    H254420   2.178   1.243  13.315 -0.6526  0.4515 -0.9688
10977TIP3   OH254421   4.884   2.641   4.057 -0.1974  0.2082 -0.1065
10977TIP3    H154422   4.942   2.617   4.129 -2.3564  1.9492  2.4175
10977TIP3    H254423   4.924   2.718   4.018  0.6475 -0.3372 -0.3331
10978TIP3   OH254424   4.125   2.264   1.403  0.1758  0.1769 -0.3295
10978TIP3    H154425   4.165   2.318   1.472  0.0098 -0.0302 -0.0682
10978TIP3    H254426   4.166   2.178   1.414  0.3450  0.2126 -0.6638
10979TIP3   OH254427   4.472   0.619  16.571 -0.6472  0.0419 -0.2086
10979TIP3    H154428   4.453   0.713  16.560 -1.9582 -0.1442  0.2884
10979TIP3    H254429   4.504   0.591  16.485 -1.9641  0.5748 -0.9079
10980TIP3   OH254430   1.301   0.371  14.844  0.5597 -0.2912 -0.4234
10980TIP3    H154431   1.334   0.400  14.929  1.8866 -1.6675 -0.4208
10980TIP3    H254432   1.284   0.451  14.795  3.0088  0.5503 -0.0372
10981TIP3   OH254433   1.777   3.172   4.022  0.0719 -0.0234 -0.1148
10981TIP3    H154434   1.765   3.146   3.931 -0.5268  1.6160 -0.5496
10981TIP3    H254435   1.866   3.208   4.025 -0.2024  0.6872 -0.2713
10982TIP3   OH254436   4.132   0.944  13.965  0.7503 -0.6031 -0.1030
10982TIP3    H154437   4.101   0.887  13.895 -0.2424  1.6225 -1.5954
10982TIP3    H254438   4.137   1.031  13.924  1.1963  0.5789  2.3069
10983TIP3   OH254439   1.784   1.973  15.743 -0.2272 -0.1289 -0.3683
10983TIP3    H154440   1.849   1.916  15.702 -1.3963 -1.6046 -0.2495
10983TIP3    H254441   1.809   2.061  15.716  1.1138 -0.7563 -1.2971
10984TIP3   OH254442   4.523   2.311   0.961  0.1443  0.3543  0.3311
10984TIP3    H154443   4.577   2.263   0.897 -0.6455  1.1254 -0.9646
10984TIP3    H254444   4.497   2.245   1.025 -0.1567 -0.7676 -0.8929
10985TIP3   OH254445   2.103   3.311  12.001  0.6201 -0.5424  0.2143
10985TIP3    H154446   2.092   3.387  11.943  0.9653 -0.4616  0.2516
10985TIP3    H254447   2.090   3.235  11.944 -0.6639 -0.4552  0.3698
10986TIP3   OH254448   0.838   6.530   3.910  0.5554  0.2481 -0.1309
10986TIP3    H154449   0.863   6.438   3.916 -0.5172 -0.0301  0.3865
10986TIP3    H254450   0.885   6.563   3.833 -0.0227 -1.0645 -1.0872
10987TIP3   OH254451   2.848   5.466  14.840  0.4156 -0.0707  0.2540
10987TIP3    H154452   2.799   5.516  14.905  2.0730 -0.7695  2.1677
10987TIP3    H254453   2.821   5.375  14.855  0.2395 -0.1525 -0.5616
10988TIP3   OH254454   1.586   6.031   3.093  0.4074 -0.1162 -0.1396
10988TIP3    H154455   1.593   5.953   3.037  1.3915 -0.4334  0.3940
10988TIP3    H254456   1.579   6.104   3.032 -0.3222 -0.6051 -0.6528
10989TIP3   OH254457   6.490   4.163   1.690 -0.2255 -0.1760 -0.0406
10989TIP3    H154458   6.489   4.233   1.625  1.6923  1.1638  1.2441
10989TIP3    H254459   6.536   4.091   1.647 -1.2328 -0.2768 -0.9968
10990TIP3   OH254460   5.130   2.596   5.489  0.3790 -0.1623 -0.1221
10990TIP3    H154461   5.139   2.527   5.423  0.7180 -1.9903  1.7384
10990TIP3    H254462   5.115   2.549   5.571  1.8392  1.9281  1.4473
10991TIP3   OH254463   0.003   3.029   4.394 -0.3099  0.2287  0.0710
10991TIP3    H154464  -0.035   3.072   4.470 -1.2120 -1.1596  0.4468
10991TIP3    H254465  -0.059   3.045   4.323 -1.5488 -1.8161  0.6215
10992TIP3   OH254466   3.015   6.158   1.427  0.1569  0.0525 -0.4381
10992TIP3    H154467   3.011   6.062   1.437  3.2123 -0.3314 -1.8520
10992TIP3    H254468   3.021   6.172   1.333 -0.1299  1.6861 -0.2404
10993TIP3   OH254469   1.778   4.050  10.391  0.7055  0.2040  0.0165
10993TIP3    H154470   1.713   4.016  10.453  0.5705 -0.3512 -0.4291
10993TIP3    H254471   1.858   4.060  10.444  0.4371  0.2724  0.4134
10994TIP3   OH254472   3.664   0.392   2.576 -0.2520  0.7043  0.7374
10994TIP3    H154473   3.702   0.394   2.664  0.8507 -1.3589  0.3634
10994TIP3    H254474   3.660   0.484   2.550  4.1140  1.1548  0.9779
10995TIP3   OH254475   3.845   0.744   4.399  0.2586  0.2949 -0.3409
10995TIP3    H154476   3.859   0.706   4.312 -0.4176 -1.1266  0.1289
10995TIP3    H254477   3.789   0.820   4.384  2.5096  1.8573 -1.4449
10996TIP3   OH254478   6.190   4.194   2.872 -0.3474 -0.0503  0.3103
10996TIP3    H154479   6.241   4.161   2.946  1.7825 -1.6943 -1.7349
10996TIP3    H254480   6.121   4.128   2.858 -0.4398  0.0022  0.5223
10997TIP3   OH254481   1.353   2.024   5.044 -0.4640  0.6934  0.6210
10997TIP3    H154482   1.378   2.023   5.136  0.0511  0.6230  0.4886
10997TIP3    H254483   1.437   2.029   4.997 -0.4427 -2.6625  0.0488
10998TIP3   OH254484   3.728   3.831  12.099  0.4558  0.3287 -0.2787
10998TIP3    H154485   3.782   3.762  12.060  1.9477  1.9508 -1.2876
10998TIP3    H254486   3.656   3.785  12.141  1.0634 -1.7870 -1.4012
10999TIP3   OH254487   4.011   1.373  15.433 -0.1135 -0.1321 -0.4956
10999TIP3    H154488   3.947   1.375  15.362 -0.3801 -1.3023 -0.3158
10999TIP3    H254489   4.088   1.332  15.393  0.6446  1.5019 -0.7831
11000TIP3   OH254490   3.059   5.456  11.004 -0.0812 -0.0383 -0.6944
11000TIP3    H154491   2.992   5.407  10.956  0.7057 -0.9725 -0.8794
11000TIP3    H254492   3.142   5.422  10.971  0.4991  1.0436 -0.4175
11001TIP3   OH254493   1.201   3.837   2.367  0.3342  0.0432  0.8775
11001TIP3    H154494   1.131   3.861   2.428 -0.3047 -0.4199  0.3414
11001TIP3    H254495   1.254   3.916   2.360 -0.3059  0.4992  1.0678
11002TIP3   OH254496   2.611   5.230  15.955  0.1904  0.4118 -0.9277
11002TIP3    H154497   2.696   5.231  15.998 -0.4664 -0.7282  0.4809
11002TIP3    H254498   2.604   5.316  15.914  1.7898  0.7090 -0.6292
11003TIP3   OH254499   6.754   0.002   1.153 -0.3597  0.1625 -0.0309
11003TIP3    H154500   6.674  -0.051   1.148  0.1144 -0.6330  0.4672
11003TIP3    H254501   6.749   0.046   1.237 -0.1103 -0.1707  0.1612
11004TIP3   OH254502   0.279   0.878  10.501 -0.6497 -0.2493 -0.5065
11004TIP3    H154503   0.325   0.855  10.420  1.0575  1.8784 -0.2439
11004TIP3    H254504   0.270   0.795  10.548  0.7759 -1.1321 -1.6955
11005TIP3   OH254505   2.889   2.008  13.414  0.0490 -0.1848  0.8225
11005TIP3    H154506   2.809   2.017  13.465 -0.4398 -0.3298  0.0904
11005TIP3    H254507   2.866   1.950  13.342  0.5202  0.5870  0.0195
11006TIP3   OH254508   2.158   3.237   5.953  0.2118 -0.0774  0.3024
11006TIP3    H154509   2.133   3.145   5.957 -1.5283  0.3103 -0.6779
11006TIP3    H254510   2.113   3.277   6.028  0.1003  0.1602  0.1083
11007TIP3   OH254511   0.065   0.064   4.169  0.0031 -0.4845 -0.4390
11007TIP3    H154512   0.054  -0.019   4.121 -0.6830 -1.2884  1.0371
11007TIP3    H254513   0.119   0.118   4.111 -0.8008 -1.3880 -2.1097
11008TIP3   OH254514   2.626   5.434  14.628  0.1187 -0.1959  0.3754
11008TIP3    H154515   2.567   5.381  14.574 -0.8780  0.1087  1.1339
11008TIP3    H254516   2.670   5.370  14.684 -1.5066 -0.2292  1.6939
11009TIP3   OH254517   0.476   0.949   0.734  0.3161 -0.0947  0.7109
11009TIP3    H154518   0.467   0.902   0.817 -0.8495  0.1186  0.7234
11009TIP3    H254519   0.557   0.916   0.696 -1.2160 -3.3935 -0.0522
11010TIP3   OH254520   4.796   3.001  11.729  0.6333 -0.8580 -0.2439
11010TIP3    H154521   4.755   2.927  11.774 -1.7864  0.6099  0.1299
11010TIP3    H254522   4.785   2.982  11.636  1.0632 -1.4742 -0.1785
11011TIP3   OH254523   2.250   0.948  13.054 -0.2102 -0.3620  0.2938
11011TIP3    H154524   2.306   0.929  13.130  0.3142  0.4341  0.1124
11011TIP3    H254525   2.311   0.969  12.984 -0.7380  0.3575  0.0475
11012TIP3   OH254526   2.240   5.084   3.922  0.3975 -0.9451  0.0459
11012TIP3    H154527   2.306   5.153   3.928 -0.8326  0.2908 -0.1240
11012TIP3    H254528   2.265   5.035   3.843  1.0091 -0.4033 -0.1113
11013TIP3   OH254529   6.498   2.599   5.681  0.3079 -0.1454  0.0377
11013TIP3    H154530   6.455   2.562   5.758  0.4893  2.1318  1.3192
11013TIP3    H254531   6.455   2.558   5.607 -0.2256 -2.0451  1.3349
11014TIP3   OH254532   0.457   4.929  15.617  0.5952  0.3279 -0.2997
11014TIP3    H154533   0.382   4.983  15.591 -0.1101 -0.2936  0.3769
11014TIP3    H254534   0.532   4.987  15.610  0.0229  1.0331 -0.7839
11015TIP3   OH254535   3.211   2.485   0.058 -0.5528 -0.0403 -0.2141
11015TIP3    H154536   3.280   2.516   0.000  0.1783 -2.4336 -0.7422
11015TIP3    H254537   3.200   2.555   0.123  2.5775  0.3016  0.0684
11016TIP3   OH254538   0.842   2.113  14.431  0.0001  0.2006  0.2358
11016TIP3    H154539   0.773   2.051  14.407 -0.2705  0.0570  1.3313
11016TIP3    H254540   0.891   2.128  14.349 -1.9530  1.1456 -0.8228
11017TIP3   OH254541   1.098   0.752  13.144 -0.3238 -0.3354  0.5192
11017TIP3    H154542   1.057   0.790  13.066 -0.2761 -1.9436 -0.3489
11017TIP3    H254543   1.044   0.675  13.163 -0.4103  0.0987  2.1858
11018TIP3   OH254544   2.510   5.354   5.594 -0.5670  0.1390 -0.0858
11018TIP3    H154545   2.462   5.431   5.625 -0.9221 -0.4020  0.7139
11018TIP3    H254546   2.549   5.316   5.672  0.9893  0.4158 -0.6792
11019TIP3   OH254547   5.997   4.163   5.553  0.4375 -0.0847  0.0480
11019TIP3    H154548   6.047   4.173   5.634  0.6641 -0.1986 -0.0771
11019TIP3    H254549   5.968   4.252   5.532 -2.2559 -0.3951  1.9092
11020TIP3   OH254550   5.392   6.683   2.339 -0.2028 -0.2587  0.4701
11020TIP3    H154551   5.419   6.690   2.431 -0.9113  1.8526  0.5880
11020TIP3    H254552   5.303   6.719   2.338 -0.4328 -0.8183 -0.9516
11021TIP3   OH254553   1.724   0.160   5.608 -0.1121 -0.7705  0.0995
11021TIP3    H154554   1.769   0.219   5.669 -2.3829 -1.0416  2.1937
11021TIP3    H254555   1.678   0.218   5.548  1.4273 -0.4940 -0.8653
11022TIP3   OH254556   2.471   0.358  13.139  0.2900  0.6741 -0.2745
11022TIP3    H154557   2.404   0.365  13.071  0.5162  1.0490 -0.4621
11022TIP3    H254558   2.543   0.310  13.096  0.2359  0.4775 -0.1458
11023TIP3   OH254559   3.380   1.634   4.706 -0.3194 -0.1541 -0.4047
11023TIP3    H154560   3.362   1.569   4.774  2.5370 -0.8555 -0.1500
11023TIP3    H254561   3.435   1.587   4.642  1.4615  1.8078 -0.4451
11024TIP3   OH254562   3.764   4.753   3.469 -0.1020 -0.1015  0.6091
11024TIP3    H154563   3.836   4.809   3.439  0.2973 -0.2634  1.2578
11024TIP3    H254564   3.695   4.767   3.404  1.2697 -1.6005 -1.2989
11025TIP3   OH254565   3.454   6.621  15.137  0.5659  0.5490  0.0170
11025TIP3    H154566   3.486   6.619  15.227  1.6575  1.3256 -0.3369
11025TIP3    H254567   3.501   6.549  15.094 -0.0862  0.0655  0.1015
11026TIP3   OH254568   0.462   4.150  12.379 -0.1792  0.5709  0.2219
11026TIP3    H154569   0.522   4.145  12.305  0.6815 -0.5282  0.9735
11026TIP3    H254570   0.375   4.140  12.339  0.0862  2.3003 -0.8825
11027TIP3   OH254571   0.225   3.888  11.704 -0.0609  0.6357 -0.0198
11027TIP3    H154572   0.193   3.804  11.672  0.8698  0.0509  0.5733
11027TIP3    H254573   0.205   3.949  11.632  0.0137 -0.2378 -0.8025
11028TIP3   OH254574   3.761   1.842   4.701 -0.5481  0.2523  0.0474
11028TIP3    H154575   3.687   1.891   4.666 -1.7234 -0.0966  1.8953
11028TIP3    H254576   3.731   1.812   4.787  0.7328 -2.2914 -0.3010
11029TIP3   OH254577   5.143   2.129  12.378  0.1886  0.6016 -0.4335
11029TIP3    H154578   5.142   2.169  12.291  0.0477  0.2918 -0.5794
11029TIP3    H254579   5.062   2.077  12.380  0.7433 -0.2867 -0.5439
11030TIP3   OH254580   2.119   2.470  16.890  0.0223  0.3098  0.0104
11030TIP3    H154581   2.081   2.535  16.832 -0.9644  1.5273  1.9103
11030TIP3    H254582   2.175   2.521  16.949 -0.9733 -0.5013  1.7121
11031TIP3   OH254583   5.824   4.140   3.597 -0.3054  0.5637 -0.3223
11031TIP3    H154584   5.845   4.150   3.503  1.1320  0.9608  0.0038
11031TIP3    H254585   5.910   4.129   3.639 -1.0085 -0.7944  0.8328
11032TIP3   OH254586   4.181   2.073  13.243 -0.7514 -0.6634 -0.1489
11032TIP3    H154587   4.223   2.158  13.236 -0.7866 -0.6124  0.2476
11032TIP3    H254588   4.132   2.076  13.325 -0.7165 -1.0810 -0.1070
11033TIP3   OH254589   5.775   2.744   1.016  0.1264 -0.1016  0.0436
11033TIP3    H154590   5.822   2.715   0.937  0.6552  1.3982 -0.2235
11033TIP3    H254591   5.717   2.813   0.985 -1.2606 -0.9581  0.6312
11034TIP3   OH254592   4.896   3.587   3.533 -0.7862  0.4141 -0.1820
11034TIP3    H154593   4.877   3.648   3.461 -0.8692  2.3342  1.3668
11034TIP3    H254594   4.865   3.633   3.612  0.3072 -1.1307  1.2148
11035TIP3   OH254595   5.512   1.771   3.561 -0.3605 -0.1454 -0.4370
11035TIP3    H154596   5.475   1.820   3.635 -1.1091 -0.6971 -0.4367
11035TIP3    H254597   5.595   1.815   3.543  0.2331 -0.4962  1.2471
11036TIP3   OH254598   0.917   0.545   3.087 -0.4113 -0.5293 -0.0580
11036TIP3    H154599   0.997   0.533   3.036 -0.0463  0.0447  0.3694
11036TIP3    H254600   0.854   0.486   3.046  0.1599 -0.8149 -0.5475
11037TIP3   OH254601   1.945   1.674  16.441  0.3779 -0.7206 -0.1163
11037TIP3    H154602   1.990   1.653  16.523 -1.1654 -1.3302  0.6294
11037TIP3    H254603   1.911   1.763  16.454  0.7497 -0.5413 -0.3806
11038TIP3   OH254604   6.225   4.175  13.322  0.0625  0.3804 -0.3135
11038TIP3    H154605   6.242   4.099  13.267  0.2224  1.4946 -1.8826
11038TIP3    H254606   6.304   4.228  13.315  0.8558 -0.2817  2.5386
11039TIP3   OH254607   0.754   4.096  12.477 -0.0414  0.4434  0.1809
11039TIP3    H154608   0.800   4.179  12.493 -1.7240  1.5737 -0.5812
11039TIP3    H254609   0.765   4.080  12.384 -1.3894  0.8836 -0.0725
11040TIP3   OH254610   1.689   3.517  14.016  0.0836 -0.2033  0.7763
11040TIP3    H154611   1.632   3.594  14.021  0.7530  0.2625  1.6262
11040TIP3    H254612   1.654   3.457  14.081  1.3262  0.6581  2.3423
11041TIP3   OH254613   0.992   0.784   0.635  0.0597  0.0957 -0.3619
11041TIP3    H154614   1.026   0.853   0.578 -1.5244  2.5503  1.4439
11041TIP3    H254615   1.052   0.783   0.709 -0.3431  0.0836 -0.0324
11042TIP3   OH254616   5.975   6.776   0.280 -0.1412 -0.1445 -0.5478
11042TIP3    H154617   5.893   6.728   0.288  0.1853 -0.6464 -0.1659
11042TIP3    H254618   6.042   6.708   0.269  0.2371  0.2528 -0.7441
11043TIP3   OH254619   3.168   1.080   5.217  0.2631  0.8350  0.0482
11043TIP3    H154620   3.074   1.068   5.202 -0.0798 -0.9024  2.7974
11043TIP3    H254621   3.197   0.996   5.253  3.0208  1.1556 -1.2163
11044TIP3   OH254622   4.052   5.956  14.170  0.2603 -0.2399 -0.1301
11044TIP3    H154623   4.116   5.906  14.220 -0.2730 -0.6768  0.1253
11044TIP3    H254624   3.998   6.000  14.237 -0.7885 -1.2421 -0.2839
11045TIP3   OH254625   5.186   5.130   5.597  0.4853  0.2724 -0.2044
11045TIP3    H154626   5.181   5.195   5.667 -1.1788 -1.0054  0.9445
11045TIP3    H254627   5.103   5.136   5.551  0.2042 -1.1286  0.0560
11046TIP3   OH254628   2.834   5.608   2.421  0.1222  0.1552 -0.4143
11046TIP3    H154629   2.879   5.587   2.502  0.6417 -0.6234 -0.8977
11046TIP3    H254630   2.787   5.690   2.440  1.5655  0.8813  0.1625
11047TIP3   OH254631   1.355   3.192  12.492  0.0914  0.0987  0.3272
11047TIP3    H154632   1.425   3.162  12.549 -0.1154  1.5677  1.4039
11047TIP3    H254633   1.292   3.119  12.492  0.8562 -0.5825  0.6273
11048TIP3   OH254634   4.222   3.496   0.040 -0.1930 -0.6921  0.5060
11048TIP3    H154635   4.233   3.591   0.048 -0.9241 -0.7348  2.8410
11048TIP3    H254636   4.310   3.463   0.021  0.2145  0.3774  0.4755
11049TIP3   OH254637   4.165   0.249   4.037 -0.2012 -0.0606 -0.7737
11049TIP3    H154638   4.125   0.202   3.964  0.0393 -0.5355 -0.6028
11049TIP3    H254639   4.092   0.292   4.081 -0.7936 -2.2240  0.5031
11050TIP3   OH254640   5.404   4.601  10.738 -0.0592 -0.8341  0.0838
11050TIP3    H154641   5.320   4.626  10.699 -0.2232 -0.0116  0.9259
11050TIP3    H254642   5.381   4.546  10.813  0.1991 -1.3155 -0.1836
11051TIP3   OH254643   4.781   2.257   3.444  0.1708 -0.1453  0.0161
11051TIP3    H154644   4.804   2.350   3.452 -0.7555  0.0022  1.3491
11051TIP3    H254645   4.845   2.221   3.383 -0.5497  1.7478 -1.9688
11052TIP3   OH254646   2.996   4.903  11.957  0.1016  0.0321  0.6784
11052TIP3    H154647   2.996   4.917  11.862  2.5669 -1.0876  0.4586
11052TIP3    H254648   2.977   4.990  11.993 -1.5306  0.3564 -0.7967
11053TIP3   OH254649   4.107   3.989   4.455  0.1994 -0.1538 -0.2891
11053TIP3    H154650   4.062   4.046   4.518  0.3510  1.2061 -1.3709
11053TIP3    H254651   4.039   3.929   4.424 -1.0267  2.0175 -2.0815
11054TIP3   OH254652   3.847   1.851  13.211  0.1096 -0.5375 -0.0408
11054TIP3    H154653   3.753   1.852  13.228  0.1590 -1.0889  0.2946
11054TIP3    H254654   3.862   1.769  13.164  0.5120 -0.7573  0.4618
11055TIP3   OH254655   2.250   1.427   1.696 -0.0526  0.0843  0.3198
11055TIP3    H154656   2.200   1.457   1.772  0.3557 -0.3087  0.7494
11055TIP3    H254657   2.284   1.507   1.656  1.1436  0.2186  1.5293
11056TIP3   OH254658   0.975   3.050  14.934  0.5087 -0.0066 -0.3612
11056TIP3    H154659   0.932   3.010  14.858  2.1040  0.3409 -1.4858
11056TIP3    H254660   0.963   2.986  15.004 -0.0457 -0.8452 -1.1877
11057TIP3   OH254661   0.800   0.875   5.629 -0.4214 -0.5338  0.6279
11057TIP3    H154662   0.783   0.915   5.715 -0.5645  2.5867 -0.7453
11057TIP3    H254663   0.723   0.896   5.577  1.0878  0.6169 -1.2511
11058TIP3   OH254664   5.672   1.099   3.377 -0.0783 -0.2758 -0.0181
11058TIP3    H154665   5.751   1.146   3.351  0.8326 -1.1039  1.1244
11058TIP3    H254666   5.656   1.037   3.306  1.4532 -1.4309  0.5867
11059TIP3   OH254667   0.861   5.587   1.319 -0.1611  0.1605 -0.0700
11059TIP3    H154668   0.852   5.497   1.349  3.2286 -0.2258  0.2469
11059TIP3    H254669   0.903   5.633   1.393 -0.1448  1.5243 -0.8820
11060TIP3   OH254670   2.015   3.164  10.707  0.3231 -0.6147  0.1550
11060TIP3    H154671   1.975   3.227  10.767 -0.2018 -0.5610 -0.2494
11060TIP3    H254672   2.051   3.218  10.636  2.5888 -0.4965  1.2970
11061TIP3   OH254673   2.030   3.580  11.885 -0.2073 -0.6062  0.1788
11061TIP3    H154674   2.011   3.657  11.832  2.7481  1.8134  2.3525
11061TIP3    H254675   1.965   3.582  11.955  0.5767  0.6929  0.9054
11062TIP3   OH254676   4.535   2.083  11.762 -0.1483  0.3198 -0.2525
11062TIP3    H154677   4.583   2.148  11.813  0.7609 -1.2054  0.9299
11062TIP3    H254678   4.443   2.109  11.769  0.3226  2.4352 -1.2953
11063TIP3   OH254679   2.662   1.948  13.760 -0.5694  0.0953  0.0368
11063TIP3    H154680   2.635   2.009  13.691 -0.4378 -0.6279 -0.6653
11063TIP3    H254681   2.702   1.875  13.713  0.3858  0.0262  0.9347
11064TIP3   OH254682   0.857   5.931  15.808 -0.0102  0.1554  0.1595
11064TIP3    H154683   0.844   5.985  15.730 -0.5916  0.0806  0.1991
11064TIP3    H254684   0.770   5.927  15.848 -0.0622 -1.1044 -0.0364
11065TIP3   OH254685   1.157   4.516  14.450  0.3034  0.6655 -0.1856
11065TIP3    H154686   1.206   4.596  14.430 -1.3398  2.2500  1.6561
11065TIP3    H254687   1.137   4.524  14.544  0.9527 -2.4472  0.3097
11066TIP3   OH254688   6.808   1.529   5.800 -0.0811 -0.5738  0.1424
11066TIP3    H154689   6.771   1.567   5.880 -1.0188  0.6526 -0.8237
11066TIP3    H254690   6.747   1.459   5.776  0.9279 -1.8548  1.2003
11067TIP3   OH254691   2.949   4.652  11.196 -0.5514  0.4011 -0.4276
11067TIP3    H154692   2.870   4.599  11.200 -0.1308 -0.1442  1.3047
11067TIP3    H254693   2.988   4.630  11.111 -0.6897 -1.6289 -0.0151
11068TIP3   OH254694   1.586   2.508  14.116 -0.4194  0.5466 -0.0623
11068TIP3    H154695   1.511   2.495  14.174  0.4324  0.2881  1.0246
11068TIP3    H254696   1.607   2.601  14.126 -1.2736  0.8920 -1.2525
11069TIP3   OH254697   0.878   1.762   3.613 -0.3379 -0.2260 -0.5806
11069TIP3    H154698   0.849   1.688   3.559  0.1510  0.1530 -1.3748
11069TIP3    H254699   0.802   1.821   3.615  0.0861  0.4099 -2.0322
11070TIP3   OH254700   6.160   2.329   5.967  0.1491 -0.0051  0.4788
11070TIP3    H154701   6.088   2.350   6.027 -0.2499 -0.8024  0.2852
11070TIP3    H254702   6.117   2.304   5.886  0.6941  1.9505 -0.4647
11071TIP3   OH254703   4.873   0.501  12.135 -0.0482  0.5148  0.2156
11071TIP3    H154704   4.937   0.538  12.196 -1.0462 -0.1691  1.7362
11071TIP3    H254705   4.884   0.407  12.143  0.0915  0.4103 -1.0182
11072TIP3   OH254706   5.983   6.069   3.837  0.1047 -0.0397  0.4780
11072TIP3    H154707   5.913   6.005   3.824 -0.9062  0.9073  1.0641
11072TIP3    H254708   6.063   6.016   3.844 -0.4790 -1.1123 -0.6471
11073TIP3   OH254709   1.860   2.917   5.355  0.2591  0.6129  0.4553
11073TIP3    H154710   1.903   2.861   5.420 -0.5473  1.1611  1.4779
11073TIP3    H254711   1.876   2.873   5.271  2.2710  0.4768  0.8624
11074TIP3   OH254712   0.231   4.806  14.434 -0.3403 -0.4287 -0.0384
11074TIP3    H154713   0.210   4.788  14.343 -2.0622 -2.4167  0.6465
11074TIP3    H254714   0.152   4.849  14.468 -1.3702 -3.1264  1.3207
11075TIP3   OH254715   4.010   1.637  16.352 -0.0980 -0.1082 -0.1151
11075TIP3    H154716   4.096   1.597  16.364  0.0043 -0.2001 -1.0662
11075TIP3    H254717   3.976   1.596  16.273 -1.0924 -0.1918  0.3464
11076TIP3   OH254718   1.085   4.358  16.636 -0.2668  0.5112 -1.0153
11076TIP3    H154719   1.153   4.361  16.703  0.2814 -1.7174 -1.4008
11076TIP3    H254720   1.134   4.349  16.554 -0.9933 -0.8443 -1.3192
11077TIP3   OH254721   5.484   6.011   5.792  0.3514 -0.1582 -0.0396
11077TIP3    H154722   5.571   6.034   5.825  0.0806 -0.1274  0.6885
11077TIP3    H254723   5.500   5.973   5.706  1.0680  0.0040  0.0114
11078TIP3   OH254724   3.220   4.469  11.621  0.6468 -0.0559 -0.3853
11078TIP3    H154725   3.147   4.527  11.638  0.1546 -0.7114 -0.2106
11078TIP3    H254726   3.259   4.453  11.707  2.9011  2.6620 -0.7408
11079TIP3   OH254727   1.179   2.655   6.572 -0.1368  0.0890  0.2910
11079TIP3    H154728   1.130   2.699   6.503 -0.4678  0.0675  0.5132
11079TIP3    H254729   1.145   2.692   6.654 -0.8199 -0.9813  0.5039
11080TIP3   OH254730   1.702   5.971   3.997  0.1548 -0.0878 -0.1645
11080TIP3    H154731   1.656   6.010   3.922  0.0481 -1.3740 -0.7993
11080TIP3    H254732   1.700   6.039   4.064 -2.3082  0.0939 -0.3158
11081TIP3   OH254733   2.951   0.743  11.020  0.3583  0.4972  0.5116
11081TIP3    H154734   2.916   0.672  11.073 -0.0707 -2.1141 -2.9259
11081TIP3    H254735   3.044   0.725  11.013  0.3023  0.3988 -0.1091
11082TIP3   OH254736   4.633   1.622   4.380 -0.0044 -0.6594  0.1158
11082TIP3    H154737   4.590   1.544   4.416  1.2718 -2.0951 -1.3347
11082TIP3    H254738   4.568   1.691   4.388 -0.6154 -1.4297  2.9593
11083TIP3   OH254739   5.715   2.890  14.796 -0.4543  0.1047 -0.1426
11083TIP3    H154740   5.707   2.928  14.884 -1.1278 -0.1354 -0.0931
11083TIP3    H254741   5.646   2.933  14.745  0.1526  0.4918 -0.6536
11084TIP3   OH254742   2.110   3.451   3.751  0.1865 -0.0531  0.1856
11084TIP3    H154743   2.094   3.541   3.780  1.2243  0.8184 -1.7220
11084TIP3    H254744   2.197   3.430   3.785 -1.0091 -1.3023  2.6796
11085TIP3   OH254745   0.768   3.872  16.230 -0.3861  0.4016 -0.3384
11085TIP3    H154746   0.737   3.945  16.177  0.2654 -0.9384 -2.7013
11085TIP3    H254747   0.861   3.865  16.210  0.2206  0.6339  2.0533
11086TIP3   OH254748   5.662   0.245  10.510 -0.1296  0.1757 -0.3004
11086TIP3    H154749   5.606   0.322  10.519 -0.7654 -0.4447  1.4138
11086TIP3    H254750   5.608   0.181  10.462  0.0865  0.4772 -0.9591
11087TIP3   OH254751   3.851   6.668   5.952 -1.0797 -0.4074 -0.0613
11087TIP3    H154752   3.760   6.680   5.979 -0.9453  0.3554  0.0753
11087TIP3    H254753   3.852   6.692   5.860 -0.8364  0.5210  0.1760
11088TIP3   OH254754   2.828   4.640   2.410 -0.2476  0.3238 -0.5375
11088TIP3    H154755   2.884   4.667   2.482 -0.9113 -1.1546  0.5798
11088TIP3    H254756   2.865   4.557   2.380 -0.9339  0.1108 -0.8149
11089TIP3   OH254757   6.532   4.522   5.129 -0.3998 -0.0289 -0.5658
11089TIP3    H154758   6.495   4.449   5.078  0.1932 -0.8306  0.1206
11089TIP3    H254759   6.522   4.598   5.072  0.0999 -0.8629 -1.8291
11090TIP3   OH254760   4.403   2.486  11.816 -0.3652  0.6751 -0.2870
11090TIP3    H154761   4.459   2.557  11.848 -0.1267  0.3450  0.0238
11090TIP3    H254762   4.433   2.408  11.863 -0.5139  0.3341 -0.7532
11091TIP3   OH254763   4.388   0.402   3.969 -0.0602  0.2578 -0.6498
11091TIP3    H154764   4.324   0.335   3.993 -0.4120  0.3552 -1.2994
11091TIP3    H254765   4.339   0.484   3.966  0.6392  0.8476  1.5615
11092TIP3   OH254766   3.762   1.891  12.816  0.0911  0.0144 -0.6045
11092TIP3    H154767   3.810   1.890  12.899 -2.2153  0.1199  0.8172
11092TIP3    H254768   3.812   1.833  12.759  1.7083 -0.1365  0.8819
11093TIP3   OH254769   6.670   5.362  11.975  0.2260 -0.2837  0.3039
11093TIP3    H154770   6.605   5.367  12.045  1.1487  0.7368  1.1430
11093TIP3    H254771   6.624   5.324  11.901 -0.4240 -2.8419  1.8922
11094TIP3   OH254772   1.786   5.926   5.777 -0.0805 -0.6445 -0.6163
11094TIP3    H154773   1.801   6.016   5.804  1.9602 -0.8057 -1.0367
11094TIP3    H254774   1.704   5.901   5.820  0.1817  0.8661  0.8647
11095TIP3   OH254775   0.540   4.676   3.764 -0.2522 -0.1682  0.3603
11095TIP3    H154776   0.574   4.595   3.725  1.7163 -0.3415  2.1955
11095TIP3    H254777   0.491   4.646   3.841 -0.9072  0.3199  0.1354
11096TIP3   OH254778   1.036   4.221  13.088 -0.8437  0.3748  0.1407
11096TIP3    H154779   1.009   4.175  13.008 -1.8091  1.7620 -0.3747
11096TIP3    H254780   1.132   4.225  13.082 -0.8970  0.4560 -0.9588
11097TIP3   OH254781   5.893   2.620  15.358 -0.2414  0.0158 -0.3370
11097TIP3    H154782   5.833   2.546  15.368  0.0848 -0.1808  0.2413
11097TIP3    H254783   5.855   2.689  15.414 -0.2077  0.0694 -0.3806
11098TIP3   OH254784   3.336   2.913   0.050 -0.0051 -0.0505  0.0485
11098TIP3    H154785   3.327   2.826   0.089  0.8656 -0.5214 -0.7751
11098TIP3    H254786   3.401   2.902  -0.019  0.5911  1.3947  0.3533
11099TIP3   OH254787   3.675   2.168  14.076 -0.1698 -0.1636 -0.4968
11099TIP3    H154788   3.750   2.147  14.131 -0.1230  0.9126 -0.1327
11099TIP3    H254789   3.621   2.226  14.129 -0.0080  1.0839 -1.6424
11100TIP3   OH254790   2.212   4.112   3.746  0.1044 -0.3110 -0.3672
11100TIP3    H154791   2.291   4.153   3.711 -0.2434  1.1337  0.4731
11100TIP3    H254792   2.232   4.094   3.838 -1.0294  1.4816  0.2782
11101TIP3   OH254793   5.978   1.849  12.146  0.6267 -0.0805 -0.5183
11101TIP3    H154794   5.999   1.833  12.054  0.7656  1.4034 -0.7710
11101TIP3    H254795   5.957   1.762  12.181  0.5034 -0.6652 -1.9563
11102TIP3   OH254796   1.361   2.889   3.018 -0.5021 -0.3194  0.1396
11102TIP3    H154797   1.357   2.981   2.991 -1.4687 -0.3096  0.2683
11102TIP3    H254798   1.271   2.857   3.008 -0.3250 -1.0560  0.7674
11103TIP3   OH254799   0.419   6.519   3.700  0.3551  0.0007  0.4974
11103TIP3    H154800   0.404   6.463   3.624 -0.5513  2.4022 -1.2133
11103TIP3    H254801   0.342   6.576   3.704  1.5313  1.6150  1.6503
11104TIP3   OH254802   0.597   2.665  15.425 -0.3807 -0.6391 -0.4332
11104TIP3    H154803   0.607   2.573  15.452  0.7279 -0.5149 -0.3748
11104TIP3    H254804   0.627   2.666  15.335 -1.7675 -0.5879 -0.9178
11105TIP3   OH254805   4.394   3.233  15.160  0.4568 -0.0514 -0.2987
11105TIP3    H154806   4.303   3.254  15.181  0.1593 -1.3776 -0.1365
11105TIP3    H254807   4.442   3.314  15.174 -0.4564  0.2645  1.1269
11106TIP3   OH254808   1.964   5.872  16.254 -0.0444  0.2512  0.0452
11106TIP3    H154809   1.977   5.910  16.167  0.0055 -1.9529 -0.9844
11106TIP3    H254810   1.869   5.864  16.262 -0.0249 -0.1259 -0.0848
11107TIP3   OH254811   4.825   0.281   2.702  0.8223  0.0748 -0.3102
11107TIP3    H154812   4.760   0.302   2.634  1.7115 -1.3687 -1.6686
11107TIP3    H254813   4.781   0.303   2.784 -2.3097 -2.8708 -0.9696
11108TIP3   OH254814   5.367   3.196   4.622 -0.3308 -0.0797 -0.8533
11108TIP3    H154815   5.390   3.182   4.531  0.2667  0.2526 -0.7649
11108TIP3    H254816   5.389   3.288   4.638  1.0627 -0.5365  0.0358
11109TIP3   OH254817   5.646   1.709   4.531  0.5419  0.1950 -0.4542
11109TIP3    H154818   5.728   1.758   4.543  0.4740  0.5125 -1.2309
11109TIP3    H254819   5.668   1.619   4.556  1.2827  0.1701 -1.1277
11110TIP3   OH254820   6.797   4.485  14.033 -0.1636  0.7047 -0.1896
11110TIP3    H154821   6.758   4.452  13.953  1.3013  1.4516 -1.2799
11110TIP3    H254822   6.876   4.432  14.045 -0.3628  0.6064  0.7700
11111TIP3   OH254823   5.767   1.427   5.766  0.1651  0.3860  0.0053
11111TIP3    H154824   5.860   1.451   5.759  0.3370  0.0233  0.8639
11111TIP3    H254825   5.748   1.381   5.684  0.7239  0.5227 -0.2066
11112TIP3   OH254826   0.360   3.824  11.061  0.1288 -0.6497 -0.1545
11112TIP3    H154827   0.421   3.813  10.988 -0.4859  1.2112 -1.0212
11112TIP3    H254828   0.415   3.839  11.137  0.7753  0.3812 -0.8063
11113TIP3   OH254829   6.667   6.754   3.531 -0.6116  0.0481 -0.3116
11113TIP3    H154830   6.662   6.699   3.453  2.2379 -1.3938  0.3915
11113TIP3    H254831   6.701   6.696   3.599  3.0349  2.6190  0.3795
11114TIP3   OH254832   3.733   3.244  10.832  0.0355 -0.0257 -0.1656
11114TIP3    H154833   3.664   3.303  10.861  0.7785  0.6548  0.2376
11114TIP3    H254834   3.700   3.208  10.749 -0.0342  1.6795 -0.9256
11115TIP3   OH254835   5.280   4.492  17.190  0.3541  0.1156  0.2364
11115TIP3    H154836   5.356   4.435  17.176  0.3102 -0.2168  1.2609
11115TIP3    H254837   5.285   4.555  17.119 -0.6499 -2.2576 -2.1270
11116TIP3   OH254838   2.834   0.655   5.973 -0.7039  0.0836  0.3048
11116TIP3    H154839   2.818   0.727   5.911  3.1579  1.1580  0.2882
11116TIP3    H254840   2.815   0.693   6.059 -3.1155 -0.4600  0.0959
11117TIP3   OH254841   4.624   2.119  12.144  0.1063  0.0194 -0.2291
11117TIP3    H154842   4.576   2.038  12.126  1.2237 -0.7753  0.2626
11117TIP3    H254843   4.613   2.132  12.239 -1.1020  1.1481 -0.4917
11118TIP3   OH254844   3.117   5.277  15.770  0.4247 -0.1951  0.1799
11118TIP3    H154845   3.122   5.337  15.695 -0.4320  0.2462  0.4546
11118TIP3    H254846   3.041   5.222  15.752  0.8895 -0.8410  0.1886
11119TIP3   OH254847   3.081   5.279  16.043  0.1836 -0.9568 -0.1363
11119TIP3    H154848   3.052   5.369  16.054 -1.6254 -1.4570 -0.4752
11119TIP3    H254849   3.099   5.271  15.949  1.2445 -0.7103  0.0377
11120TIP3   OH254850   2.910   2.626  15.153 -0.3355 -0.1618 -0.7155
11120TIP3    H154851   2.983   2.581  15.196  0.5147  0.4066 -1.5304
11120TIP3    H254852   2.837   2.566  15.163  0.1081 -0.5464  0.5291
11121TIP3   OH254853   0.578   5.388   2.371  0.2658 -0.3679  0.0253
11121TIP3    H154854   0.633   5.465   2.357 -1.8353  1.1670 -0.2059
11121TIP3    H254855   0.512   5.393   2.302 -0.4886 -1.8582  0.5910
11122TIP3   OH254856   3.843   0.691  15.878  0.1602 -0.8393 -0.0922
11122TIP3    H154857   3.892   0.728  15.952 -0.6694  0.0444  0.0426
11122TIP3    H254858   3.762   0.660  15.916 -1.5448  2.1522 -0.9364
11123TIP3   OH254859   2.722   4.500  13.633 -0.1234 -0.1729 -0.9199
11123TIP3    H154860   2.686   4.499  13.722 -1.9158  1.0044 -1.5902
11123TIP3    H254861   2.772   4.418  13.627 -1.9702 -1.4637  0.3612
11124TIP3   OH254862   0.128   3.354  13.607  0.5471 -0.6669  0.4950
11124TIP3    H154863   0.130   3.343  13.702 -1.5709  0.0268  0.6740
11124TIP3    H254864   0.180   3.433  13.591 -0.0261 -0.1186  1.2316
11125TIP3   OH254865   2.956   4.372  10.913  0.3487 -0.1656  0.1168
11125TIP3    H154866   2.885   4.418  10.959 -0.2188 -1.3349  0.4345
11125TIP3    H254867   2.928   4.281  10.911  1.4496 -0.5005 -0.5374
11126TIP3   OH254868   2.397   0.666  14.907 -0.3497  0.1403  0.4560
11126TIP3    H154869   2.435   0.613  14.837 -0.9402 -0.4846  0.5887
11126TIP3    H254870   2.377   0.750  14.866  1.7592  0.7304  0.5543
11127TIP3   OH254871   2.119   5.697   1.021 -0.2778 -0.1817 -0.0699
11127TIP3    H154872   2.067   5.732   1.093 -0.1274  0.4361 -0.2502
11127TIP3    H254873   2.063   5.707   0.944  0.4814  1.5304 -0.4607
11128TIP3   OH254874   2.984   6.526   1.204  0.0437 -0.0200 -0.2772
11128TIP3    H154875   3.063   6.523   1.150  0.0280 -0.7615 -0.2648
11128TIP3    H254876   3.016   6.540   1.293  0.2630 -1.6271 -0.0796
11129TIP3   OH254877   1.005   2.814  13.043  0.4044  0.6079  0.3725
11129TIP3    H154878   1.029   2.905  13.061  1.0820  0.6227 -0.5306
11129TIP3    H254879   0.963   2.818  12.957  1.0035 -0.0208  0.0493
11130TIP3   OH254880   6.275   3.470   5.372 -0.1294  0.1211  0.7968
11130TIP3    H154881   6.365   3.469   5.405  0.0615  3.3079  0.6272
11130TIP3    H254882   6.283   3.448   5.279  0.3536 -0.4319  0.9637
11131TIP3   OH254883   0.652   0.742   3.548 -0.1445  0.3216 -0.7073
11131TIP3    H154884   0.701   0.729   3.467  0.5608 -1.7949 -0.0041
11131TIP3    H254885   0.677   0.668   3.604  0.2889  2.2816  1.9117
11132TIP3   OH254886   2.886   0.449   0.184 -0.6505 -0.2351 -0.1864
11132TIP3    H154887   2.957   0.503   0.219  0.5725 -0.5945 -1.9739
11132TIP3    H254888   2.875   0.479   0.094 -0.9598 -1.9196 -0.7504
11133TIP3   OH254889   6.728   5.925  11.814  0.6135 -0.5080  0.0931
11133TIP3    H154890   6.714   5.930  11.909 -1.1881 -0.0611 -0.1462
11133TIP3    H254891   6.665   5.859  11.785  0.7349 -0.2089 -0.8673
11134TIP3   OH254892   6.386   1.994  11.304 -0.2536 -0.2021  0.3115
11134TIP3    H154893   6.302   2.037  11.286  1.0731  3.5308  1.9788
11134TIP3    H254894   6.368   1.938  11.379 -1.2597  0.5491  0.6592
11135TIP3   OH254895   5.052   2.332   1.480 -0.0626  0.3403  0.0744
11135TIP3    H154896   4.966   2.372   1.469  0.3556  1.3654  0.4604
11135TIP3    H254897   5.106   2.371   1.412  0.5921  1.1586  1.0358
11136TIP3   OH254898   3.447   4.626   6.341 -0.0883  0.1543  0.1054
11136TIP3    H154899   3.418   4.715   6.365 -2.4517  0.6646 -3.7411
11136TIP3    H254900   3.390   4.568   6.392 -1.3803  1.0033 -0.3068
11137TIP3   OH254901   0.057   3.607   5.910  0.3378 -0.6327 -0.1169
11137TIP3    H154902   0.072   3.698   5.886  3.1065 -0.8787  0.3310
11137TIP3    H254903   0.058   3.607   6.006  0.3624 -1.1439 -0.1144
11138TIP3   OH254904   2.130   6.090   4.220 -0.1352 -0.2190  0.1748
11138TIP3    H154905   2.061   6.117   4.281 -0.7557  0.7288 -0.8988
11138TIP3    H254906   2.211   6.116   4.263 -0.4986 -0.4488  1.0242
11139TIP3   OH254907   5.983   0.599   5.392 -0.1447 -0.6562  0.2543
11139TIP3    H154908   5.991   0.694   5.383  0.2148 -0.6580  0.5216
11139TIP3    H254909   6.028   0.563   5.316 -1.5447 -0.5996 -0.6436
11140TIP3   OH254910   0.511   4.303   5.682 -0.0688 -0.5056  0.4848
11140TIP3    H154911   0.592   4.297   5.732  1.5154 -1.1459 -1.9436
11140TIP3    H254912   0.529   4.370   5.616 -1.8099 -0.1464  0.3391
11141TIP3   OH254913   6.806   0.756   3.437 -0.1959 -0.8627 -0.2832
11141TIP3    H154914   6.824   0.714   3.353  0.7672 -1.7586  0.3489
11141TIP3    H254915   6.891   0.787   3.467 -0.3388 -1.5082  0.8547
11142TIP3   OH254916   2.385   2.252  15.815  0.5864 -0.2068  0.4672
11142TIP3    H154917   2.346   2.174  15.775  1.6814 -0.6467  0.2085
11142TIP3    H254918   2.425   2.299  15.742  2.2195 -0.7876  0.9475
11143TIP3   OH254919   4.489   0.446  15.277 -0.2178 -0.3827  0.6253
11143TIP3    H154920   4.450   0.430  15.191 -1.4080  0.0023  1.0738
11143TIP3    H254921   4.582   0.429  15.264 -0.4710 -1.0143 -0.5646
11144TIP3   OH254922   4.048   1.480  13.870  0.6874  0.1803  0.1010
11144TIP3    H154923   3.961   1.507  13.839  0.8906  0.5510 -0.1623
11144TIP3    H254924   4.034   1.450  13.960  0.2780  0.1891  0.0409
11145TIP3   OH254925   4.099   5.189   2.278 -0.5886 -0.0331  0.2030
11145TIP3    H154926   4.162   5.117   2.271  0.0299  0.5969 -1.3448
11145TIP3    H254927   4.100   5.229   2.191 -1.0083  1.7625  0.9792
11146TIP3   OH254928   4.815   0.632   6.416  0.3121  0.1573  0.0900
11146TIP3    H154929   4.843   0.616   6.326  0.4182 -0.0165  0.1528
11146TIP3    H254930   4.805   0.727   6.422 -2.1968  0.0414 -0.8509
11147TIP3   OH254931   5.404   5.646  11.292 -0.1515  0.0677  0.1929
11147TIP3    H154932   5.346   5.711  11.251  0.1919  0.9954  1.1348
11147TIP3    H254933   5.365   5.562  11.269 -1.4661  0.6450  0.2012
11148TIP3   OH254934   1.251   1.225  13.655  0.1964  0.3206  0.1427
11148TIP3    H154935   1.201   1.239  13.575 -0.4518  1.2146  0.6814
11148TIP3    H254936   1.248   1.310  13.700  1.4268  0.1314  0.6285
11149TIP3   OH254937   1.229   1.293  12.610 -0.6410 -0.3006 -0.8462
11149TIP3    H154938   1.265   1.207  12.632  0.3971 -0.0012 -1.3215
11149TIP3    H254939   1.200   1.284  12.519 -0.5159 -0.1404 -0.9026
11150TIP3   OH254940   4.623   5.558  12.701  0.0835 -0.7381  0.2917
11150TIP3    H154941   4.646   5.632  12.756  1.6452 -2.9962  2.9178
11150TIP3    H254942   4.552   5.514  12.747  0.0038 -1.5566 -0.5745
11151TIP3   OH254943   1.844   5.035  13.817 -0.1469 -0.4420  0.2214
11151TIP3    H154944   1.930   4.994  13.828  0.0896 -0.8215 -2.5079
11151TIP3    H254945   1.798   4.979  13.754 -0.7876  2.0118 -1.6497
11152TIP3   OH254946   1.755   3.188   1.904 -0.5655 -0.3028  0.5836
11152TIP3    H154947   1.777   3.281   1.892 -1.3707 -0.3358 -1.5752
11152TIP3    H254948   1.711   3.185   1.989  0.2948  1.1206  1.1200
11153TIP3   OH254949   0.085   1.246  12.293 -0.2310  0.6324 -0.0256
11153TIP3    H154950   0.068   1.298  12.215 -1.9140  0.8731  0.4580
11153TIP3    H254951   0.179   1.228  12.290 -0.0518  1.6335 -1.4718
11154TIP3   OH254952   1.507   2.687  14.408 -0.3634 -0.5653 -0.1520
11154TIP3    H154953   1.434   2.746  14.388  0.8863  0.4044 -2.1357
11154TIP3    H254954   1.483   2.605  14.365 -0.7395 -0.6046  0.1172
11155TIP3   OH254955   0.172   6.618   3.692 -0.6591  0.1794  0.3486
11155TIP3    H154956   0.147   6.701   3.652 -0.4243  0.4779  0.8109
11155TIP3    H254957   0.108   6.555   3.659 -1.6386  0.8004  1.0116
11156TIP3   OH254958   2.445   4.326  14.050 -0.3175  0.2231 -0.6961
11156TIP3    H154959   2.389   4.257  14.085 -0.1949  2.1065  3.9161
11156TIP3    H254960   2.534   4.295  14.065 -0.2397  0.5556 -0.4576
11157TIP3   OH254961   0.284   6.329   5.683 -0.2181  0.6758  0.5456
11157TIP3    H154962   0.363   6.374   5.654  1.3631 -1.3493  1.4208
11157TIP3    H254963   0.278   6.252   5.627 -1.6408  0.8535  0.4322
11158TIP3   OH254964   1.911   3.868   2.850  0.3653 -0.0922 -0.6091
11158TIP3    H154965   1.989   3.908   2.888  0.0253 -0.4097  0.4537
11158TIP3    H254966   1.865   3.941   2.807  1.0109  0.1785 -0.8514
11159TIP3   OH254967   1.625   2.358  17.202  0.3260 -0.2525 -0.2080
11159TIP3    H154968   1.624   2.336  17.295 -0.1076  1.4643  0.2301
11159TIP3    H254969   1.716   2.346  17.176  0.2968 -1.5604  0.2046
11160TIP3   OH254970   1.742   1.870   3.716 -0.3947 -0.0862  0.0151
11160TIP3    H154971   1.763   1.875   3.809 -1.5262 -1.4236  0.3795
11160TIP3    H254972   1.684   1.793   3.708  1.2933 -1.2729 -2.0688
11161TIP3   OH254973   5.881   2.256   0.261  0.2027 -0.1233  0.2772
11161TIP3    H154974   5.884   2.242   0.167  1.0271  1.5073  0.0299
11161TIP3    H254975   5.862   2.349   0.272  1.4976  0.0210  1.6969
11162TIP3   OH254976   0.465   2.626   2.737  0.4272 -0.5641 -0.1508
11162TIP3    H154977   0.528   2.610   2.667  1.9959 -0.2539  1.1141
11162TIP3    H254978   0.510   2.689   2.795  0.0400 -2.2866  2.1474
11163TIP3   OH254979   5.031   2.101   5.873  0.3177 -0.0927 -0.2213
11163TIP3    H154980   5.094   2.104   5.801 -0.4272 -0.0751 -0.8950
11163TIP3    H254981   4.954   2.147   5.839 -0.1615 -0.3637  0.4738
11164TIP3   OH254982   6.291   3.079   5.210  0.6671 -0.3475  0.3180
11164TIP3    H154983   6.225   3.126   5.159 -0.1927 -0.5112  1.2274
11164TIP3    H254984   6.355   3.049   5.146 -0.5315 -0.8120 -0.7038
11165TIP3   OH254985   4.406   2.034  14.285 -0.6313 -0.0051 -0.8675
11165TIP3    H154986   4.317   1.997  14.281 -1.8636  2.6798 -0.3681
11165TIP3    H254987   4.406   2.104  14.220  0.3451  1.5203  0.6978
11166TIP3   OH254988   0.540   4.447  14.196 -0.2185  0.4666  0.4591
11166TIP3    H154989   0.522   4.354  14.212  0.6480  0.1481 -0.2983
11166TIP3    H254990   0.628   4.461  14.231  0.0343  0.7668 -0.2810
11167TIP3   OH254991   2.397   1.822  10.830 -0.0686 -0.3833 -0.2300
11167TIP3    H154992   2.372   1.731  10.815 -1.7377  0.0348 -0.1907
11167TIP3    H254993   2.347   1.871  10.766  0.5062  0.5509  0.0200
11168TIP3   OH254994   5.681   3.610   1.033  0.3014 -0.5590 -0.2937
11168TIP3    H154995   5.620   3.555   1.083  1.5256 -1.6919 -0.0030
11168TIP3    H254996   5.688   3.566   0.948  1.0591 -0.6813 -0.1671
11169TIP3   OH254997   3.181   5.071   3.153 -0.3607  0.1769 -0.5076
11169TIP3    H154998   3.240   5.124   3.206 -1.0954 -0.4965  1.0324
11169TIP3    H254999   3.124   5.135   3.110  0.2190  0.7341 -0.4685
11170TIP3   OH255000   1.934   2.894   3.637 -0.5102 -0.1088  0.3442
11170TIP3    H155001   1.847   2.914   3.672 -0.1171  0.8347  0.8257
11170TIP3    H255002   1.994   2.937   3.697  0.3795 -2.1304  0.9561
11171TIP3   OH255003   1.503   4.699   5.594  0.0477 -0.7394 -0.4772
11171TIP3    H155004   1.527   4.635   5.527  0.4386 -1.2415  0.1419
11171TIP3    H255005   1.471   4.775   5.544 -1.2769 -1.7420 -1.2065
11172TIP3   OH255006   2.856   1.881  15.871  0.1370  0.4166 -0.0902
11172TIP3    H155007   2.761   1.865  15.875 -0.1694  1.6734 -1.1865
11172TIP3    H255008   2.865   1.972  15.900  0.6510  1.2101 -2.5062
11173TIP3   OH255009   5.572   1.793   1.843 -0.6054  0.1217 -0.1071
11173TIP3    H155010   5.626   1.808   1.920 -0.8754  1.0790 -0.0937
11173TIP3    H255011   5.488   1.835   1.863 -0.4597  0.9848 -1.1712
11174TIP3   OH255012   0.287   1.831  10.985  0.3609  0.3639  0.2650
11174TIP3    H155013   0.369   1.785  11.004  0.2755 -0.3881 -1.0850
11174TIP3    H255014   0.231   1.765  10.945 -0.9147  0.8782  1.1276
11175TIP3   OH255015   5.624   6.409  11.194 -0.1525  0.0312  0.6077
11175TIP3    H155016   5.601   6.370  11.109  2.0558 -0.7316  0.3007
11175TIP3    H255017   5.603   6.342  11.258 -0.5919  0.0997  0.5372
11176TIP3   OH255018   3.144   5.708   3.125 -0.4830 -0.5297  0.1701
11176TIP3    H155019   3.217   5.646   3.134  0.3302  0.3273 -0.3712
11176TIP3    H255020   3.124   5.735   3.214  0.1252 -0.4878  0.2994
11177TIP3   OH255021   6.330   3.234   3.836 -0.0331 -0.0143 -0.5977
11177TIP3    H155022   6.420   3.242   3.869 -0.2426  2.7553 -0.3995
11177TIP3    H255023   6.277   3.220   3.915  0.1099 -0.5246 -0.5889
11178TIP3   OH255024   4.024   5.167  15.236 -0.4458  0.1415 -0.1909
11178TIP3    H155025   3.988   5.116  15.164 -0.0117 -1.5012  0.7103
11178TIP3    H255026   3.964   5.151  15.309  1.2411 -1.4783  0.9265
11179TIP3   OH255027   3.237   1.015   0.269  0.0876  0.5636 -0.3304
11179TIP3    H155028   3.231   1.111   0.274 -0.3195  0.5049  0.4102
11179TIP3    H255029   3.329   0.998   0.250  0.0076  1.1256 -1.2931
11180TIP3   OH255030   6.758   0.795   6.736 -0.1711  0.2039  0.2053
11180TIP3    H155031   6.679   0.755   6.772  0.8102 -1.2243  0.8828
11180TIP3    H255032   6.785   0.736   6.665 -1.3602  2.2976 -2.1596
11181TIP3   OH255033   5.232   1.792   0.804 -0.3508 -0.2804 -0.4853
11181TIP3    H155034   5.171   1.858   0.836 -0.7926 -0.5471 -0.7502
11181TIP3    H255035   5.215   1.788   0.710  0.0148 -0.4214 -0.5450
11182TIP3   OH255036   2.702   4.065   4.695  0.6097 -0.4340  0.1821
11182TIP3    H155037   2.650   4.144   4.708  0.5997 -0.6904  1.9187
11182TIP3    H255038   2.732   4.041   4.783  1.1419 -2.0006 -0.3899
11183TIP3   OH255039   1.402   5.549   1.064 -0.4097 -0.7540  0.0418
11183TIP3    H155040   1.351   5.595   1.130  0.3456  0.7139 -0.3533
11183TIP3    H255041   1.339   5.526   0.996 -0.5836  0.9768 -0.4119
11184TIP3   OH255042   4.822   3.340  12.380 -0.2608 -0.3049 -0.3943
11184TIP3    H155043   4.852   3.309  12.466 -0.4809 -0.1527 -0.2612
11184TIP3    H255044   4.819   3.261  12.326  2.9506  0.0270 -1.2044
11185TIP3   OH255045   0.334   0.434  12.167 -0.2031 -0.8546 -0.0517
11185TIP3    H155046   0.389   0.511  12.184 -0.9363 -0.7124  1.8731
11185TIP3    H255047   0.395   0.367  12.139  0.5439  0.1821 -1.0376
11186TIP3   OH255048   1.158   0.873  12.083 -0.5138  0.4360 -0.4310
11186TIP3    H155049   1.240   0.829  12.102 -0.8358  0.6369  1.5986
11186TIP3    H255050   1.121   0.824  12.009  1.9527  1.1053 -2.2061
11187TIP3   OH255051   4.012   4.305  15.704  0.4964 -0.4712 -0.2092
11187TIP3    H155052   4.019   4.279  15.796 -0.6436  1.0392  0.3321
11187TIP3    H255053   3.942   4.249  15.669  0.1085 -0.2238  0.1601
11188TIP3   OH255054   0.354   3.528  16.383 -0.5649  0.5380 -0.2618
11188TIP3    H155055   0.289   3.591  16.414 -0.5910  0.0219  0.7790
11188TIP3    H255056   0.433   3.580  16.367 -0.1497  0.6741  1.9491
11189TIP3   OH255057   4.831   0.611  11.893  0.7265 -0.3502  0.0122
11189TIP3    H155058   4.742   0.641  11.907  1.2925  1.9360 -0.8553
11189TIP3    H255059   4.850   0.555  11.969 -1.8038 -1.9516 -0.4250
11190TIP3   OH255060   4.715   4.011  15.479 -0.4770  0.0353  0.1362
11190TIP3    H155061   4.693   4.003  15.571 -1.1664  0.2004 -0.0133
11190TIP3    H255062   4.677   4.095  15.452 -0.4382 -0.0983 -0.3417
11191TIP3   OH255063   2.263   5.743  17.194  0.3191 -0.1275 -0.2512
11191TIP3    H155064   2.215   5.794  17.129  1.0948 -0.1103 -0.8308
11191TIP3    H255065   2.308   5.676  17.143  0.0193 -0.8354  0.4044
11192TIP3   OH255066   6.649   6.183  14.210  0.0790 -0.0682  0.2196
11192TIP3    H155067   6.729   6.131  14.197  0.3742 -0.0203  1.6198
11192TIP3    H255068   6.645   6.197  14.305 -0.2354  2.0801 -0.0558
11193TIP3   OH255069   0.148   3.181   3.183  0.3873  0.5149 -0.2687
11193TIP3    H155070   0.088   3.168   3.110  0.3657 -1.3016  0.0242
11193TIP3    H255071   0.158   3.094   3.222  1.3522  1.2132  1.1452
11194TIP3   OH255072   1.878   2.225  15.621 -0.0854  0.2451 -0.6123
11194TIP3    H155073   1.972   2.236  15.611 -0.0237 -0.5699 -1.0464
11194TIP3    H255074   1.845   2.313  15.641  1.0189  0.2003  1.7726
11195TIP3   OH255075   0.285   1.266   4.057  0.3458 -0.0934 -0.6392
11195TIP3    H155076   0.294   1.288   3.964  1.4121 -1.5671 -0.9220
11195TIP3    H255077   0.373   1.280   4.093 -0.3945  1.9571  0.5436
11196TIP3   OH255078   1.845   5.938   4.547 -0.3705 -0.1572  0.0254
11196TIP3    H155079   1.816   5.896   4.628  0.0418 -1.0453 -0.2693
11196TIP3    H255080   1.798   5.891   4.478  0.4072 -0.4351 -0.3350
11197TIP3   OH255081   0.607   4.521   0.189 -1.1106  0.0586  0.2416
11197TIP3    H155082   0.684   4.521   0.132 -0.7666 -0.5497  0.6944
11197TIP3    H255083   0.565   4.437   0.172 -2.4106  0.8940 -0.9470
11198TIP3   OH255084   0.466   2.000  13.885 -0.9041 -0.0457  0.5766
11198TIP3    H155085   0.526   1.958  13.947  1.0668  3.9604  1.6851
11198TIP3    H255086   0.437   2.079  13.930 -1.4385  1.7398 -2.6492
11199TIP3   OH255087   4.765   1.493  12.108 -0.4532 -0.5897  0.9717
11199TIP3    H155088   4.778   1.409  12.064  0.8957  0.4566 -0.7760
11199TIP3    H255089   4.679   1.522  12.079 -0.5166 -0.9248  0.8157
11200TIP3   OH255090   4.651   3.996  14.446  0.0194 -0.3082 -0.1517
11200TIP3    H155091   4.576   4.055  14.442  0.3871  0.0974 -2.5799
11200TIP3    H255092   4.614   3.909  14.431 -0.0543 -0.1807 -0.7388
11201TIP3   OH255093   4.495   4.905   0.378 -0.2795  0.3101  0.2450
11201TIP3    H155094   4.420   4.847   0.394  1.2319 -2.1262 -0.8699
11201TIP3    H255095   4.567   4.866   0.428  1.0761  0.5121 -1.4604
11202TIP3   OH255096   5.430   4.695  12.251  0.7553  0.0394  0.0176
11202TIP3    H155097   5.340   4.663  12.254  0.2863  1.1244 -1.3625
11202TIP3    H255098   5.469   4.667  12.334 -1.9041  2.5210  2.3058
11203TIP3   OH255099   5.781   2.977   3.270  0.2824 -0.8006  0.1099
11203TIP3    H155100   5.770   3.051   3.211 -0.2647  0.2745  1.5041
11203TIP3    H255101   5.702   2.977   3.325 -0.1906 -3.0093 -0.4451
11204TIP3   OH255102   3.594   3.144   3.782  0.2480 -0.0880  0.3161
11204TIP3    H155103   3.539   3.221   3.798  1.2140  0.7986 -0.4334
11204TIP3    H255104   3.551   3.098   3.710 -1.0140 -0.9621  1.5923
11205TIP3   OH255105   4.648   5.897   3.001  0.0645 -0.1871 -0.4736
11205TIP3    H155106   4.614   5.832   3.063  0.8283  1.1605  1.4604
11205TIP3    H255107   4.590   5.890   2.925 -0.5516 -2.3334  0.1036
11206TIP3   OH255108   2.904   1.223  12.906  0.5589 -0.8025  0.2520
11206TIP3    H155109   2.930   1.241  12.815 -0.9635 -1.1083 -0.2751
11206TIP3    H255110   2.976   1.171  12.941  1.4379 -0.2060 -0.5979
11207TIP3   OH255111   4.041   0.863   3.919 -0.4141 -0.3825  0.0720
11207TIP3    H155112   3.994   0.932   3.871 -0.2611 -2.1996 -2.9122
11207TIP3    H255113   3.972   0.808   3.956 -0.5337  1.0444  2.1463
11208TIP3   OH255114   4.031   5.927   1.112 -0.7157  0.0403 -0.2467
11208TIP3    H155115   4.121   5.960   1.116 -0.8277  0.2763  0.5120
11208TIP3    H255116   3.977   6.006   1.116 -0.9631 -0.1154 -0.4858
11209TIP3   OH255117   0.901   4.707   3.792 -0.1645  0.5220 -0.0301
11209TIP3    H155118   0.958   4.674   3.861  0.5834  1.5960 -0.1150
11209TIP3    H255119   0.930   4.662   3.713 -1.3253 -1.0601  0.3954
11210TIP3   OH255120   5.626   5.846  16.622  0.1111 -0.4257  0.1155
11210TIP3    H155121   5.569   5.863  16.697  0.5398 -0.4099  0.4380
11210TIP3    H255122   5.594   5.906  16.554  1.0826  1.1513  0.9817
11211TIP3   OH255123   3.977   2.785  15.645 -0.4448 -0.0828 -0.2438
11211TIP3    H155124   4.060   2.755  15.683  0.5583  2.2377 -0.4302
11211TIP3    H255125   3.932   2.704  15.619  2.4136 -1.4085 -1.5365
11212TIP3   OH255126   3.051   3.985  13.602 -0.3986  0.2538  0.4388
11212TIP3    H155127   3.075   3.893  13.617 -0.9742 -0.1320 -0.8342
11212TIP3    H255128   2.981   4.002  13.665 -0.8770 -0.4561  0.1186
11213TIP3   OH255129   0.204   1.901   1.079  0.5778 -0.0883  0.3325
11213TIP3    H155130   0.283   1.903   1.134 -0.6155  1.6079  2.1132
11213TIP3    H255131   0.135   1.870   1.137 -0.6640  1.4484 -0.2534
11214TIP3   OH255132   4.672   0.418   3.842 -0.2171  0.0655  0.2027
11214TIP3    H155133   4.595   0.460   3.880  0.0554 -0.1555  1.0289
11214TIP3    H255134   4.743   0.480   3.860  0.4464 -1.2442  2.6149
11215TIP3   OH255135   6.074   4.312  11.548  0.0826  0.0137  0.0502
11215TIP3    H155136   5.987   4.334  11.581 -0.7159  1.4360 -2.6522
11215TIP3    H255137   6.095   4.383  11.487  2.2258 -1.3672 -0.9520
11216TIP3   OH255138   4.678   5.170   1.951  0.1170 -0.5652  0.1748
11216TIP3    H155139   4.673   5.082   1.912  0.7806  0.8012 -3.4066
11216TIP3    H255140   4.759   5.207   1.917  0.0929  1.3239  1.9626
11217TIP3   OH255141   1.202   2.039  11.030  0.2526  0.7645 -0.0163
11217TIP3    H155142   1.115   2.017  11.063 -0.2139  0.1021 -1.5962
11217TIP3    H255143   1.253   1.959  11.038  0.9877  1.3433  1.5892
11218TIP3   OH255144   5.624   6.500  13.456  0.3719 -0.0622  0.1996
11218TIP3    H155145   5.688   6.445  13.502  1.0078  0.7623  0.3197
11218TIP3    H255146   5.677   6.553  13.396 -0.2554  0.2754 -0.0652
11219TIP3   OH255147   5.115   0.618  16.628  0.2922 -0.3309 -0.4466
11219TIP3    H155148   5.055   0.612  16.553  0.1338  0.5729 -0.4105
11219TIP3    H255149   5.146   0.709  16.626  0.3130 -0.3066  0.5616
11220TIP3   OH255150   0.205   1.649   4.614  0.6780  0.1069  0.4283
11220TIP3    H155151   0.230   1.699   4.536  1.9999 -0.1616  0.6547
11220TIP3    H255152   0.158   1.573   4.580 -1.7728  1.6698  0.1006
11221TIP3   OH255153   0.202   5.784  14.646  0.6137  0.3645  0.2140
11221TIP3    H155154   0.134   5.831  14.693 -0.2524 -0.8149  0.1684
11221TIP3    H255155   0.278   5.787  14.704 -0.2844 -0.6237  1.4910
11222TIP3   OH255156   0.130   1.169   4.946  0.3183 -0.5032 -0.4911
11222TIP3    H155157   0.097   1.207   5.028  0.9954 -0.5525 -0.1962
11222TIP3    H255158   0.120   1.239   4.881  0.9386 -0.0464 -0.0962
11223TIP3   OH255159   3.529   5.623  11.791  0.2347 -0.2552  0.3995
11223TIP3    H155160   3.517   5.641  11.884 -0.9048  2.0932 -0.1119
11223TIP3    H255161   3.440   5.626  11.755  0.9140  2.4972 -1.2794
11224TIP3   OH255162   4.569   6.401   4.241  0.2851  0.2652 -0.2065
11224TIP3    H155163   4.577   6.493   4.215  0.0400  0.5917  0.8174
11224TIP3    H255164   4.634   6.390   4.311 -2.8353  0.9864  3.0708
11225TIP3   OH255165   3.321   2.619   1.248 -0.2331  0.1830  0.6586
11225TIP3    H155166   3.322   2.524   1.256 -0.6280  0.1727  0.6127
11225TIP3    H255167   3.384   2.638   1.179  0.1733 -0.0123  0.9734
11226TIP3   OH255168   5.417   1.353   2.804  0.4266  0.2680 -0.2294
11226TIP3    H155169   5.425   1.271   2.852 -0.4384  0.8760  0.9891
11226TIP3    H255170   5.439   1.330   2.714  0.5387 -1.2230  0.1566
11227TIP3   OH255171   2.601   3.616  13.261 -0.5378 -0.3077  0.1308
11227TIP3    H155172   2.643   3.608  13.347 -0.5879  0.9214  0.2830
11227TIP3    H255173   2.630   3.539  13.213  0.4603 -0.3859  0.8358
11228TIP3   OH255174   2.850   4.040   3.034  0.3376  0.8682 -0.0358
11228TIP3    H155175   2.806   3.991   3.103 -0.2808  1.3246 -0.0985
11228TIP3    H255176   2.836   3.988   2.955  1.3308  0.1712  0.2139
11229TIP3   OH255177   5.392   3.265  16.658  0.3321  0.2230  0.5329
11229TIP3    H155178   5.339   3.308  16.725 -0.3632  1.1801 -0.5865
11229TIP3    H255179   5.348   3.286  16.576  1.5417 -0.3467 -0.2889
11230TIP3   OH255180   2.536   2.299   3.994  0.1415  0.2436  0.1933
11230TIP3    H155181   2.573   2.211   3.991 -0.7122 -0.0974 -0.8268
11230TIP3    H255182   2.612   2.356   4.004  0.8785 -0.4728 -1.0822
11231TIP3   OH255183   4.311   5.233   1.301 -0.2170 -0.1347 -0.0301
11231TIP3    H155184   4.274   5.315   1.270  0.1594  0.1056  0.1508
11231TIP3    H255185   4.405   5.249   1.305  0.2746 -1.5183 -2.9715
11232TIP3   OH255186   5.461   5.904  14.853 -0.6971 -0.1505 -0.0357
11232TIP3    H155187   5.441   5.967  14.923 -0.7009  1.4434 -1.4039
11232TIP3    H255188   5.530   5.946  14.801  0.8989 -2.2581  0.2284
11233TIP3   OH255189   0.469   5.436  12.151  0.5016  0.2699  0.4096
11233TIP3    H155190   0.374   5.424  12.141  0.2725  2.5081 -0.8931
11233TIP3    H255191   0.498   5.358  12.197 -2.2070  0.1784  2.2652
11234TIP3   OH255192   1.771   2.981   3.176  0.1051  0.4411 -0.3654
11234TIP3    H155193   1.727   2.925   3.112  0.5315 -0.4869  0.1331
11234TIP3    H255194   1.860   2.945   3.183 -0.3886 -0.4938  1.9098
11235TIP3   OH255195   3.863   2.208  16.604 -0.0843  0.8511 -0.0327
11235TIP3    H155196   3.933   2.149  16.579 -1.7198 -0.8220 -0.9034
11235TIP3    H255197   3.846   2.188  16.696 -0.1222  0.5038 -0.1142
11236TIP3   OH255198   1.942   3.994   4.003  0.1000  0.3935  0.3700
11236TIP3    H155199   1.922   4.065   4.065 -1.6535  0.6649 -0.4586
11236TIP3    H255200   1.953   3.917   4.059 -1.4365  0.6345  1.0497
11237TIP3   OH255201   3.513   0.124   2.448  0.0261 -0.1472  0.1802
11237TIP3    H155202   3.527   0.209   2.490 -2.8279 -1.2578  3.9139
11237TIP3    H255203   3.530   0.060   2.517 -0.7303 -2.4837 -1.6775
11238TIP3   OH255204   2.028   4.954  10.363  0.1175  0.6175  0.6404
11238TIP3    H155205   2.073   4.940  10.280  0.4465 -2.0993  1.1963
11238TIP3    H255206   2.098   4.976  10.424  0.7710 -2.8601  1.3352
11239TIP3   OH255207   6.108   2.585   2.943 -0.1472  0.5161  0.3111
11239TIP3    H155208   6.057   2.655   2.984  0.0384  1.2122 -0.5986
11239TIP3    H255209   6.192   2.627   2.923  0.2647 -0.2115  0.5061
11240TIP3   OH255210   2.578   2.017   0.960  0.7657  0.6039 -0.0097
11240TIP3    H155211   2.672   1.999   0.965  0.6930  0.6149  2.4140
11240TIP3    H255212   2.546   1.957   0.893  2.2243 -0.7813  0.4618
11241TIP3   OH255213   3.094   5.160  14.438 -0.1941 -0.1141 -0.1039
11241TIP3    H155214   3.008   5.200  14.441 -0.9867 -1.7501  0.3815
11241TIP3    H255215   3.152   5.223  14.481 -1.1139  1.0578 -0.5517
11242TIP3   OH255216   5.435   4.623   5.181 -0.5765 -0.4089  0.4670
11242TIP3    H155217   5.508   4.562   5.172  0.0635  0.0415  2.2402
11242TIP3    H255218   5.370   4.576   5.233 -1.6650 -0.8711 -1.2488
11243TIP3   OH255219   2.414   0.651   1.123 -0.4636  0.0243  0.3343
11243TIP3    H155220   2.359   0.615   1.053 -0.2571  1.5308 -0.6493
11243TIP3    H255221   2.359   0.646   1.201 -0.9460 -1.0599 -0.0515
11244TIP3   OH255222   3.249   5.341   0.400  0.1524  0.5132 -0.3000
11244TIP3    H155223   3.179   5.376   0.345 -0.3644  0.5246  0.3503
11244TIP3    H255224   3.320   5.322   0.339 -1.1663 -1.5143 -1.3277
11245TIP3   OH255225   6.729   2.210  12.389  0.3570 -0.2216 -0.0915
11245TIP3    H155226   6.647   2.179  12.428  0.4696 -1.0630 -0.5005
11245TIP3    H255227   6.791   2.139  12.404  1.0624  0.4666  0.3420
11246TIP3   OH255228   5.157   3.665  16.497 -0.4502 -0.1391 -0.2348
11246TIP3    H155229   5.159   3.716  16.416  2.3396  0.6647  0.2306
11246TIP3    H255230   5.096   3.712  16.554 -1.6023 -0.1057 -1.4607
11247TIP3   OH255231   0.058   1.285  15.518 -0.2023 -0.1167  0.2866
11247TIP3    H155232  -0.016   1.293  15.458  0.5241  0.8087 -0.5149
11247TIP3    H255233   0.070   1.373  15.555  1.0224 -0.0321 -0.2537
11248TIP3   OH255234   3.495   0.939  11.892 -0.3001 -0.6933  0.2436
11248TIP3    H155235   3.472   0.931  11.985 -3.0916  3.0270  0.1017
11248TIP3    H255236   3.591   0.941  11.892 -0.1664  1.4517  3.4215
11249TIP3   OH255237   2.739   2.125   5.464  0.3146  0.3221  0.3730
11249TIP3    H155238   2.672   2.094   5.404  1.2910  0.7595 -1.0048
11249TIP3    H255239   2.812   2.149   5.407  1.3927  0.4745  1.7736
11250TIP3   OH255240   3.962   4.269  11.504  0.0568 -0.6343  0.4374
11250TIP3    H155241   3.909   4.234  11.576  1.2591 -0.1642  1.5998
11250TIP3    H255242   3.900   4.284  11.433 -0.8334 -3.1521  0.5954
11251TIP3   OH255243   1.707   5.648   2.846 -0.3111 -0.1978  1.0617
11251TIP3    H155244   1.800   5.631   2.828 -0.6713 -2.0408  0.6890
11251TIP3    H255245   1.663   5.567   2.820 -2.0608  0.7289  1.0376
11252TIP3   OH255246   3.888   2.469   1.012  0.0442  0.0933  0.3530
11252TIP3    H155247   3.873   2.529   1.086 -1.6319  0.4211 -0.2183
11252TIP3    H255248   3.900   2.383   1.053  0.0288  0.4175  1.0558
11253TIP3   OH255249   2.299   5.277  12.885 -0.2033  0.3232 -0.0243
11253TIP3    H155250   2.289   5.311  12.974 -0.7692 -0.0461  0.0573
11253TIP3    H255251   2.311   5.355  12.831  2.1756  0.4714  0.6073
11254TIP3   OH255252   3.584   2.685   3.438 -0.2403  0.3224  0.4775
11254TIP3    H155253   3.664   2.699   3.386  0.1495  2.2347  1.4996
11254TIP3    H255254   3.518   2.740   3.395 -0.9850 -1.0563 -0.2122
11255TIP3   OH255255   6.735   2.485  16.656  0.1557 -0.2586 -0.5272
11255TIP3    H155256   6.769   2.397  16.672  0.4750  0.1188  1.0537
11255TIP3    H255257   6.643   2.472  16.634 -0.0062 -0.9537  0.4833
11256TIP3   OH255258   1.786   1.637  15.572 -0.1154 -0.7669 -0.1342
11256TIP3    H155259   1.709   1.693  15.584 -0.1709 -0.9370  0.3130
11256TIP3    H255260   1.752   1.557  15.532 -0.0521 -0.5343 -0.6693
11257TIP3   OH255261   4.537   3.217   5.986 -0.3982 -0.2613 -0.1425
11257TIP3    H155262   4.583   3.134   5.997  2.4028  1.4365  2.5324
11257TIP3    H255263   4.507   3.240   6.074 -2.7153  0.7999 -1.1170
11258TIP3   OH255264   4.498   1.590   3.087 -0.0154  0.0449  0.4352
11258TIP3    H155265   4.475   1.533   3.160 -0.7816 -0.4067 -0.1384
11258TIP3    H255266   4.591   1.608   3.098  0.2530 -1.3460  0.6032
11259TIP3   OH255267   4.933   6.808   0.421 -0.2497 -0.1782  0.8121
11259TIP3    H155268   5.011   6.758   0.445 -0.2069  0.3619  1.8824
11259TIP3    H255269   4.873   6.744   0.384  0.4151 -0.7330  0.6836
11260TIP3   OH255270   1.549   0.013  14.186  0.0163 -0.1692 -0.1263
11260TIP3    H155271   1.489  -0.057  14.210  0.2771 -0.3750 -0.0704
11260TIP3    H255272   1.493   0.080  14.146 -0.0932 -0.9058 -1.2672
11261TIP3   OH255273   2.563   2.288   2.019  0.1951  0.8932 -0.8203
11261TIP3    H155274   2.649   2.263   2.051  0.0001  1.7062  0.4244
11261TIP3    H255275   2.540   2.221   1.955  2.2528  1.3113 -2.0806
11262TIP3   OH255276   4.503   5.067   0.150  0.1774 -0.4440  0.3082
11262TIP3    H155277   4.501   5.013   0.229  1.3462  0.3217  0.8941
11262TIP3    H255278   4.521   5.155   0.182 -1.3496  0.2680 -0.6618
11263TIP3   OH255279   6.375   3.237   1.764 -0.4895 -0.4272 -0.2946
11263TIP3    H155280   6.360   3.154   1.809  1.2025 -0.7593 -0.2695
11263TIP3    H255281   6.369   3.215   1.671 -1.4615 -0.2666 -0.2775
11264TIP3   OH255282   3.177   4.476  14.411  0.3417  0.4694 -0.2588
11264TIP3    H155283   3.177   4.431  14.326 -0.8204 -0.6554  0.3077
11264TIP3    H255284   3.224   4.416  14.469 -0.7064  0.2512  0.3720
11265TIP3   OH255285   0.565   0.905  12.645  1.2666  0.1036 -0.1925
11265TIP3    H155286   0.478   0.899  12.684  1.3456 -2.1847 -0.2342
11265TIP3    H255287   0.568   0.992  12.606 -0.6435  0.5854  0.6314
11266TIP3   OH255288   6.344   2.674  12.324 -0.4929 -0.9843  0.7764
11266TIP3    H155289   6.430   2.690  12.286 -0.1930 -1.8060  1.0748
11266TIP3    H255290   6.324   2.583  12.299 -1.6643 -0.5348 -0.0270
11267TIP3   OH255291   6.708   1.352  12.877 -0.2624  0.1591  0.2467
11267TIP3    H155292   6.678   1.304  12.799 -0.9045  0.7565  0.1173
11267TIP3    H255293   6.779   1.408  12.845 -0.1929  0.0420  0.1945
11268TIP3   OH255294   0.496   6.476  11.831  0.3903  0.5606 -0.1331
11268TIP3    H155295   0.528   6.396  11.872  0.3120  0.8307  0.4648
11268TIP3    H255296   0.488   6.453  11.738  0.9971  0.0788 -0.0763
11269TIP3   OH255297   4.371   1.730  11.985  0.2367 -0.1893  0.2699
11269TIP3    H155298   4.355   1.771  11.900 -2.3637  2.3849  1.8139
11269TIP3    H255299   4.302   1.664  11.993  0.3354 -0.2683  0.4782
11270TIP3   OH255300   0.920   1.493   3.203  0.2943 -0.1545 -0.5388
11270TIP3    H155301   0.995   1.440   3.175 -0.8014 -0.7399 -2.5716
11270TIP3    H255302   0.912   1.560   3.135 -0.7932  0.1301 -0.1377
11271TIP3   OH255303   3.978   4.695   1.374 -0.0295  0.0802  0.2076
11271TIP3    H155304   4.006   4.631   1.308  1.9264  1.0873 -0.0293
11271TIP3    H255305   3.999   4.653   1.458  1.7358  0.5381  0.0448
11272TIP3   OH255306   2.666   1.288   4.889 -0.3213  0.0899 -0.1502
11272TIP3    H155307   2.657   1.288   4.794  0.2231 -0.1802 -0.2068
11272TIP3    H255308   2.718   1.365   4.908  2.0129 -1.3314 -0.3448
11273TIP3   OH255309   5.290   2.425   1.605  0.4003  0.3209  0.0937
11273TIP3    H155310   5.266   2.462   1.689  0.7608  1.0628 -0.1146
11273TIP3    H255311   5.241   2.343   1.599 -0.0744  0.5497  0.7634
11274TIP3   OH255312   2.387   2.208  13.905  0.5792  0.3069 -0.0253
11274TIP3    H155313   2.378   2.136  13.843  0.7601 -0.0825  0.3992
11274TIP3    H255314   2.357   2.285  13.856 -1.8689 -0.3823  0.2546
11275TIP3   OH255315   5.871   2.419  15.669 -0.0617 -0.5297 -0.0856
11275TIP3    H155316   5.838   2.405  15.580 -0.3248 -0.1294 -0.0556
11275TIP3    H255317   5.933   2.348  15.684  0.0429 -0.5502 -0.6188
11276TIP3   OH255318   6.744   4.905  13.264  0.0375 -0.4611 -0.8430
11276TIP3    H155319   6.818   4.938  13.213 -0.4195 -0.3287 -1.4345
11276TIP3    H255320   6.739   4.964  13.340  0.8464 -0.7851 -0.5226
11277TIP3   OH255321   3.995   6.154   6.068 -0.0932  0.1980 -0.0818
11277TIP3    H155322   3.924   6.181   6.010 -0.0163  1.6573  0.4389
11277TIP3    H255323   4.056   6.105   6.013 -0.8149  0.1571 -0.8451
11278TIP3   OH255324   3.146   2.339  10.846 -0.0274  0.0338  0.7175
11278TIP3    H155325   3.142   2.391  10.766  2.0429 -1.0492 -0.1691
11278TIP3    H255326   3.105   2.255  10.822 -1.6174  0.5309  1.5640
11279TIP3   OH255327   2.618   5.006   1.211  0.1910  0.4019  0.7130
11279TIP3    H155328   2.590   4.959   1.289  1.2239  0.5028  1.1546
11279TIP3    H255329   2.536   5.036   1.171 -0.4192 -0.7546  1.0479
11280TIP3   OH255330   5.229   4.648  16.383  0.3377  0.5977  0.8391
11280TIP3    H155331   5.166   4.595  16.334  1.7636 -0.4155  0.0449
11280TIP3    H255332   5.267   4.707  16.317  2.9098 -1.3683  0.4053
11281TIP3   OH255333   6.576   1.604   5.459  0.7169  0.3533 -0.0715
11281TIP3    H155334   6.532   1.533   5.505  2.4005 -0.5795  0.1744
11281TIP3    H255335   6.548   1.595   5.368 -0.5949  0.6045  0.2856
11282TIP3   OH255336   5.945   6.126  16.441  0.7510  0.4553 -0.0016
11282TIP3    H155337   5.907   6.078  16.515  0.3109  0.8722  0.0465
11282TIP3    H255338   5.935   6.219  16.465 -1.1946  0.6643 -1.4485
11283TIP3   OH255339   5.619   0.252   4.112  0.6606  0.4925  0.6620
11283TIP3    H155340   5.565   0.212   4.044  0.5748 -0.1010  1.0737
11283TIP3    H255341   5.705   0.212   4.101  0.6770  0.4811  0.8247
11284TIP3   OH255342   6.666   2.378  14.669 -0.3860  0.4795  0.0580
11284TIP3    H155343   6.676   2.390  14.764 -1.2702 -1.3904  0.4365
11284TIP3    H255344   6.581   2.416  14.649  0.3903  2.1228 -0.2753
11285TIP3   OH255345   2.580   5.197  11.527  0.3197 -0.3890 -0.2459
11285TIP3    H155346   2.526   5.162  11.456  1.2732  0.2098 -1.2917
11285TIP3    H255347   2.559   5.140  11.602  0.0410 -1.6756 -1.2466
11286TIP3   OH255348   6.743   0.968   2.932 -0.5780 -0.0753  0.4345
11286TIP3    H155349   6.744   0.928   2.845 -1.2288 -0.7166  0.7077
11286TIP3    H255350   6.753   1.062   2.916  1.1710 -0.3478 -0.2123
11287TIP3   OH255351   4.179   0.189  14.841 -0.1608 -0.0588 -0.3140
11287TIP3    H155352   4.112   0.143  14.789 -0.7853  0.2061  0.2394
11287TIP3    H255353   4.261   0.144  14.820 -0.3116  0.3017 -1.8512
11288TIP3   OH255354   6.305   3.213  12.403  0.3174 -0.7238  0.2437
11288TIP3    H155355   6.280   3.182  12.490 -0.5541 -0.5023  0.0813
11288TIP3    H255356   6.308   3.134  12.349 -0.6775 -0.6838  0.1193
11289TIP3   OH255357   3.781   5.712   3.128  0.3202  0.2364 -0.3655
11289TIP3    H155358   3.810   5.737   3.040  0.3196 -1.2974 -0.8301
11289TIP3    H255359   3.862   5.696   3.176  0.3147  0.8622 -0.1342
11290TIP3   OH255360   1.935   0.102   3.723 -0.3208  0.7163 -0.3360
11290TIP3    H155361   1.891   0.181   3.692  0.4268  1.6383  0.8672
11290TIP3    H255362   1.922   0.102   3.818 -1.2362 -1.2142 -0.4060
11291TIP3   OH255363   6.183   6.010   6.751 -0.0512  0.0476 -0.1178
11291TIP3    H155364   6.228   5.928   6.730 -1.3762 -0.8372  0.3920
11291TIP3    H255365   6.117   6.019   6.682 -2.1042 -1.0685  1.5982
11292TIP3   OH255366   3.560   2.297  12.264  0.1638 -0.3835  0.2150
11292TIP3    H155367   3.626   2.283  12.196 -0.7849  0.7527 -0.9882
11292TIP3    H255368   3.609   2.300  12.346  1.8262  2.0029 -0.7796
11293TIP3   OH255369   5.200   3.809   1.286  1.2546 -0.0749 -0.3788
11293TIP3    H155370   5.212   3.795   1.380 -0.6087 -1.3518 -0.2682
11293TIP3    H255371   5.154   3.893   1.279  1.2080 -0.0808 -0.1356
11294TIP3   OH255372   2.853   4.354  16.649 -0.4057 -0.0342  0.1580
11294TIP3    H155373   2.888   4.299  16.579 -1.9053 -0.5598 -0.2201
11294TIP3    H255374   2.789   4.410  16.606 -1.8883 -0.8593  1.1859
11295TIP3   OH255375   0.378   5.677   5.045 -0.0435 -0.1775 -0.6971
11295TIP3    H155376   0.395   5.608   4.981  0.5865 -0.1527 -0.5619
11295TIP3    H255377   0.464   5.708   5.071 -0.3026  0.1007 -0.1423
11296TIP3   OH255378   3.248   6.442  16.179 -0.1620 -0.0270 -0.0905
11296TIP3    H155379   3.328   6.490  16.202 -1.4171  2.3036 -0.3119
11296TIP3    H255380   3.279   6.369  16.125  1.8637  0.4391  0.3472
11297TIP3   OH255381   6.467   3.142  12.732  0.4894  0.1641  0.0717
11297TIP3    H155382   6.549   3.147  12.780  0.3071  0.6591  0.3403
11297TIP3    H255383   6.492   3.119  12.643  0.8972  0.0760  0.2111
11298TIP3   OH255384   2.579   5.773   5.662 -0.0099  0.4589 -0.7020
11298TIP3    H155385   2.507   5.836   5.651  0.1813  0.8081 -0.0149
11298TIP3    H255386   2.638   5.793   5.590 -0.8061 -0.1313 -1.5452
11299TIP3   OH255387   6.174   2.803   5.069  0.2245  0.1000 -0.1340
11299TIP3    H155388   6.121   2.880   5.093 -1.2917 -1.3595  1.4424
11299TIP3    H255389   6.122   2.759   5.002 -0.0594 -0.7648  0.6403
11300TIP3   OH255390   3.150   1.675   4.541  0.3457  0.4295  0.2425
11300TIP3    H155391   3.099   1.671   4.622 -1.1173  0.5887 -0.6315
11300TIP3    H255392   3.241   1.664   4.569 -0.3325 -2.6462  1.5860
11301TIP3   OH255393   4.952   4.323   4.820  0.3215  0.3584  0.3732
11301TIP3    H155394   4.894   4.326   4.896  0.8500 -2.2232  0.9713
11301TIP3    H255395   5.019   4.258   4.842  1.6992  1.0380 -1.4930
11302TIP3   OH255396   1.026   3.824  16.132  0.9493 -0.4624 -0.9537
11302TIP3    H155397   1.047   3.732  16.113  1.2286 -0.2453 -1.7542
11302TIP3    H255398   1.112   3.867  16.140  0.8467 -0.5086  0.7402
11303TIP3   OH255399   2.367   0.564  12.972  0.8292  0.1775 -0.5332
11303TIP3    H155400   2.416   0.552  12.890  2.5300 -0.6395  0.5517
11303TIP3    H255401   2.305   0.491  12.974 -0.2935  1.0474 -1.7741
11304TIP3   OH255402   3.106   1.016   4.940 -0.4234  0.2179  0.1451
11304TIP3    H155403   3.192   1.059   4.944  0.6022 -1.6539 -0.7346
11304TIP3    H255404   3.087   0.991   5.030  1.5250 -2.2040 -0.0267
11305TIP3   OH255405   4.276   5.993  16.807 -0.3626 -0.0284 -0.4144
11305TIP3    H155406   4.366   5.984  16.838 -0.0913  0.8120 -0.9457
11305TIP3    H255407   4.248   6.079  16.839 -0.6224  0.1595 -1.1429
11306TIP3   OH255408   0.523   5.302   5.393  0.3767  0.4746 -0.1201
11306TIP3    H155409   0.586   5.230   5.402  1.9344  1.6873 -0.8752
11306TIP3    H255410   0.476   5.303   5.476 -0.3279 -1.9602 -0.4029
11307TIP3   OH255411   6.279   3.070  12.934  0.5430  0.3180  0.2241
11307TIP3    H155412   6.202   3.023  12.967 -0.7106  2.5914  0.7530
11307TIP3    H255413   6.271   3.067  12.839  0.5940 -0.6679  0.2439
11308TIP3   OH255414   4.111   3.636   4.885  0.2474  0.1663 -0.1168
11308TIP3    H155415   4.169   3.607   4.956  0.5495 -0.3259 -0.5528
11308TIP3    H255416   4.074   3.555   4.849  1.2986  0.2706 -1.5290
11309TIP3   OH255417   2.402   3.776   0.036  0.1357 -0.0471  1.0457
11309TIP3    H155418   2.417   3.866   0.007  0.6970 -0.3402  0.4024
11309TIP3    H255419   2.372   3.730  -0.043  1.9016 -0.9168  0.8336
11310TIP3   OH255420   5.429   5.746  13.116  0.0320  0.5944  0.3197
11310TIP3    H155421   5.362   5.811  13.140 -0.3818 -0.3364  1.8588
11310TIP3    H255422   5.511   5.787  13.142  0.0138  1.4534 -0.9152
11311TIP3   OH255423   1.761   3.130   5.571  0.9671 -0.0395  0.1617
11311TIP3    H155424   1.781   3.051   5.522  1.4826 -0.4210  0.9674
11311TIP3    H255425   1.775   3.106   5.662 -2.1788 -0.0241  0.7332
11312TIP3   OH255426   2.642   0.913   1.468  0.3481  0.3087  0.1578
11312TIP3    H155427   2.559   0.866   1.458  1.0905 -0.9260 -0.4341
11312TIP3    H255428   2.620   1.005   1.451 -0.8316 -0.0423 -0.3005
11313TIP3   OH255429   3.094   0.046  16.279 -0.6804 -0.0785 -0.1386
11313TIP3    H155430   3.170   0.087  16.237 -2.0822  0.6751 -2.0662
11313TIP3    H255431   3.126  -0.039  16.307  1.4410  1.0084  1.0595
11314TIP3   OH255432   3.552   1.306  11.571  0.2416  0.1134 -0.0100
11314TIP3    H155433   3.536   1.310  11.476 -1.1685  2.7087  0.2517
11314TIP3    H255434   3.639   1.266  11.578  0.3444 -0.2741 -2.3793
11315TIP3   OH255435   4.758   5.227   0.232 -0.2320  0.5792  0.4626
11315TIP3    H155436   4.841   5.250   0.276 -0.8952 -0.3798  2.3133
11315TIP3    H255437   4.785   5.180   0.154  0.9919  0.3687  0.9854
11316TIP3   OH255438   1.088   1.407  12.807 -0.0383 -0.4715 -0.1205
11316TIP3    H155439   1.122   1.378  12.722 -0.5477  0.5529 -0.6952
11316TIP3    H255440   1.167   1.423  12.860  0.3305 -0.0456 -0.7759
11317TIP3   OH255441   2.246   1.161   1.306  0.1235  0.5468  0.2172
11317TIP3    H155442   2.167   1.207   1.335  0.5748  0.4908  1.6238
11317TIP3    H255443   2.261   1.193   1.217 -0.0827  2.4681  0.8256
11318TIP3   OH255444   4.910   6.713  14.493  0.0922  0.1655 -0.0885
11318TIP3    H155445   4.879   6.623  14.503 -1.5865  0.7182 -0.0239
11318TIP3    H255446   4.923   6.724  14.399  0.6785 -0.2496 -0.0620
11319TIP3   OH255447   1.797   6.356  16.929 -0.4535  0.1927  0.5491
11319TIP3    H155448   1.806   6.451  16.920 -1.4005  0.1145 -1.6060
11319TIP3    H255449   1.872   6.331  16.984 -0.5939  2.2468  1.7962
11320TIP3   OH255450   5.095   4.483   2.044  0.0812  0.6945 -0.4706
11320TIP3    H155451   5.150   4.444   2.113  2.1993  0.4850 -2.1751
11320TIP3    H255452   5.100   4.422   1.971 -0.3585  1.9195 -1.5694
11321TIP3   OH255453   2.304   0.735   0.411  0.2803 -0.2709 -0.0369
11321TIP3    H155454   2.322   0.705   0.322 -2.6599 -1.5974 -0.3288
11321TIP3    H255455   2.213   0.766   0.408  0.4124  0.5525  2.2951
11322TIP3   OH255456   1.476   1.272  10.556  0.1467  0.3295 -0.2893
11322TIP3    H155457   1.387   1.237  10.560  0.5138 -0.5219  1.9587
11322TIP3    H255458   1.464   1.362  10.524 -1.2898 -0.3344 -1.8032
11323TIP3   OH255459   6.523   3.278  11.024 -0.3662 -0.1689 -0.0693
11323TIP3    H155460   6.560   3.195  10.993 -0.7030  0.2280 -1.5947
11323TIP3    H255461   6.588   3.343  10.998 -0.5531  0.1564  0.2788
11324TIP3   OH255462   3.024   4.202  13.930  0.1861 -0.1192  0.3916
11324TIP3    H155463   3.067   4.210  13.845  0.5177  0.3169  0.5951
11324TIP3    H255464   2.934   4.230  13.915  0.0968 -0.5800  0.0646
11325TIP3   OH255465   0.650   5.696   5.076  0.3815  0.8381 -0.2122
11325TIP3    H155466   0.678   5.683   5.167 -0.6229 -0.0028 -0.0101
11325TIP3    H255467   0.731   5.721   5.030  1.4930 -1.3861  0.3809
11326TIP3   OH255468   6.186   1.643  11.516  0.0843  0.1015  0.7004
11326TIP3    H155469   6.234   1.725  11.529 -1.0501  1.2809 -1.9144
11326TIP3    H255470   6.103   1.656  11.562 -0.4585  0.8511 -0.4301
11327TIP3   OH255471   5.754   4.399  15.876  0.4905 -0.1887 -0.3822
11327TIP3    H155472   5.810   4.321  15.876  0.5847 -0.1598 -1.8359
11327TIP3    H255473   5.811   4.470  15.905  0.8969 -0.3673 -0.7360
11328TIP3   OH255474   3.414   1.415   1.228  0.5880 -0.8632 -0.5194
11328TIP3    H155475   3.427   1.397   1.321  1.0840  0.1873 -0.3704
11328TIP3    H255476   3.366   1.498   1.225 -1.1144 -1.8221 -1.1873
11329TIP3   OH255477   3.483   0.201  10.554 -0.0527  0.5982  1.1260
11329TIP3    H155478   3.403   0.176  10.508  2.0019 -0.7418 -2.0755
11329TIP3    H255479   3.511   0.282  10.511  0.0231  1.4611  2.7095
11330TIP3   OH255480   3.586   3.558  12.007 -0.0330  0.1778 -0.5046
11330TIP3    H155481   3.524   3.564  12.080 -0.9557  1.9070 -1.3817
11330TIP3    H255482   3.641   3.483  12.029 -1.4071 -0.4227  1.0929
11331TIP3   OH255483   4.842   0.854  16.183  0.0201  0.4466 -0.1569
11331TIP3    H155484   4.927   0.819  16.209 -0.3707 -0.8017 -0.4885
11331TIP3    H255485   4.829   0.931  16.238  1.9884  1.4913 -1.0663
11332TIP3   OH255486   4.712   0.956  13.427 -0.2980 -0.0185 -0.3914
11332TIP3    H155487   4.769   0.880  13.422 -0.8359 -0.3247 -2.7372
11332TIP3    H255488   4.772   1.031  13.435  0.3433 -0.4886 -0.7599
11333TIP3   OH255489   2.905   4.310   5.714 -0.2737  0.1351 -0.2939
11333TIP3    H155490   2.868   4.397   5.703 -0.9877 -0.2504 -1.1018
11333TIP3    H255491   2.979   4.307   5.654 -1.1771 -0.3100 -1.4227
11334TIP3   OH255492   6.300   6.047   0.085  0.1749  0.1699 -0.1692
11334TIP3    H155493   6.307   6.037  -0.009 -0.2287  0.9343 -0.2863
11334TIP3    H255494   6.208   6.026   0.104  0.1398  0.4617 -0.0101
11335TIP3   OH255495   1.367   6.474  12.298 -0.2730  0.2616  0.0449
11335TIP3    H155496   1.454   6.470  12.256 -0.7439  0.6266 -1.0103
11335TIP3    H255497   1.383   6.515  12.383  0.4714  1.1798 -0.5157
11336TIP3   OH255498   3.930   1.037   1.751  0.0808 -0.2072 -0.1135
11336TIP3    H155499   4.017   0.997   1.749  0.7887  1.2641 -2.0927
11336TIP3    H255500   3.947   1.132   1.756 -1.4740  0.0674  1.2274
11337TIP3   OH255501   5.944   1.254   1.295 -0.6346  0.5312  0.3670
11337TIP3    H155502   5.891   1.297   1.362 -2.2069 -0.2616 -0.3013
11337TIP3    H255503   5.932   1.307   1.217  1.4668  1.6461  0.7175
11338TIP3   OH255504   1.858   2.935  14.648  0.2476  0.3681  0.1249
11338TIP3    H155505   1.768   2.902  14.640 -0.0076  1.0392  0.1874
11338TIP3    H255506   1.860   3.012  14.592  1.0191 -0.1009 -0.5089
11339TIP3   OH255507   5.429   0.876   5.463 -0.4544 -0.4863 -0.2413
11339TIP3    H155508   5.367   0.827   5.518 -0.9496 -2.0775 -2.1041
11339TIP3    H255509   5.457   0.813   5.397  1.6183  0.7989 -0.6836
11340TIP3   OH255510   3.989   0.745   4.965  0.0141 -0.2771  0.1975
11340TIP3    H155511   4.019   0.748   5.056 -1.0556  1.7837  0.5473
11340TIP3    H255512   3.913   0.688   4.966 -0.2143  0.0282  0.6805
11341TIP3   OH255513   4.220   2.666   5.800  0.5500  1.3817 -0.0910
11341TIP3    H155514   4.273   2.647   5.877  3.1498  0.3267 -1.9785
11341TIP3    H255515   4.229   2.760   5.787  1.4876  1.3113 -0.0106
11342TIP3   OH255516   1.518   4.529  11.638 -0.1075 -0.3727  0.0963
11342TIP3    H155517   1.596   4.584  11.635 -1.1304  1.2525  1.7000
11342TIP3    H255518   1.525   4.474  11.559  2.2750  0.1856 -0.1661
11343TIP3   OH255519   6.299   2.656   0.503  0.3525 -0.0926 -0.3941
11343TIP3    H155520   6.261   2.613   0.426 -2.1169  1.4738 -0.1300
11343TIP3    H255521   6.393   2.657   0.485 -0.0148 -0.9966 -2.7376
11344TIP3   OH255522   5.942   2.619   2.384 -0.3485  0.5452  0.1823
11344TIP3    H155523   5.959   2.632   2.291 -1.0700 -0.7416 -0.1431
11344TIP3    H255524   6.019   2.572   2.416 -1.4738 -1.8417 -0.4675
11345TIP3   OH255525   5.381   6.475   4.260  0.3437 -0.5147  0.1599
11345TIP3    H155526   5.329   6.499   4.183  1.5954  0.7920 -0.3247
11345TIP3    H255527   5.368   6.547   4.321  0.3245 -0.9659  0.6963
11346TIP3   OH255528   6.238   1.230  14.506 -0.2949 -0.0549  0.1508
11346TIP3    H155529   6.158   1.207  14.553 -0.1791 -1.2181 -0.1741
11346TIP3    H255530   6.221   1.203  14.416  0.2770  0.1325 -0.0173
11347TIP3   OH255531   2.445   2.041   1.203 -0.2431  0.3958 -0.0353
11347TIP3    H155532   2.474   2.055   1.113 -0.2238 -1.8739 -0.4361
11347TIP3    H255533   2.357   2.004   1.195  0.3573 -1.3287  0.7535
11348TIP3   OH255534   1.472   0.614   5.494 -0.0338 -0.6303  0.1177
11348TIP3    H155535   1.486   0.701   5.532  0.4324 -0.3629 -0.6468
11348TIP3    H255536   1.378   0.611   5.474 -0.1083 -0.4262  0.4277
11349TIP3   OH255537   1.802   1.550  13.859  0.2529  0.1949 -0.2722
11349TIP3    H155538   1.709   1.546  13.837 -0.1645  0.0097  1.3515
11349TIP3    H255539   1.838   1.468  13.826 -0.9865 -1.5281  2.3126
11350TIP3   OH255540   4.054   0.370   5.804  0.2009 -0.0860 -0.3755
11350TIP3    H155541   4.078   0.458   5.774  2.1532 -0.8593 -1.2823
11350TIP3    H255542   4.055   0.376   5.899  0.6079  0.8164 -0.4272
11351TIP3   OH255543   0.300   3.717   4.305 -0.3677  0.3165  0.5115
11351TIP3    H155544   0.279   3.710   4.212  1.7154 -0.0553  0.0064
11351TIP3    H255545   0.242   3.784   4.338 -0.8613  0.7628 -1.1677
11352TIP3   OH255546   6.174   2.675  15.023 -0.0075 -0.5467  0.0475
11352TIP3    H155547   6.218   2.591  15.036  3.0408  0.6774 -1.1255
11352TIP3    H255548   6.081   2.655  15.022  0.5362 -3.6181  1.4418
11353TIP3   OH255549   4.370   1.104  15.826 -0.4248 -0.1008  0.3493
11353TIP3    H155550   4.303   1.038  15.806  1.4381 -1.6746 -1.0439
11353TIP3    H255551   4.341   1.142  15.909 -3.1311 -0.5441 -0.2716
11354TIP3   OH255552   0.556   3.281  12.644  0.1899  0.2177  0.0555
11354TIP3    H155553   0.560   3.370  12.609 -0.6245  0.8121  1.4048
11354TIP3    H255554   0.477   3.280  12.698  0.3151 -1.2657  0.2553
11355TIP3   OH255555   1.980   1.975  11.664 -0.5190 -0.6873 -0.2805
11355TIP3    H155556   2.046   2.001  11.600 -0.5341  1.0937  0.3871
11355TIP3    H255557   2.007   1.886  11.690  0.8150 -0.5316 -1.0118
11356TIP3   OH255558   6.080   3.760  13.767 -0.7018 -0.4858  0.4759
11356TIP3    H155559   6.044   3.826  13.708  0.8060  1.6327  1.7816
11356TIP3    H255560   6.022   3.762  13.844 -0.8887 -0.9904  0.3500
11357TIP3   OH255561   2.304   5.428   3.245 -0.3277  0.1169 -0.4059
11357TIP3    H155562   2.213   5.400   3.241 -0.1376 -0.7245  0.6968
11357TIP3    H255563   2.331   5.436   3.154 -0.9584 -1.5025 -0.7639
11358TIP3   OH255564   6.716   2.717   5.820  0.5208 -0.0333  0.0447
11358TIP3    H155565   6.622   2.697   5.815  0.7062 -1.0196  0.3464
11358TIP3    H255566   6.754   2.672   5.745  0.8119  0.0317  0.1528
11359TIP3   OH255567   1.828   0.268   5.860 -0.4334  0.0787 -0.1201
11359TIP3    H155568   1.922   0.288   5.859 -0.7184  1.7868  1.1580
11359TIP3    H255569   1.787   0.350   5.886 -2.3460 -0.5016 -1.1679
11360TIP3   OH255570   3.463   4.405   0.075 -0.5225  0.4903  0.5722
11360TIP3    H155571   3.377   4.442   0.093 -1.9526 -2.4880  0.3729
11360TIP3    H255572   3.471   4.406  -0.021 -0.5774  0.2669  0.5658
11361TIP3   OH255573   1.277   0.627  15.518 -0.6380  0.0949 -0.4379
11361TIP3    H155574   1.187   0.628  15.484 -0.5856  0.0310 -0.5780
11361TIP3    H255575   1.309   0.716  15.506 -0.8451  0.2420  0.0465
11362TIP3   OH255576   2.540   5.447   3.374 -0.0229 -0.3052  0.3179
11362TIP3    H155577   2.454   5.432   3.335  0.2524 -1.9610  0.2741
11362TIP3    H255578   2.522   5.492   3.456 -1.0322 -1.5261  0.7931
11363TIP3   OH255579   1.648   1.721   0.113  1.2656  0.2087 -0.3055
11363TIP3    H155580   1.558   1.739   0.086  1.2870  1.2566  0.2668
11363TIP3    H255581   1.683   1.664   0.045  0.1530 -0.2646 -0.4964
11364TIP3   OH255582   3.405   1.587  10.281 -0.8003 -0.0178 -0.1390
11364TIP3    H155583   3.352   1.511  10.304 -1.1150  0.4528  0.7488
11364TIP3    H255584   3.495   1.554  10.279 -1.0549 -0.6753 -0.9799
11365TIP3   OH255585   2.174   0.042   4.601 -0.2008 -0.0643  0.1416
11365TIP3    H155586   2.085   0.045   4.566 -0.4580  1.7222  0.8214
11365TIP3    H255587   2.225   0.096   4.541 -0.1636  1.1108  1.1941
11366TIP3   OH255588   6.362   5.017   3.455  0.1084  0.4196  0.4360
11366TIP3    H155589   6.423   4.943   3.456  0.4335  0.6635  2.0319
11366TIP3    H255590   6.307   5.003   3.378  1.1835 -0.6282 -0.1662
11367TIP3   OH255591   5.203   4.309  14.152 -0.0633 -0.1193  0.0638
11367TIP3    H155592   5.235   4.229  14.111 -0.1656 -0.0074 -0.2416
11367TIP3    H255593   5.138   4.343  14.090  1.2762  1.1665 -0.6992
11368TIP3   OH255594   0.433   4.158  12.877 -0.3727 -0.5222 -0.2622
11368TIP3    H155595   0.343   4.123  12.877 -0.9761  0.8699  1.6541
11368TIP3    H255596   0.422   4.252  12.862  0.8288 -0.4274 -0.6222
11369TIP3   OH255597   2.004   6.129  13.385  0.5681  0.1899 -0.1762
11369TIP3    H155598   2.068   6.145  13.454  1.2061 -1.4765 -0.3327
11369TIP3    H255599   2.022   6.195  13.319  0.2161  1.5485  1.0481
11370TIP3   OH255600   4.536   5.560   1.275  0.7130 -0.0671 -0.1496
11370TIP3    H155601   4.442   5.580   1.274  1.0453  1.6639 -0.2008
11370TIP3    H255602   4.541   5.468   1.300 -1.0672 -0.6774 -1.7826
11371TIP3   OH255603   0.895   1.431  15.387  0.2036  0.7243 -0.2680
11371TIP3    H155604   0.884   1.349  15.434 -0.1808  1.4470  0.9298
11371TIP3    H255605   0.967   1.475  15.433  0.2173  1.1856 -0.7237
11372TIP3   OH255606   3.480   2.096   0.427 -0.4336  0.1975 -0.2933
11372TIP3    H155607   3.530   2.072   0.349 -0.2229  1.6017 -0.6197
11372TIP3    H255608   3.538   2.155   0.475 -0.3257 -1.0915  1.2493
11373TIP3   OH255609   3.798   4.071  11.211  0.2219  0.1524  0.1546
11373TIP3    H155610   3.813   3.977  11.218 -1.8481 -0.5818 -3.1623
11373TIP3    H255611   3.705   4.080  11.192  0.3509  2.8860  0.3508
11374TIP3   OH255612   6.491   5.134   0.825  0.1045 -0.4198 -0.1360
11374TIP3    H155613   6.574   5.167   0.790 -0.0868  1.0132  0.6829
11374TIP3    H255614   6.510   5.043   0.849  1.3271 -0.2438 -0.3590
11375TIP3   OH255615   2.711   1.112   5.315  0.4555  0.0836  0.0912
11375TIP3    H155616   2.764   1.143   5.241  0.4321 -0.2550 -0.0700
11375TIP3    H255617   2.737   1.168   5.388  0.7612  0.1695 -0.0810
11376TIP3   OH255618   5.138   6.637  13.407  0.1297  0.7637  0.1719
11376TIP3    H155619   5.194   6.563  13.428 -1.5573 -0.4754  0.4862
11376TIP3    H255620   5.132   6.637  13.312 -0.0088  0.3946  0.1815
11377TIP3   OH255621   2.354   3.520   0.414  0.0517 -0.1439  0.4298
11377TIP3    H155622   2.362   3.486   0.503  2.0478  1.7647  1.0786
11377TIP3    H255623   2.380   3.446   0.358 -0.8663 -1.2589  1.4246
11378TIP3   OH255624   2.856   1.829  12.181  0.8003  0.0320 -0.4254
11378TIP3    H155625   2.874   1.792  12.094  1.9090 -0.1205 -0.1461
11378TIP3    H255626   2.928   1.890  12.197  0.6239  0.0369  0.4044
11379TIP3   OH255627   4.064   0.946   5.472  0.7367 -0.2521 -0.2767
11379TIP3    H155628   4.128   0.982   5.533 -1.5931  0.4356  1.8992
11379TIP3    H255629   4.009   0.890   5.525 -1.0864 -0.0441 -1.8543
11380TIP3   OH255630   2.312   0.441  11.343  0.1857 -0.6846  0.6869
11380TIP3    H155631   2.234   0.496  11.336 -0.0375 -0.6134  2.9906
11380TIP3    H255632   2.383   0.496  11.308 -0.5786 -0.3311 -0.3758
11381TIP3   OH255633   5.914   5.827  10.741  0.9355 -0.0715 -0.2493
11381TIP3    H155634   5.890   5.869  10.824  2.1528 -0.3585  0.2697
11381TIP3    H255635   5.988   5.879  10.709 -1.1404  1.7127 -2.5504
11382TIP3   OH255636   0.559   1.707  11.333  0.7015 -0.0642  0.1277
11382TIP3    H155637   0.523   1.627  11.294 -1.5537  1.0528 -0.2636
11382TIP3    H255638   0.634   1.729  11.278  0.5198 -1.1642 -0.5945
11383TIP3   OH255639   3.488   4.989   2.672 -0.6443 -0.1052  0.0947
11383TIP3    H155640   3.487   4.894   2.683  1.0347  0.0270  2.0945
11383TIP3    H255641   3.562   5.005   2.613 -0.3827  0.0014  0.4505
11384TIP3   OH255642   3.324   6.068  13.445  0.5474 -0.1056  0.4138
11384TIP3    H155643   3.253   6.004  13.435 -1.2126  1.8850 -0.7724
11384TIP3    H255644   3.401   6.025  13.411 -0.3665 -1.9225  0.5448
11385TIP3   OH255645   2.442   5.959  10.459  0.0000 -0.1838 -0.1891
11385TIP3    H155646   2.515   5.965  10.521  2.2733  0.8329 -2.7409
11385TIP3    H255647   2.375   6.016  10.496  0.7937 -0.4676  1.8398
11386TIP3   OH255648   6.693   5.685   4.667  0.1006  0.3184  0.2021
11386TIP3    H155649   6.788   5.680   4.683  0.3693  2.5651 -0.4302
11386TIP3    H255650   6.654   5.666   4.753  1.0313 -1.7009  0.2535
11387TIP3   OH255651   0.227   0.404   1.186 -0.2496  0.1150 -0.4845
11387TIP3    H155652   0.281   0.480   1.209 -0.5687  0.4617 -0.8637
11387TIP3    H255653   0.186   0.428   1.103  0.5904 -0.9575 -1.2543
11388TIP3   OH255654   5.933   4.967   3.364  0.0950 -0.4350 -0.4903
11388TIP3    H155655   5.882   4.998   3.439  0.7289 -0.7677  0.0929
11388TIP3    H255656   5.893   4.884   3.340 -1.0437  0.3631 -1.4854
11389TIP3   OH255657   5.351   6.412  15.090  0.1672  0.3295  0.3716
11389TIP3    H155658   5.336   6.458  15.173  0.9981  1.6350 -0.1729
11389TIP3    H255659   5.348   6.481  15.024  0.4353 -0.5625 -0.5931
11390TIP3   OH255660   2.798   6.496   0.597  1.0539 -0.5026 -0.1474
11390TIP3    H155661   2.771   6.440   0.524  2.1294  0.3227 -1.2165
11390TIP3    H255662   2.720   6.547   0.619  1.1169  0.3336 -1.7625
11391TIP3   OH255663   5.136   3.301   4.122 -0.4399  0.2713 -0.1187
11391TIP3    H155664   5.232   3.296   4.129 -0.5043 -0.6095  0.3303
11391TIP3    H255665   5.105   3.282   4.211 -1.0578 -0.7928 -0.5444
11392TIP3   OH255666   0.214   1.043   6.190  0.2868  0.3285 -0.3533
11392TIP3    H155667   0.250   0.981   6.253  2.0035 -2.0396 -3.3731
11392TIP3    H255668   0.292   1.085   6.152 -0.6464  1.3763 -1.1668
11393TIP3   OH255669   2.792   6.219   3.204 -0.5463 -0.4391 -0.1152
11393TIP3    H155670   2.873   6.192   3.247 -2.0429 -0.0551  3.2617
11393TIP3    H255671   2.758   6.139   3.165 -0.0009 -1.2849  1.0717
11394TIP3   OH255672   0.302   0.545   3.709  0.1457  0.4737  0.5284
11394TIP3    H155673   0.247   0.577   3.638 -0.5489  1.0664  1.3058
11394TIP3    H255674   0.373   0.608   3.715  1.7573 -1.0529 -1.4053
11395TIP3   OH255675   2.933   0.546   0.937  0.2446  0.2381  0.3199
11395TIP3    H155676   2.873   0.491   0.988  1.1837 -0.6418  0.5047
11395TIP3    H255677   2.957   0.492   0.862  1.0096  0.4682  0.3881
11396TIP3   OH255678   3.036   6.468  10.986  0.1104  0.1052 -0.0420
11396TIP3    H155679   3.004   6.378  10.979  0.3235  0.0351 -0.1366
11396TIP3    H255680   3.042   6.485  11.080  2.1599 -0.7449  0.0232
11397TIP3   OH255681   2.599   3.638  13.873  0.2340  0.0419 -0.4228
11397TIP3    H155682   2.633   3.550  13.889  1.1035  0.7114  1.8106
11397TIP3    H255683   2.676   3.689  13.848 -0.0048  0.4665 -0.2962
11398TIP3   OH255684   0.502   2.266   1.171 -0.6108 -0.1131 -0.1991
11398TIP3    H155685   0.437   2.205   1.138 -0.6564  0.5455 -1.3795
11398TIP3    H255686   0.454   2.320   1.234 -0.4003 -1.7037  1.3964
11399TIP3   OH255687   5.530   0.806  15.957  0.7045 -0.3143 -0.1540
11399TIP3    H155688   5.516   0.898  15.935 -1.3152  0.2288  2.7605
11399TIP3    H255689   5.625   0.799  15.972  0.9228  1.2288 -0.6344
11400TIP3   OH255690   4.123   4.555  15.750 -0.2042  0.6638  0.0545
11400TIP3    H155691   4.192   4.589  15.693 -0.1586  0.5436  0.0390
11400TIP3    H255692   4.113   4.463  15.725  2.6335 -0.6229  2.9286
11401TIP3   OH255693   1.479   4.372   4.143  0.0037 -0.0676  0.3115
11401TIP3    H155694   1.436   4.316   4.208 -0.7821 -0.5088 -0.5615
11401TIP3    H255695   1.437   4.350   4.060  2.6338 -1.3164 -0.8230
11402TIP3   OH255696   2.994   1.044   1.495  0.1920  0.2802 -0.5893
11402TIP3    H155697   3.065   1.068   1.436  0.4223 -1.9201 -1.3098
11402TIP3    H255698   2.915   1.074   1.449  0.3942 -1.0526 -1.8939
11403TIP3   OH255699   0.971   0.183   1.748  0.0072  0.3639  0.8229
11403TIP3    H155700   0.878   0.196   1.769 -0.6071 -0.0612 -1.3919
11403TIP3    H255701   1.014   0.260   1.784 -1.3382  0.9744  1.2017
11404TIP3   OH255702   4.625   3.181  11.049 -0.3846  0.4333  0.5298
11404TIP3    H155703   4.621   3.091  11.015 -0.0905  0.5574  0.1576
11404TIP3    H255704   4.634   3.235  10.971  1.9919  0.6108  0.8629
11405TIP3   OH255705   3.684   2.717   4.587 -0.0419 -0.1904 -0.1065
11405TIP3    H155706   3.717   2.697   4.674 -0.7670  0.9698  0.4542
11405TIP3    H255707   3.730   2.656   4.529  0.8666 -0.5894  1.0063
11406TIP3   OH255708   0.014   3.697   0.826 -0.3126 -0.4741 -0.1226
11406TIP3    H155709  -0.076   3.705   0.858 -0.9365 -1.1842 -1.6441
11406TIP3    H255710   0.014   3.745   0.743  1.6917  2.7535  1.5318
11407TIP3   OH255711   3.004   0.941   3.668 -0.6473  0.1811  0.8093
11407TIP3    H155712   3.063   0.884   3.718  0.8723  0.0505 -1.0151
11407TIP3    H255713   3.038   1.029   3.684 -0.5883  0.2046  0.5483
11408TIP3   OH255714   0.522   2.694  13.602  0.0669 -0.1578 -0.1152
11408TIP3    H155715   0.596   2.729  13.552 -0.1929 -0.7308 -0.9231
11408TIP3    H255716   0.493   2.618  13.551 -1.3806  0.3290 -0.0614
11409TIP3   OH255717   0.089   6.002   1.060 -0.0773  0.3300 -0.1121
11409TIP3    H155718   0.064   5.921   1.016 -2.3621  1.9923 -2.0779
11409TIP3    H255719   0.047   5.996   1.146 -1.4119 -0.0224 -0.7563
11410TIP3   OH255720   1.515   3.219  17.000  0.7426  0.0792  0.0245
11410TIP3    H155721   1.500   3.169  17.080  0.8009  2.4848  1.6500
11410TIP3    H255722   1.435   3.269  16.988  1.5918  1.4499 -0.0949
11411TIP3   OH255723   1.422   6.599   0.393 -0.0993  0.0946 -0.2585
11411TIP3    H155724   1.419   6.503   0.393  0.2104  0.0862 -0.5687
11411TIP3    H255725   1.505   6.621   0.435 -0.9824  0.2595  1.5077
11412TIP3   OH255726   6.225   1.220  17.064  0.4486  0.2225  0.6265
11412TIP3    H155727   6.171   1.243  16.988 -1.5385  0.6420  2.0802
11412TIP3    H255728   6.284   1.295  17.076  1.3113 -0.1759 -0.8965
11413TIP3   OH255729   1.991   1.106   0.170  0.0685  0.0802 -0.3307
11413TIP3    H155730   1.973   1.199   0.182 -0.9821 -0.1117 -0.3189
11413TIP3    H255731   2.079   1.094   0.205  0.8713  1.3648 -1.7878
11414TIP3   OH255732   4.356   4.640  15.623 -0.0752  0.1970  0.4492
11414TIP3    H155733   4.429   4.597  15.666  0.0571  1.0693  1.1316
11414TIP3    H255734   4.383   4.647  15.531  0.8352  0.7802  0.7495
11415TIP3   OH255735   2.130   5.552   1.248 -0.6836 -0.0272 -0.0688
11415TIP3    H155736   2.127   5.588   1.159  1.9273 -0.6599 -0.4989
11415TIP3    H255737   2.083   5.468   1.241  1.2361 -1.0617 -1.4415
11416TIP3   OH255738   0.629   6.352   1.513  0.1378  0.1462 -0.0291
11416TIP3    H155739   0.683   6.404   1.453  1.6920 -2.2530 -0.8582
11416TIP3    H255740   0.596   6.415   1.577  3.5021  1.8691  0.2039
11417TIP3   OH255741   5.398   5.137   5.264  0.2372 -1.1996  0.1752
11417TIP3    H155742   5.364   5.052   5.292 -1.0680 -0.8586 -0.3053
11417TIP3    H255743   5.359   5.199   5.326 -1.9091 -0.5518 -1.6753
11418TIP3   OH255744   3.668   0.203   5.810  0.5087  0.0887  0.6692
11418TIP3    H155745   3.588   0.161   5.842 -0.0115  1.2267  0.9023
11418TIP3    H255746   3.639   0.286   5.772  1.3267 -0.4288 -1.2168
11419TIP3   OH255747   1.025   1.155   2.749 -0.2647  0.2115  0.2894
11419TIP3    H155748   1.079   1.168   2.827  1.3345  1.1609 -0.8928
11419TIP3    H255749   0.969   1.232   2.745  1.1407  1.2454 -0.5699
11420TIP3   OH255750   0.307   3.300   5.832 -1.1551  0.6514  0.0115
11420TIP3    H155751   0.214   3.278   5.832 -1.1033  0.2901 -1.6020
11420TIP3    H255752   0.320   3.351   5.752 -0.4164  2.9542  1.4952
11421TIP3   OH255753   1.248   5.220   4.148 -0.5976  0.3397 -0.3942
11421TIP3    H155754   1.320   5.250   4.092  0.0740 -0.5830 -0.0552
11421TIP3    H255755   1.261   5.125   4.153 -1.9475  0.1433 -0.4619
11422TIP3   OH255756   5.658   3.318   0.495 -0.3990  0.3195 -0.1317
11422TIP3    H155757   5.599   3.243   0.508  0.4381 -0.3195  0.0636
11422TIP3    H255758   5.650   3.370   0.574  1.0205 -0.9916  0.9289
11423TIP3   OH255759   5.530   3.894   3.879 -0.8173  0.4059 -0.4172
11423TIP3    H155760   5.507   3.983   3.904 -0.6210  0.4144 -0.2630
11423TIP3    H255761   5.502   3.886   3.788 -0.2496  0.8405 -0.6368
11424TIP3   OH255762   3.020   2.097  11.109  0.3179  0.0112 -0.1545
11424TIP3    H155763   3.075   2.086  11.031  0.2061 -2.2076  0.0152
11424TIP3    H255764   3.081   2.090  11.182  0.3158  1.3318 -0.0164
11425TIP3   OH255765   5.348   3.459  12.733  0.5917 -0.1719  0.5589
11425TIP3    H155766   5.374   3.491  12.819  1.1277  0.9448  0.0137
11425TIP3    H255767   5.361   3.534  12.675 -0.5192 -0.6578 -0.3604
11426TIP3   OH255768   5.136   0.750   2.393  0.4064  0.3860  0.1659
11426TIP3    H155769   5.124   0.758   2.298  1.1981 -0.1687  0.0065
11426TIP3    H255770   5.050   0.726   2.426  0.1807  0.3213 -0.4533
11427TIP3   OH255771   1.851   1.627   2.436  0.0663 -0.8027  0.5244
11427TIP3    H155772   1.861   1.592   2.525 -0.1088 -1.7832  0.1740
11427TIP3    H255773   1.801   1.708   2.448  0.7303 -0.5072  1.3910
11428TIP3   OH255774   5.692   1.968  11.091  0.3200 -0.5228  0.4978
11428TIP3    H155775   5.667   1.876  11.089  0.4465 -0.5594 -1.4018
11428TIP3    H255776   5.787   1.968  11.093  0.3195 -0.4255  0.5611
11429TIP3   OH255777   1.279   1.589  11.750  0.1158 -0.4925  0.4561
11429TIP3    H155778   1.186   1.601  11.770  0.5067  1.4974  1.3829
11429TIP3    H255779   1.302   1.507  11.793 -0.8734 -0.1939  1.6289
11430TIP3   OH255780   2.379   3.562   0.711 -0.3058 -0.5626  0.8930
11430TIP3    H155781   2.398   3.555   0.805  1.2206  2.5978  0.9821
11430TIP3    H255782   2.415   3.648   0.687 -2.8701 -0.1578 -2.0700
11431TIP3   OH255783   3.469   4.640  16.030  0.1455  0.1970  0.0920
11431TIP3    H155784   3.480   4.558  15.982 -0.6170  0.6017 -0.8259
11431TIP3    H255785   3.492   4.619  16.120  0.2237 -0.9536 -0.1807
11432TIP3   OH255786   1.412   2.431  17.012 -0.0308  0.1337  0.7209
11432TIP3    H155787   1.471   2.375  17.062  0.5401  0.2799  0.2347
11432TIP3    H255788   1.431   2.409  16.921 -2.2945 -1.4154  0.5398
11433TIP3   OH255789   2.042   0.885  15.803  0.4678  0.6555 -0.4913
11433TIP3    H155790   2.001   0.824  15.742 -0.5313  0.0900  0.7002
11433TIP3    H255791   2.040   0.840  15.888  5.3992 -0.3033 -0.5965
11434TIP3   OH255792   0.760   6.364   0.504  0.3147  0.2152 -0.7881
11434TIP3    H155793   0.673   6.346   0.539 -0.0671 -0.1269 -1.8765
11434TIP3    H255794   0.746   6.432   0.438  0.9146  0.3545 -0.7812
11435TIP3   OH255795   5.733   0.687   5.673  0.0843  0.0183 -0.2205
11435TIP3    H155796   5.727   0.744   5.597  0.1921  0.1449 -0.1348
11435TIP3    H255797   5.680   0.731   5.740  1.4656  0.8637  0.3688
11436TIP3   OH255798   1.046   2.723   5.267 -0.1365  0.0045 -0.0548
11436TIP3    H155799   1.056   2.804   5.217 -1.6884 -0.0912 -0.5728
11436TIP3    H255800   1.123   2.671   5.244  0.0767  0.6892 -0.9568
11437TIP3   OH255801   1.115   6.445  13.063 -0.0796  0.4616  0.3902
11437TIP3    H155802   1.088   6.525  13.109 -1.5568  0.6447 -0.7157
11437TIP3    H255803   1.100   6.375  13.126  0.3623  0.9565  1.0575
11438TIP3   OH255804   4.974   1.623   0.782  0.3014  0.0050 -0.6943
11438TIP3    H155805   4.960   1.690   0.715 -1.4961 -0.8534 -1.2330
11438TIP3    H255806   5.052   1.576   0.754  0.6530  0.8434 -1.1568
11439TIP3   OH255807   5.747   4.499  14.202 -0.0947 -0.0217 -0.1604
11439TIP3    H155808   5.792   4.537  14.127 -0.4524 -0.0675 -0.3989
11439TIP3    H255809   5.657   4.485  14.172 -0.0870 -0.6182  0.0729
11440TIP3   OH255810   1.060   2.817  16.494  0.6259  1.0568 -0.0834
11440TIP3    H155811   1.027   2.869  16.566  2.3204  0.0847  1.4768
11440TIP3    H255812   1.045   2.726  16.521  1.4487  0.6715 -0.8805
11441TIP3   OH255813   1.210   2.029   2.637  0.1675  0.6016  0.0574
11441TIP3    H155814   1.181   2.053   2.725 -0.0881 -0.1229  0.1769
11441TIP3    H255815   1.304   2.048   2.637  0.4412 -0.6353  0.9397
11442TIP3   OH255816   3.171   0.923   0.797  0.0487 -0.3479 -0.2786
11442TIP3    H155817   3.136   0.885   0.877 -0.6672 -0.1912 -0.5120
11442TIP3    H255818   3.188   0.848   0.740  2.0593 -0.6049  0.5755
11443TIP3   OH255819   0.853   0.418  15.494  0.5692  0.1352 -0.2836
11443TIP3    H155820   0.788   0.481  15.525  1.1510 -0.0417  1.4417
11443TIP3    H255821   0.933   0.470  15.482  1.3841 -0.3724  2.3056
11444TIP3   OH255822   3.824   5.211   3.287  0.2244  0.4410  0.3279
11444TIP3    H155823   3.738   5.169   3.287  1.6842 -2.9317 -1.4499
11444TIP3    H255824   3.845   5.224   3.195  1.4333  1.7577  0.7424
11445TIP3   OH255825   0.576   1.138  12.522  0.0198  0.4771  0.4836
11445TIP3    H155826   0.552   1.148  12.430  0.3274  0.7232  0.4312
11445TIP3    H255827   0.556   1.222  12.562 -0.3660  0.2868  0.7023
11446TIP3   OH255828   0.898   3.661  12.062 -0.1938 -0.4113  0.3324
11446TIP3    H155829   0.891   3.722  12.135 -1.1654  2.2537 -1.8129
11446TIP3    H255830   0.992   3.653  12.046 -0.0534  0.9614  0.3529
11447TIP3   OH255831   4.699   4.927   4.849  0.0465  0.0635  0.5667
11447TIP3    H155832   4.789   4.915   4.880  0.8059  1.1417 -1.0848
11447TIP3    H255833   4.685   4.854   4.788  0.2055  0.5009 -0.0022
11448TIP3   OH255834   6.021   0.070   1.641 -0.2330  0.0377 -0.1300
11448TIP3    H155835   5.926   0.065   1.631 -0.3251  2.7341 -1.5104
11448TIP3    H255836   6.055   0.013   1.572 -0.8316 -0.3441 -0.1232
11449TIP3   OH255837   4.301   2.256   4.122 -0.5724  0.5960  0.6414
11449TIP3    H155838   4.294   2.200   4.200 -1.3854  0.6687  0.6231
11449TIP3    H255839   4.321   2.343   4.158 -1.3960  0.7261  0.8102
11450TIP3   OH255840   2.616   0.366   2.554 -0.1580  0.3364  0.5762
11450TIP3    H155841   2.579   0.454   2.548 -2.7315 -0.7141 -0.4913
11450TIP3    H255842   2.617   0.335   2.463  2.4184 -0.1563  0.6927
11451TIP3   OH255843   0.251   6.615  15.344 -0.2306  0.3019 -1.0545
11451TIP3    H155844   0.271   6.531  15.386  0.7493  0.7922 -0.5032
11451TIP3    H255845   0.320   6.627  15.280 -0.0054  0.9793 -0.6927
11452TIP3   OH255846   4.878   1.787   5.042  0.2647  0.2419 -0.2748
11452TIP3    H155847   4.850   1.879   5.049  0.0213  0.1525 -0.0869
11452TIP3    H255848   4.955   1.781   5.098  1.1804  0.6922 -1.4302
11453TIP3   OH255849   0.090   1.981   4.482  0.1672 -0.8611 -0.3759
11453TIP3    H155850   0.120   2.064   4.446 -0.9890  0.7001  1.9814
11453TIP3    H255851   0.143   1.915   4.438  0.8625  1.0518 -2.6342
11454TIP3   OH255852   3.666   3.790   5.919  0.4793  0.3468 -0.3215
11454TIP3    H155853   3.676   3.882   5.892  1.3720  0.1599 -0.6884
11454TIP3    H255854   3.692   3.789   6.011 -1.1345  0.7293  0.1768
11455TIP3   OH255855   2.820   3.267   4.308 -0.1887  0.4950  0.1919
11455TIP3    H155856   2.904   3.258   4.264  0.2760  0.2251  1.1142
11455TIP3    H255857   2.782   3.347   4.272  0.3609  0.4986 -0.3913
11456TIP3   OH255858   0.010   2.405  11.612  0.0798 -0.3310 -0.1468
11456TIP3    H155859   0.100   2.438  11.618 -0.5067  1.1552  0.9846
11456TIP3    H255860  -0.016   2.390  11.703 -1.3092  0.6993 -0.3396
11457TIP3   OH255861   1.678   5.039   1.348  0.1940 -0.1903 -0.4467
11457TIP3    H155862   1.617   5.043   1.422 -0.2640 -2.1402 -0.6518
11457TIP3    H255863   1.623   5.026   1.272  0.8051 -1.4702 -0.7042
11458TIP3   OH255864   6.363   0.806  14.774  0.0090 -0.8083 -0.3511
11458TIP3    H155865   6.411   0.743  14.828 -0.0159 -1.7316 -1.3760
11458TIP3    H255866   6.427   0.837  14.710 -0.1943 -0.4207 -0.3693
11459TIP3   OH255867   6.751   2.551   4.178  0.1343  0.4011 -0.2938
11459TIP3    H155868   6.751   2.606   4.256 -0.2794  0.1728 -0.1286
11459TIP3    H255869   6.837   2.565   4.139  0.7563 -0.3154  0.7891
11460TIP3   OH255870   5.696   2.014   5.993 -0.8371 -0.0652 -0.1155
11460TIP3    H155871   5.706   2.086   6.055 -1.9280 -0.5787  0.7106
11460TIP3    H255872   5.660   2.055   5.914 -1.0446  0.3676  0.1951
11461TIP3   OH255873   3.248   1.341   1.008 -0.0696  0.6007 -0.3333
11461TIP3    H155874   3.320   1.345   1.072 -0.8749  0.5958  0.5932
11461TIP3    H255875   3.275   1.273   0.947 -0.5582 -1.4763  1.6288
11462TIP3   OH255876   2.461   2.113  16.821 -0.4524  0.6256 -0.2347
11462TIP3    H155877   2.446   2.032  16.773  1.3197  0.2664 -0.2458
11462TIP3    H255878   2.422   2.098  16.907 -0.5998 -0.0374 -0.4150
11463TIP3   OH255879   2.840   0.892  16.884  0.1629 -0.0045 -0.5470
11463TIP3    H155880   2.849   0.939  16.801 -2.4420  0.4489 -0.6505
11463TIP3    H255881   2.802   0.807  16.860 -1.3671  0.4347  0.2101
11464TIP3   OH255882   3.596   0.966   3.671  0.0745  0.2733  0.0367
11464TIP3    H155883   3.553   0.922   3.597 -1.6535 -0.2788  1.3046
11464TIP3    H255884   3.686   0.981   3.641  0.0484 -1.8998 -1.3635
11465TIP3   OH255885   4.406   0.985   5.427 -0.1843  0.2748  0.0833
11465TIP3    H155886   4.378   0.994   5.336 -1.1928 -1.1982  0.2140
11465TIP3    H255887   4.329   0.953   5.473  1.0145 -1.6019  0.9279
11466TIP3   OH255888   3.277   6.094   5.812 -0.0110 -0.2419  0.1505
11466TIP3    H155889   3.341   6.041   5.764 -1.5777 -2.1576  0.0688
11466TIP3    H255890   3.256   6.041   5.889 -2.5354 -0.3823 -0.5525
11467TIP3   OH255891   6.246   2.132  11.571 -0.8778  0.4087 -0.4912
11467TIP3    H155892   6.179   2.198  11.588 -0.8658  0.2889  0.0461
11467TIP3    H255893   6.323   2.164  11.618 -0.9266 -0.0758 -0.0635
11468TIP3   OH255894   1.097   3.660   3.706 -0.4064 -0.0401 -0.0234
11468TIP3    H155895   1.089   3.736   3.647 -0.9823 -0.2316 -0.2057
11468TIP3    H255896   1.040   3.682   3.780 -0.3665 -0.1803  0.0483
11469TIP3   OH255897   2.502   5.023   5.991 -0.5653 -0.1413 -0.0788
11469TIP3    H155898   2.478   4.984   5.907  0.5249  1.5487 -1.2444
11469TIP3    H255899   2.597   5.033   5.986 -0.7152  2.0464  0.3630
11470TIP3   OH255900   4.320   1.204   6.652  0.0436 -0.0592 -0.4151
11470TIP3    H155901   4.359   1.117   6.662 -0.8952 -0.4914 -0.5127
11470TIP3    H255902   4.395   1.264   6.661  0.3595 -0.7150  2.3665
11471TIP3   OH255903   1.671   3.478   1.895 -0.5391  0.1018  0.0792
11471TIP3    H155904   1.654   3.489   1.988 -0.7174 -0.2733  0.0937
11471TIP3    H255905   1.619   3.546   1.853  0.6975  1.2394  0.3365
11472TIP3   OH255906   4.389   6.116  16.566 -0.1910 -0.0402 -0.1613
11472TIP3    H155907   4.344   6.049  16.619 -1.7840 -1.9747 -3.6453
11472TIP3    H255908   4.481   6.090  16.567 -0.3960 -0.7698  0.5768
11473TIP3   OH255909   2.257   4.871  12.958 -0.1259 -0.8680  0.3623
11473TIP3    H155910   2.191   4.888  12.892  0.9325  0.1446 -0.4785
11473TIP3    H255911   2.216   4.898  13.041 -0.9386 -0.7679 -0.0638
11474TIP3   OH255912   3.030   5.933   2.723  0.0545 -0.1430 -0.6094
11474TIP3    H155913   3.029   5.839   2.707 -0.3961 -0.3186  0.3544
11474TIP3    H255914   3.121   5.953   2.744  0.3116 -0.2053 -1.6140
11475TIP3   OH255915   0.366   6.788   0.996 -0.3468 -0.4057 -0.4050
11475TIP3    H155916   0.372   6.879   1.026 -2.0326 -0.4314  0.0952
11475TIP3    H255917   0.400   6.737   1.070 -0.2635 -0.2416 -0.3259
11476TIP3   OH255918   0.590   2.548  11.583  0.3790 -0.2404  0.1291
11476TIP3    H155919   0.501   2.553  11.548  0.4051  0.2105  0.1177
11476TIP3    H255920   0.604   2.455  11.601 -0.5195 -0.1694  1.2442
11477TIP3   OH255921   4.233   3.352   2.072 -0.1313 -0.1859  0.7084
11477TIP3    H155922   4.206   3.291   2.003  1.2365 -2.3264  1.9471
11477TIP3    H255923   4.205   3.311   2.153  2.4392 -0.1289  1.7139
11478TIP3   OH255924   2.076   3.274   1.057  0.5001 -0.5177  0.6999
11478TIP3    H155925   2.086   3.189   1.014 -0.8971 -0.7143  0.7241
11478TIP3    H255926   2.165   3.301   1.076  0.9477 -2.3196  1.3603
11479TIP3   OH255927   2.239   0.983  16.978 -0.0235 -0.1811  0.3124
11479TIP3    H155928   2.186   0.923  16.925 -1.6624  2.2452 -1.0053
11479TIP3    H255929   2.328   0.947  16.973 -0.9858 -2.8101  0.1850
11480TIP3   OH255930   6.275   2.724   0.988  0.1518 -0.3677 -0.0845
11480TIP3    H155931   6.201   2.738   1.046 -1.6971 -1.1677 -2.1068
11480TIP3    H255932   6.318   2.810   0.983 -0.2257 -0.0512  1.6110
11481TIP3   OH255933   4.169   0.864  15.094  0.4510  0.0098  0.2019
11481TIP3    H155934   4.192   0.772  15.083 -0.0658 -0.1027  0.0548
11481TIP3    H255935   4.139   0.870  15.185  0.1798 -0.0307  0.1143
11482TIP3   OH255936   5.926   1.594   3.903 -0.0385  0.0360  0.1891
11482TIP3    H155937   5.934   1.688   3.885 -1.3761  0.2713  0.6726
11482TIP3    H255938   6.002   1.555   3.861 -0.6748  1.0567 -2.0978
11483TIP3   OH255939   5.312   6.545  12.971  0.1234  0.2721  0.4896
11483TIP3    H155940   5.393   6.495  12.980 -0.9458 -1.5699  0.2805
11483TIP3    H255941   5.341   6.636  12.959  2.1080 -0.0873  2.0329
11484TIP3   OH255942   0.300   5.822  14.363  0.3096  0.1668  0.0942
11484TIP3    H155943   0.250   5.842  14.442  0.1685  2.5460 -0.5408
11484TIP3    H255944   0.371   5.766  14.394 -0.7757 -0.4797  1.5765
11485TIP3   OH255945   0.107   2.471   0.675  0.1013 -0.3945 -0.2339
11485TIP3    H155946   0.101   2.380   0.707  1.1061 -0.3021  0.2370
11485TIP3    H255947   0.047   2.519   0.731  0.5455 -0.5469  0.3835
11486TIP3   OH255948   0.611   3.965   2.906 -0.6035  1.0913  0.1513
11486TIP3    H155949   0.606   3.876   2.941 -0.2108  0.8545 -0.3712
11486TIP3    H255950   0.616   4.022   2.983 -1.3932  0.7022  0.4972
11487TIP3   OH255951   5.701   0.103  15.947  0.4341 -0.8685  0.1326
11487TIP3    H155952   5.615   0.066  15.965  0.2545 -0.1401  0.8151
11487TIP3    H255953   5.702   0.187  15.993  1.5228 -0.8820  0.1788
11488TIP3   OH255954   5.775   3.835  14.961 -0.1100  0.1533 -0.5987
11488TIP3    H155955   5.756   3.746  14.991  2.2900  0.3989  2.0204
11488TIP3    H255956   5.810   3.823  14.872  0.4188 -1.5571 -0.1958
11489TIP3   OH255957   5.656   5.972   1.178  0.5294 -0.2532 -0.1317
11489TIP3    H155958   5.646   5.917   1.255 -1.7442 -2.2167 -1.6483
11489TIP3    H255959   5.723   5.928   1.125  0.6534 -0.0421 -0.1501
11490TIP3   OH255960   4.609   3.815  13.713 -0.2653 -0.5601  0.1147
11490TIP3    H155961   4.631   3.825  13.620 -3.8245  0.7451 -0.7513
11490TIP3    H255962   4.601   3.905  13.745  0.2880 -0.9987  1.5593
11491TIP3   OH255963   2.876   1.098  11.636  0.7327  0.3613 -0.4883
11491TIP3    H155964   2.869   1.003  11.640  0.0337  0.4348  0.6008
11491TIP3    H255965   2.853   1.120  11.546 -2.5842 -0.3119  0.0432
11492TIP3   OH255966   3.418   1.778   6.506 -0.6383 -0.9153  0.2268
11492TIP3    H155967   3.408   1.685   6.488 -1.5204 -0.5154 -1.5178
11492TIP3    H255968   3.331   1.815   6.494 -0.1624  0.2500  0.1778
11493TIP3   OH255969   2.752   0.749  14.275 -0.1324 -0.1976  0.8122
11493TIP3    H155970   2.792   0.678  14.224  0.7362  0.9925 -0.2014
11493TIP3    H255971   2.761   0.720  14.366 -0.5088 -1.7454  0.3887
11494TIP3   OH255972   6.590   1.361  11.937 -0.4974  0.2285  0.1213
11494TIP3    H155973   6.532   1.286  11.950 -0.8463  0.3805 -0.5117
11494TIP3    H255974   6.641   1.339  11.859  0.8831 -0.2523  1.1089
11495TIP3   OH255975   5.371   4.376  15.118 -0.0118  0.0230 -0.1341
11495TIP3    H155976   5.323   4.429  15.181  0.4332  1.0116 -0.5887
11495TIP3    H255977   5.324   4.293  15.114 -0.2757  0.0895  1.1820
11496TIP3   OH255978   2.508   6.503   0.806 -0.6634 -0.2716 -0.0640
11496TIP3    H155979   2.566   6.558   0.858  0.4444 -0.5035 -1.0393
11496TIP3    H255980   2.470   6.562   0.741 -0.2121 -0.4568 -0.4997
11497TIP3   OH255981   3.074   3.637   2.393 -0.2434 -0.0231  0.2407
11497TIP3    H155982   3.110   3.633   2.304 -0.1136 -1.3506  0.3339
11497TIP3    H255983   3.008   3.706   2.389  0.4713  0.6415 -0.6180
11498TIP3   OH255984   1.895   4.329  13.505  0.2491 -0.4476 -0.4619
11498TIP3    H155985   1.868   4.272  13.432  0.7185 -2.3416  0.7712
11498TIP3    H255986   1.829   4.398  13.507  0.8528  0.3579 -3.3839
11499TIP3   OH255987   0.102   5.844   1.334  0.6420  0.1277  0.1478
11499TIP3    H155988   0.044   5.911   1.372 -0.2269 -0.1028 -0.7478
11499TIP3    H255989   0.183   5.892   1.313 -0.0586  0.9711 -0.7090
11500TIP3   OH255990   4.609   0.357   0.080  0.2492  0.1751 -0.1228
11500TIP3    H155991   4.591   0.274   0.036 -2.6526 -0.6269  2.2783
11500TIP3    H255992   4.705   0.359   0.089  0.5285 -2.0267 -1.7716
11501TIP3   OH255993   1.089   4.257   0.352  0.0350 -0.3707  0.7285
11501TIP3    H155994   1.133   4.310   0.418  0.1728 -1.0305  1.1861
11501TIP3    H255995   1.000   4.244   0.387  0.3083 -1.2780  1.1271
11502TIP3   OH255996   6.786   5.663   5.154  0.4871  0.2698  0.3819
11502TIP3    H155997   6.848   5.681   5.084 -0.6020 -0.6738 -0.8809
11502TIP3    H255998   6.783   5.743   5.205  0.3425  1.4503 -1.4101
11503TIP3   OH255999   0.646   5.179   0.275 -0.1198  0.9039  0.1835
11503TIP3    H156000   0.588   5.179   0.352  1.3758 -1.1222  1.3960
11503TIP3    H256001   0.685   5.092   0.274  0.2460  0.9983 -2.6871
11504TIP3   OH256002   5.521   5.326  16.780 -0.1533 -0.2521  0.2026
11504TIP3    H156003   5.583   5.316  16.851 -0.2697  0.4547  0.4124
11504TIP3    H256004   5.570   5.303  16.701 -0.2823 -1.9584  0.5863
11505TIP3   OH256005   0.355   5.306   4.859 -0.7541  0.0101 -0.4714
11505TIP3    H156006   0.296   5.243   4.900  0.9420 -1.6442 -0.4295
11505TIP3    H256007   0.403   5.344   4.933 -0.2718 -0.2566 -0.6452
11506TIP3   OH256008   6.675   1.468  15.699  1.2136 -0.2482 -0.4396
11506TIP3    H156009   6.621   1.420  15.637  0.1514  2.2825 -1.5907
11506TIP3    H256010   6.649   1.434  15.785 -1.3161 -0.0104 -1.0426
11507TIP3   OH256011   6.668   2.864   3.757  0.2017 -0.5096  0.5375
11507TIP3    H156012   6.723   2.812   3.816 -0.3892 -3.3515 -1.2424
11507TIP3    H256013   6.729   2.898   3.691  0.5641  1.0309  1.6149
11508TIP3   OH256014   2.385   5.532  17.022 -0.8211 -0.1936  0.2024
11508TIP3    H156015   2.386   5.565  16.932 -1.9049  1.8666  0.8599
11508TIP3    H256016   2.323   5.459  17.020  1.3786 -2.1326 -1.2547
11509TIP3   OH256017   1.558   6.555   2.769  0.3539 -0.0604  0.2702
11509TIP3    H156018   1.582   6.512   2.687 -0.1854  0.0569  0.0439
11509TIP3    H256019   1.463   6.545   2.775  0.4903 -0.9269  1.3812
11510TIP3   OH256020   4.733   1.512  12.419  0.0686  0.2170 -0.5777
11510TIP3    H156021   4.638   1.515  12.413  0.0053  0.6335  0.4589
11510TIP3    H256022   4.754   1.550  12.505  1.1198 -0.5145 -0.4758
11511TIP3   OH256023   2.179   3.074  12.742  0.3769 -0.1498 -0.1590
11511TIP3    H156024   2.259   3.066  12.690  1.2247  0.7685  0.9336
11511TIP3    H256025   2.197   3.147  12.801 -0.7247 -0.8519  1.0916
11512TIP3   OH256026   5.258   3.183   2.080 -0.2576  0.4063 -0.3632
11512TIP3    H156027   5.352   3.187   2.098  0.1633 -1.4379 -1.8934
11512TIP3    H256028   5.250   3.216   1.991 -1.2049  1.4010  0.0719
11513TIP3   OH256029   0.146   4.760   5.145 -0.2332  0.0668 -0.0881
11513TIP3    H156030   0.185   4.775   5.059 -1.8134  0.4386 -0.7771
11513TIP3    H256031   0.092   4.837   5.161  0.1083  0.0343  1.2876
11514TIP3   OH256032   4.454   6.235   6.089  0.4041 -0.6138  0.1504
11514TIP3    H156033   4.525   6.261   6.148  0.1994 -0.6179  0.4005
11514TIP3    H256034   4.498   6.215   6.006  0.8174 -1.6458  0.6010
11515TIP3   OH256035   0.576   0.510  14.087  0.3598 -0.0335 -0.1879
11515TIP3    H156036   0.541   0.485  14.002 -0.4404  0.7128 -0.1039
11515TIP3    H256037   0.651   0.453  14.101  1.4856  0.8725 -2.1052
11516TIP3   OH256038   3.314   5.533  14.967  0.2117  0.2177 -0.0808
11516TIP3    H156039   3.270   5.456  14.930 -1.4687  0.5716  1.0546
11516TIP3    H256040   3.243   5.596  14.981  1.1632  1.0180  1.3571
11517TIP3   OH256041   5.677   3.853   5.874  0.2288 -0.0070 -0.2074
11517TIP3    H156042   5.689   3.807   5.791  0.5285 -0.5248  0.1116
11517TIP3    H256043   5.671   3.783   5.939  1.9393  0.4190  0.4585
11518TIP3   OH256044   3.674   4.126   1.351 -0.1627  0.0330  0.1576
11518TIP3    H156045   3.734   4.177   1.405 -1.5292  1.3407  0.5271
11518TIP3    H256046   3.587   4.151   1.383 -1.0958  1.6337 -3.2095
11519TIP3   OH256047   6.808   1.045  16.754 -0.5319 -0.1973  0.1500
11519TIP3    H156048   6.718   1.042  16.787 -1.6218  1.2207 -2.3235
11519TIP3    H256049   6.834   0.954  16.745 -1.1454 -0.6216  2.2760
11520TIP3   OH256050   3.761   3.529   3.696  0.1518 -0.3422 -0.0196
11520TIP3    H156051   3.840   3.484   3.666  0.2988 -1.2486  1.5755
11520TIP3    H256052   3.690   3.491   3.645  0.8871  2.0194 -3.0543
11521TIP3   OH256053   4.829   3.374   1.147 -0.3407 -0.1117 -0.3728
11521TIP3    H156054   4.834   3.454   1.199 -0.9173 -0.0166 -0.4565
11521TIP3    H256055   4.832   3.303   1.211 -0.7933 -0.0002 -0.2244
11522TIP3   OH256056   3.095   3.773  15.658 -0.3781 -0.6072  0.1659
11522TIP3    H156057   3.126   3.774  15.568  0.4475 -1.8978  0.4020
11522TIP3    H256058   3.096   3.864  15.686  0.5896 -0.3287 -0.7304
11523TIP3   OH256059   3.943   2.199  14.172  0.7228  0.0326  0.0065
11523TIP3    H156060   3.953   2.262  14.101 -0.0307 -0.3861 -0.4742
11523TIP3    H256061   3.991   2.122  14.143  0.8481  0.0428  0.1814
11524TIP3   OH256062   0.908   1.051   1.359  0.8469  0.3280  0.0347
11524TIP3    H156063   0.934   0.961   1.341 -0.1418  0.0379  0.0033
11524TIP3    H256064   0.891   1.089   1.273 -0.0847  0.1226  0.1254
11525TIP3   OH256065   2.720   4.524  16.482  0.5367 -0.0498 -0.3420
11525TIP3    H156066   2.787   4.592  16.485 -0.1536  0.6206  2.1131
11525TIP3    H256067   2.669   4.545  16.404  1.0518  1.5526 -0.2921
11526TIP3   OH256068   6.435   1.344   0.015 -0.2911 -0.0518  0.1392
11526TIP3    H156069   6.373   1.376   0.080  0.2068  1.3386 -0.0208
11526TIP3    H256070   6.521   1.373   0.047 -0.1117  1.4060 -1.5105
11527TIP3   OH256071   0.641   3.047  12.409  0.0236 -0.0582 -0.7225
11527TIP3    H156072   0.703   3.111  12.444  1.0903 -0.5530 -1.6391
11527TIP3    H256073   0.574   3.099  12.365 -1.7016  0.6251  2.4226
11528TIP3   OH256074   6.711   5.659  11.092  0.7526 -0.4931  0.2642
11528TIP3    H156075   6.692   5.718  11.164  1.0309  1.5942 -1.2562
11528TIP3    H256076   6.628   5.618  11.071  0.5977 -0.8510  1.5035
11529TIP3   OH256077   3.245   1.916  14.488 -0.7722 -0.2288 -0.2945
11529TIP3    H156078   3.223   1.830  14.524 -0.6911  0.0078  0.3188
11529TIP3    H256079   3.177   1.932  14.422 -1.9064  0.0593  0.8881
11530TIP3   OH256080   1.248   0.174   1.273  0.2796  0.1936 -0.1295
11530TIP3    H156081   1.286   0.094   1.309 -1.4474 -0.3518  0.6009
11530TIP3    H256082   1.198   0.211   1.346 -1.1354  0.4919 -1.2191
11531TIP3   OH256083   4.879   1.653  14.302 -0.4836  0.1028 -0.0015
11531TIP3    H156084   4.973   1.665  14.293 -0.5967  1.6880  0.5299
11531TIP3    H256085   4.864   1.560  14.287  1.2877 -0.3626  0.9130
11532TIP3   OH256086   4.612   2.677  14.461  0.2063 -0.3843 -0.0897
11532TIP3    H156087   4.585   2.636  14.379  0.1348  1.2269 -0.9164
11532TIP3    H256088   4.546   2.744  14.477  0.2448 -0.6461  1.2860
11533TIP3   OH256089   2.432   4.273   3.999 -0.9566 -0.1056  0.5043
11533TIP3    H156090   2.406   4.196   4.050 -1.0113 -1.0356 -0.8662
11533TIP3    H256091   2.516   4.300   4.037  0.2341 -2.2626 -0.4085
11534TIP3   OH256092   4.005   6.823  11.909 -0.0713  0.2337 -0.1652
11534TIP3    H156093   4.037   6.910  11.933 -0.1158  0.7519 -1.8383
11534TIP3    H256094   3.937   6.839  11.844 -3.2461 -0.8958  2.6417
11535TIP3   OH256095   5.412   0.103   5.615  0.5642  0.2710 -0.3665
11535TIP3    H156096   5.471   0.178   5.625  1.2070 -0.3645  0.7755
11535TIP3    H256097   5.334   0.140   5.573  1.5745  1.2158 -1.4847
11536TIP3   OH256098   5.709   4.009  14.299 -0.4514  0.2246 -0.4418
11536TIP3    H156099   5.803   3.989  14.307 -0.5760 -0.9981 -1.6276
11536TIP3    H256100   5.696   4.022  14.205 -1.2299  1.7735 -0.1444
11537TIP3   OH256101   0.088   4.700   4.847  0.0611 -0.2012 -0.0963
11537TIP3    H156102   0.025   4.657   4.789  0.9803 -1.3203 -0.3023
11537TIP3    H256103   0.108   4.783   4.802 -0.5832 -0.2327 -0.4633
11538TIP3   OH256104   4.264   3.215   0.533  0.0031 -0.2193 -0.5690
11538TIP3    H156105   4.252   3.233   0.440  0.3333  2.6875 -0.1481
11538TIP3    H256106   4.315   3.133   0.535  0.5390 -0.0199 -2.9484
11539TIP3   OH256107   3.235   2.246  13.471 -0.0539  0.1933 -0.1707
11539TIP3    H156108   3.209   2.169  13.520 -0.3429  0.3105 -0.1404
11539TIP3    H256109   3.264   2.213  13.386 -0.3669  0.0715 -0.2288
11540TIP3   OH256110   6.824   3.046  17.072  0.6415 -0.6795 -0.3116
11540TIP3    H156111   6.762   3.051  16.999  0.5929  1.3118 -0.1998
11540TIP3    H256112   6.875   2.967  17.056 -0.8467 -1.4958 -1.2724
11541TIP3   OH256113   5.490   5.902   3.303 -0.1565 -0.2469 -0.1987
11541TIP3    H156114   5.580   5.880   3.281  0.4257 -0.0686  1.7787
11541TIP3    H256115   5.475   5.987   3.262  0.8326  0.0563  0.0515
11542TIP3   OH256116   3.099   1.808  16.311 -0.2200 -0.3550  0.3795
11542TIP3    H156117   3.011   1.826  16.344 -0.2024 -1.9553  1.4172
11542TIP3    H256118   3.098   1.714  16.290  1.0341 -0.2487 -0.2575
11543TIP3   OH256119   5.873   1.239  15.950 -0.1098  0.0443 -0.0488
11543TIP3    H156120   5.863   1.168  16.013 -0.6734 -0.2574 -0.4632
11543TIP3    H256121   5.864   1.196  15.864 -1.1591  0.7122 -0.2949
11544TIP3   OH256122   0.759   1.550   4.216 -0.0522 -0.2931  0.0022
11544TIP3    H156123   0.818   1.483   4.252  0.1790 -0.2399 -0.2774
11544TIP3    H256124   0.672   1.512   4.226 -0.4364  1.2217  4.1146
11545TIP3   OH256125   2.208   4.010   1.820 -0.0922 -0.0876  0.3504
11545TIP3    H156126   2.127   4.049   1.788 -0.0598  0.6242  1.1096
11545TIP3    H256127   2.272   4.080   1.817 -0.0914  0.0242  1.9510
11546TIP3   OH256128   3.272   3.525   0.304  0.1599 -0.4295  0.3055
11546TIP3    H156129   3.253   3.519   0.397 -1.3536 -0.1442  0.0471
11546TIP3    H256130   3.217   3.597   0.273 -0.5056 -1.4747 -1.0649
11547TIP3   OH256131   0.592   4.915  15.192  0.6983 -0.0986 -0.2059
11547TIP3    H156132   0.555   5.000  15.171 -0.0632 -0.4643 -0.3856
11547TIP3    H256133   0.515   4.860  15.210  1.2093 -0.4317  1.1121
11548TIP3   OH256134   2.511   3.072   4.028  0.2905 -0.5825  0.1070
11548TIP3    H156135   2.541   3.036   4.111  0.3026  0.8925  0.7851
11548TIP3    H256136   2.584   3.058   3.968  1.4298  0.7846  1.0937
11549TIP3   OH256137   5.913   6.333  15.150 -0.0258  0.3381 -0.4930
11549TIP3    H156138   5.977   6.380  15.204  0.3400  0.2750 -0.8688
11549TIP3    H256139   5.835   6.387  15.153 -0.1324  0.1537  0.4028
11550TIP3   OH256140   0.901   2.896   1.768 -0.0451  0.3334 -0.3914
11550TIP3    H156141   0.992   2.911   1.794  0.1312  0.3494 -0.9950
11550TIP3    H256142   0.855   2.879   1.850  0.2015  1.8163  0.0803
11551TIP3   OH256143   5.372   4.175   1.577  0.0370 -0.2889  0.1922
11551TIP3    H156144   5.290   4.195   1.533  0.8009 -1.3210 -1.8498
11551TIP3    H256145   5.346   4.132   1.658 -1.4349 -0.1383 -0.1780
11552TIP3   OH256146   1.009   4.923  13.151  0.1365 -0.6947  0.3953
11552TIP3    H156147   1.102   4.945  13.154  0.1988 -0.2673 -2.3172
11552TIP3    H256148   0.969   4.993  13.100 -1.3618 -1.7346  0.0660
11553TIP3   OH256149   0.789   5.215   5.523 -0.6071  0.8423  0.0614
11553TIP3    H156150   0.732   5.268   5.579  0.6471  0.4975  1.7087
11553TIP3    H256151   0.873   5.261   5.523  0.2333 -0.6196  0.7722
11554TIP3   OH256152   1.904   3.290   4.317  0.0052 -0.1678 -0.0724
11554TIP3    H156153   1.928   3.264   4.406  0.1790  0.3039  0.0206
11554TIP3    H256154   1.811   3.308   4.321 -0.4156 -2.0355 -0.4413
11555TIP3   OH256155   1.380   5.637  16.655  0.1538  0.3328 -0.0412
11555TIP3    H156156   1.431   5.561  16.684  0.5939 -0.1689 -1.9876
11555TIP3    H256157   1.433   5.712  16.682  1.2567 -0.1508 -0.7671
11556TIP3   OH256158   4.795   4.455   5.699 -0.2828 -0.4896 -0.2079
11556TIP3    H156159   4.734   4.467   5.771 -1.4559 -1.0533 -1.0824
11556TIP3    H256160   4.740   4.438   5.623  0.9610 -1.1531 -0.9984
11557TIP3   OH256161   1.061   3.266   4.845 -0.1379  0.2766 -0.1242
11557TIP3    H156162   1.068   3.192   4.785 -0.3113  1.1715 -1.2807
11557TIP3    H256163   0.967   3.277   4.858 -0.1839  1.1295 -1.0549
11558TIP3   OH256164   5.934   0.223   0.181 -0.6127 -0.8276 -0.3010
11558TIP3    H156165   5.949   0.132   0.204  0.2953 -0.9882 -1.4099
11558TIP3    H256166   6.014   0.250   0.136 -0.0260  1.1008  1.6736
11559TIP3   OH256167   0.090   6.430  12.647 -0.1043 -0.3524  0.6027
11559TIP3    H156168   0.057   6.519  12.658 -0.3528 -0.5389  1.5245
11559TIP3    H256169   0.082   6.412  12.554 -2.1257 -0.1917  0.7019
11560TIP3   OH256170   3.461   3.418  13.852 -0.6520 -0.2265 -0.2409
11560TIP3    H156171   3.370   3.445  13.851 -0.3747  0.7638  0.1290
11560TIP3    H256172   3.492   3.432  13.763 -0.6463  0.2233 -0.1709
11561TIP3   OH256173   2.661   1.107  12.740  0.4507  0.3112 -0.0120
11561TIP3    H156174   2.742   1.158  12.731  0.2057  0.7845  0.4314
11561TIP3    H256175   2.688   1.030  12.792  1.1173 -0.7310 -1.8095
11562TIP3   OH256176   4.695   5.275   0.512 -0.9281  0.4882 -0.5462
11562TIP3    H156177   4.725   5.245   0.426 -0.6772 -0.0655 -0.2764
11562TIP3    H256178   4.775   5.298   0.559 -1.0771  0.9717 -0.5249
11563TIP3   OH256179   3.674   2.324   5.510  0.1947 -0.3890  0.0113
11563TIP3    H156180   3.649   2.294   5.598 -1.7545  0.9691 -0.0134
11563TIP3    H256181   3.595   2.311   5.457  0.6295  0.8718 -0.9880
11564TIP3   OH256182   2.428   1.730  13.657  0.1778 -0.0353  0.6538
11564TIP3    H156183   2.359   1.705  13.596 -0.2097  1.7824  0.2954
11564TIP3    H256184   2.506   1.687  13.623 -0.3358 -0.2688 -0.2696
11565TIP3   OH256185   1.461   0.578   1.291 -0.1379 -0.7435 -0.2792
11565TIP3    H156186   1.481   0.525   1.368  1.1666 -0.2220 -0.2245
11565TIP3    H256187   1.367   0.568   1.278 -0.9025  1.0999  2.8826
11566TIP3   OH256188   3.493   5.542  15.177  0.2658  0.1835  0.1337
11566TIP3    H156189   3.422   5.543  15.113  0.8140 -1.4895 -0.5671
11566TIP3    H256190   3.485   5.457  15.221  1.8031 -0.0534  0.0365
11567TIP3   OH256191   4.383   0.707  16.861 -0.0544 -0.7068 -0.4626
11567TIP3    H156192   4.450   0.665  16.915  1.2105 -0.0205 -1.4559
11567TIP3    H256193   4.429   0.733  16.781 -1.3869  0.2624 -0.9486
11568TIP3   OH256194   3.644   6.076   2.409 -0.4383  0.3137  0.5196
11568TIP3    H156195   3.699   6.130   2.352  1.4292  0.5975  2.4367
11568TIP3    H256196   3.628   6.131   2.485 -0.7881 -0.8755  1.3314
11569TIP3   OH256197   1.697   3.735  11.755  0.2834 -0.1688  0.1841
11569TIP3    H156198   1.645   3.815  11.759 -1.2593 -1.1267  0.1482
11569TIP3    H256199   1.728   3.722  11.845  0.0010  0.1265  0.3273
11570TIP3   OH256200   3.057   0.137  12.770  0.4042 -0.1436  0.7609
11570TIP3    H156201   3.032   0.136  12.862  1.7685 -2.2035  1.1900
11570TIP3    H256202   3.144   0.096  12.768  0.2549 -0.4975 -1.4754
11571TIP3   OH256203   2.177   4.979  11.731 -0.4249  0.2310 -0.2063
11571TIP3    H156204   2.266   4.948  11.748 -0.8996 -0.3341  1.4654
11571TIP3    H256205   2.187   5.072  11.711  0.7095 -0.2380 -2.1285
11572TIP3   OH256206   0.235   0.895   1.472  0.2557 -0.2956  0.1282
11572TIP3    H156207   0.264   0.810   1.437 -0.0358 -1.0480  1.6202
11572TIP3    H256208   0.141   0.884   1.488  0.3913 -0.0122  1.1893
11573TIP3   OH256209   6.179   3.241  15.681 -0.4460  0.4677  0.5537
11573TIP3    H156210   6.236   3.259  15.756 -1.6779  0.1851  1.5845
11573TIP3    H256211   6.115   3.311  15.683  0.3582  1.3074 -1.1524
11574TIP3   OH256212   6.472   0.550   0.438 -0.0957 -0.5566  0.3030
11574TIP3    H156213   6.454   0.469   0.486 -0.0712 -1.0783 -0.5419
11574TIP3    H256214   6.417   0.544   0.360 -0.7806  0.6702  0.6655
11575TIP3   OH256215   6.404   2.882  14.065 -0.0491  0.4664  0.1858
11575TIP3    H156216   6.481   2.861  14.118 -0.2143  1.0060  0.6514
11575TIP3    H256217   6.353   2.942  14.120 -1.6130 -1.1434  0.5560
11576TIP3   OH256218   2.270   6.537  12.499  0.2813  0.2792  0.4646
11576TIP3    H156219   2.210   6.607  12.526 -0.1634  0.2946 -0.5205
11576TIP3    H256220   2.248   6.463  12.555 -1.1287  0.0697 -0.3306
11577TIP3   OH256221   1.341   3.924   4.214  0.0844 -0.6658  0.0660
11577TIP3    H156222   1.290   3.920   4.295 -0.5614  0.6161 -0.2498
11577TIP3    H256223   1.413   3.863   4.229  1.5759  1.5323  2.7501
11578TIP3   OH256224   5.780   0.858   6.275  0.0118  0.1695 -0.1419
11578TIP3    H156225   5.834   0.936   6.276  1.9563 -1.1212  0.2951
11578TIP3    H256226   5.767   0.838   6.182 -1.7266  1.7603 -0.2940
11579TIP3   OH256227   2.585   4.673  15.401  0.2410 -0.2366  0.0130
11579TIP3    H156228   2.657   4.731  15.425 -0.3116  0.9461 -1.0218
11579TIP3    H256229   2.619   4.585  15.412  1.2034  0.2863  1.3891
11580TIP3   OH256230   1.852   0.299  11.021 -0.3004 -0.2689  0.5886
11580TIP3    H156231   1.855   0.266  11.110  0.1943 -0.0357  0.6600
11580TIP3    H256232   1.872   0.223  10.966  0.9188 -0.0931  0.7548
11581TIP3   OH256233   3.447   1.779  10.869  0.0830  0.0455 -0.0527
11581TIP3    H156234   3.424   1.693  10.836 -1.1015 -0.8411  2.7706
11581TIP3    H256235   3.542   1.774  10.886  0.5386  0.2442 -2.2579
11582TIP3   OH256236   5.749   4.004  14.558 -0.3745 -0.1651  0.3971
11582TIP3    H156237   5.686   4.075  14.574 -1.8853 -1.2600 -0.3653
11582TIP3    H256238   5.708   3.952  14.489  1.3198 -1.0420  0.0099
11583TIP3   OH256239   1.233   1.868  13.475  1.1756 -0.1637  0.0911
11583TIP3    H156240   1.265   1.953  13.507  0.3802 -0.4277  1.6991
11583TIP3    H256241   1.206   1.885  13.385 -0.5694  1.7703  0.8866
11584TIP3   OH256242   2.722   4.301   1.516  0.2658 -0.2990  0.0043
11584TIP3    H156243   2.809   4.277   1.549 -0.1610 -2.2026 -0.1394
11584TIP3    H256244   2.663   4.284   1.589 -0.2301 -1.1093 -0.5605
11585TIP3   OH256245   4.049   5.370   1.974 -0.1089 -1.0902 -0.0997
11585TIP3    H156246   4.127   5.423   1.964 -0.2164 -1.1021 -1.0952
11585TIP3    H256247   4.051   5.309   1.900 -1.2197 -0.8724 -0.3320
11586TIP3   OH256248   1.867   1.803  15.062 -0.0234  0.0909  0.2752
11586TIP3    H156249   1.858   1.891  15.025  0.1591 -0.3573 -0.8964
11586TIP3    H256250   1.930   1.814  15.133 -0.6280  1.0484  0.6914
11587TIP3   OH256251   3.590   4.075  16.632  0.1585  0.6440 -0.3170
11587TIP3    H156252   3.611   4.026  16.711  0.7155  0.3907 -0.6142
11587TIP3    H256253   3.539   4.150  16.663 -1.0220 -0.2992  0.1023
11588TIP3   OH256254   0.683   2.510   3.068  0.0944  0.0377  0.5123
11588TIP3    H156255   0.736   2.431   3.077  0.4569  0.1058 -0.7371
11588TIP3    H256256   0.616   2.502   3.135 -0.4114 -1.7761 -0.1572
11589TIP3   OH256257   0.653   6.146   3.971  0.2536  0.0327  0.1707
11589TIP3    H156258   0.739   6.142   3.929 -0.3085 -1.3955 -0.9341
11589TIP3    H256259   0.642   6.060   4.011 -1.2487 -0.3212 -0.9440
11590TIP3   OH256260   2.192   5.977   3.359 -0.4746 -0.4012  0.2876
11590TIP3    H156261   2.206   5.927   3.278 -1.6103  0.5983 -0.5644
11590TIP3    H256262   2.213   6.067   3.335 -1.7187  0.0498  0.8327
11591TIP3   OH256263   3.313   2.203  11.560 -0.3578  0.0038  0.2700
11591TIP3    H156264   3.358   2.219  11.477  2.0332  0.1066  1.4822
11591TIP3    H256265   3.384   2.185  11.622 -2.1089 -0.9201  2.1170
11592TIP3   OH256266   6.421   1.185  13.269 -0.4968  0.6735 -0.3200
11592TIP3    H156267   6.499   1.175  13.324 -0.5262  0.2030 -0.3638
11592TIP3    H256268   6.351   1.206  13.331 -0.7116 -0.7105 -0.0647
11593TIP3   OH256269   6.041   6.226   2.253 -0.4322  0.6361 -0.0502
11593TIP3    H156270   5.949   6.230   2.225 -0.6301  0.9042  0.6242
11593TIP3    H256271   6.089   6.268   2.182 -0.9885  1.8674  0.2731
11594TIP3   OH256272   4.599   0.207  11.147  0.1218 -0.0791 -0.0322
11594TIP3    H156273   4.618   0.126  11.196 -0.7589 -0.3991 -0.1957
11594TIP3    H256274   4.552   0.262  11.210 -0.2566 -0.1498 -0.2447
11595TIP3   OH256275   6.186   1.944   5.350  1.0848  0.0797 -0.2787
11595TIP3    H156276   6.097   1.977   5.359  0.2203 -2.1909  0.2511
11595TIP3    H256277   6.175   1.849   5.336  3.4312 -0.3577  0.3916
11596TIP3   OH256278   1.879   4.366  15.012  0.2971  0.2310 -0.1954
11596TIP3    H156279   1.833   4.448  14.997 -0.3048  0.1023  0.8253
11596TIP3    H256280   1.902   4.334  14.925  0.8908  1.6652 -0.5816
11597TIP3   OH256281   5.272   1.805  13.267  0.7111 -0.0798  0.2525
11597TIP3    H156282   5.225   1.811  13.184  0.2998  0.3256  0.5105
11597TIP3    H256283   5.328   1.883  13.269  1.6272 -0.7159 -0.1911
11598TIP3   OH256284   3.329   4.205   1.025  0.2739 -0.1330 -0.1090
11598TIP3    H156285   3.423   4.204   1.043  0.1639 -1.9131  0.5072
11598TIP3    H256286   3.292   4.260   1.094  0.9698  1.9770 -1.2969
11599TIP3   OH256287   6.121   2.901   5.926 -0.3452  0.1547 -0.0492
11599TIP3    H156288   6.131   2.928   6.018 -0.3404  0.4483 -0.1357
11599TIP3    H256289   6.153   2.810   5.924  0.0357  0.2840  0.1576
11600TIP3   OH256290   1.009   2.562  16.360  0.3769 -0.0719 -0.1122
11600TIP3    H156291   1.049   2.645  16.336  0.4967 -0.4730 -1.4301
11600TIP3    H256292   0.926   2.585  16.401  0.2652  0.6929 -0.7564
11601TIP3   OH256293   0.429   4.116  11.030  0.2078  0.4055 -0.1435
11601TIP3    H156294   0.386   4.031  11.043  0.0402  0.1011 -2.3413
11601TIP3    H256295   0.448   4.119  10.936  2.8225  1.5791  0.3326
11602TIP3   OH256296   0.006   1.698   5.250  0.0896  0.2831 -0.2676
11602TIP3    H156297   0.096   1.728   5.234  0.4560 -0.9563 -0.5780
11602TIP3    H256298  -0.008   1.713   5.343  0.5854  0.5606 -0.2337
11603TIP3   OH256299   2.162   1.219  15.452  0.1570 -0.5284  0.5084
11603TIP3    H156300   2.234   1.249  15.397  0.7443  1.0208  2.0424
11603TIP3    H256301   2.090   1.202  15.391  1.6145 -1.5899 -0.9998
11604TIP3   OH256302   3.526   0.454   5.690  0.3482 -0.0035 -0.5485
11604TIP3    H156303   3.500   0.545   5.699  0.3236 -0.1358  1.1232
11604TIP3    H256304   3.588   0.453   5.617  0.1640  1.2960 -0.7429
11605TIP3   OH256305   6.195   6.104  16.728  0.3842  0.1324  1.0404
11605TIP3    H156306   6.112   6.061  16.709 -0.0612  1.7216 -0.8069
11605TIP3    H256307   6.173   6.197  16.738  2.0199  0.7201 -0.3586
11606TIP3   OH256308   6.675   2.955  15.571 -0.0157  0.6258 -0.1999
11606TIP3    H156309   6.771   2.957  15.566  0.2957 -1.2375  2.4817
11606TIP3    H256310   6.649   2.889  15.507  0.7701 -0.6078  0.6968
11607TIP3   OH256311   2.282   3.005   5.807 -0.0409 -0.7529 -0.1588
11607TIP3    H156312   2.204   3.002   5.752  0.8751 -3.1081 -1.4560
11607TIP3    H256313   2.350   3.041   5.751  0.0732  0.2963  0.6297
11608TIP3   OH256314   1.380   4.768   0.000 -0.3076 -0.3118  0.9457
11608TIP3    H156315   1.351   4.796   0.087 -1.8925 -0.4787  0.5066
11608TIP3    H256316   1.350   4.677  -0.007  3.8937 -1.9974  1.9704
11609TIP3   OH256317   1.640   0.386  11.966 -0.0815  0.4220  0.5383
11609TIP3    H156318   1.703   0.456  11.948  0.7510 -0.1142  1.3306
11609TIP3    H256319   1.672   0.344  12.045 -1.4305  0.1170  0.9503
11610TIP3   OH256320   1.068   4.696   1.454 -0.1851 -0.1257  0.3660
11610TIP3    H156321   1.061   4.750   1.374 -1.0417 -1.2166 -0.3253
11610TIP3    H256322   1.029   4.751   1.523 -0.5486  0.3651 -0.2149
11611TIP3   OH256323   3.119   0.109   1.983  0.1230 -0.6436  0.2501
11611TIP3    H156324   3.135   0.125   1.890 -0.6265 -0.8806  0.0775
11611TIP3    H256325   3.080   0.022   1.987  1.7253 -1.3760  0.9500
11612TIP3   OH256326   5.951   5.743   0.376 -0.2430  0.7249 -0.4715
11612TIP3    H156327   5.994   5.809   0.322 -0.9522  1.4035 -0.2409
11612TIP3    H256328   5.929   5.672   0.316  1.2466  0.3206 -0.5698
11613TIP3   OH256329   4.015   0.950  16.284 -0.0428 -0.4843  0.7076
11613TIP3    H156330   3.987   1.041  16.275  1.7035 -0.0386 -0.7767
11613TIP3    H256331   4.003   0.930  16.377  1.2631  1.8912  1.4797
11614TIP3   OH256332   2.284   5.603   5.959 -0.8037 -0.2286  0.1099
11614TIP3    H156333   2.220   5.532   5.964 -1.3807  0.0059 -2.5956
11614TIP3    H256334   2.295   5.619   5.865  1.8995  0.9664  0.5363
11615TIP3   OH256335   5.464   1.254  13.659  0.5280  0.8000 -0.0505
11615TIP3    H156336   5.509   1.176  13.691 -1.8765 -0.1358  1.2366
11615TIP3    H256337   5.438   1.231  13.570 -0.6328 -0.1063  0.5040
11616TIP3   OH256338   6.264   4.890  14.211 -0.2844 -1.2316 -0.2021
11616TIP3    H156339   6.218   4.973  14.211 -1.2785 -1.7727 -0.0671
11616TIP3    H256340   6.195   4.824  14.208  0.5036 -2.0454 -1.0737
11617TIP3   OH256341   5.851   4.920  13.312 -0.0505 -0.2396  0.1265
11617TIP3    H156342   5.766   4.889  13.281  0.3326 -1.4523  0.2566
11617TIP3    H256343   5.915   4.859  13.275  0.8984  1.3084 -0.9083
11618TIP3   OH256344   3.150   2.397  10.334  0.3197 -0.2596 -0.3096
11618TIP3    H156345   3.214   2.466  10.316  0.2819 -0.4369 -1.2026
11618TIP3    H256346   3.173   2.327  10.273 -0.0120 -0.7913  0.1747
11619TIP3   OH256347   6.802   5.182   4.706 -0.1772 -0.1769 -0.2619
11619TIP3    H156348   6.767   5.205   4.621 -1.6464 -1.6851 -0.1190
11619TIP3    H256349   6.836   5.264   4.742 -0.5238  0.6780 -1.8213
11620TIP3   OH256350   6.768   3.239  15.513 -0.0822  0.0918  0.2863
11620TIP3    H156351   6.765   3.217  15.606  1.5497 -0.6358  0.1927
11620TIP3    H256352   6.810   3.164  15.471  1.1116  1.2650 -0.7297
11621TIP3   OH256353   2.338   5.060  14.146 -0.4010 -0.3321 -0.6817
11621TIP3    H156354   2.412   5.085  14.202 -0.6886  0.3968 -0.6218
11621TIP3    H256355   2.284   5.138  14.141  0.1371 -0.0336 -2.8086
11622TIP3   OH256356   6.797   4.607   5.570  0.0688  0.4913 -0.3118
11622TIP3    H156357   6.758   4.673   5.628 -2.0603 -1.0580  0.1467
11622TIP3    H256358   6.726   4.585   5.509  1.5197  0.3663 -2.0243
11623TIP3   OH256359   2.869   1.855   2.436 -0.2043 -0.1143  0.1745
11623TIP3    H156360   2.901   1.931   2.485 -0.8049 -0.2398  0.7845
11623TIP3    H256361   2.941   1.832   2.377  0.4587  0.1726  0.8551
11624TIP3   OH256362   6.578   2.799   5.464 -0.2657  0.3000  0.5283
11624TIP3    H156363   6.623   2.874   5.503 -1.8514  1.0462  1.0372
11624TIP3    H256364   6.554   2.744   5.539 -0.2953 -0.0179  0.2871
11625TIP3   OH256365   2.638   1.513   2.005 -0.5951 -0.1855 -0.1285
11625TIP3    H156366   2.600   1.520   2.093 -1.0798  1.6055 -0.4259
11625TIP3    H256367   2.570   1.550   1.948  1.7648  4.0687 -0.5946
11626TIP3   OH256368   5.845   4.556  12.473 -0.0576  0.2759 -0.0231
11626TIP3    H156369   5.837   4.649  12.493  1.3871  0.2928  0.5324
11626TIP3    H256370   5.784   4.542  12.400 -1.3744  1.3314  0.8344
11627TIP3   OH256371   6.361   6.365  13.589  0.3299  0.3909  0.4060
11627TIP3    H156372   6.290   6.417  13.553  1.8829  2.1139 -0.3574
11627TIP3    H256373   6.419   6.429  13.630  3.0347 -0.4413 -1.7833
11628TIP3   OH256374   6.378   0.761   2.056 -0.4964 -0.6577  0.2233
11628TIP3    H156375   6.411   0.767   1.966 -3.2563 -1.1722 -0.9216
11628TIP3    H256376   6.379   0.667   2.076 -0.6432 -0.6141  0.4386
11629TIP3   OH256377   2.237   0.368   1.022  0.2857 -0.3417 -0.8395
11629TIP3    H156378   2.193   0.317   0.954 -0.6661 -1.8220  0.7864
11629TIP3    H256379   2.189   0.346   1.102  1.3178  1.3874  0.3075
11630TIP3   OH256380   0.028   1.832   3.996 -0.1505  0.3203 -0.4006
11630TIP3    H156381   0.096   1.892   4.026 -0.0690 -0.4137  0.9573
11630TIP3    H256382   0.065   1.790   3.918  1.8132 -1.4593  1.3548
11631TIP3   OH256383   3.253   5.646  12.483 -0.3925  0.5515  0.1823
11631TIP3    H156384   3.176   5.652  12.541 -1.8332  0.0430 -1.5810
11631TIP3    H256385   3.279   5.555  12.487  2.5611  1.3314  3.6247
11632TIP3   OH256386   2.177   2.646  15.888  0.1582  0.0294  0.6874
11632TIP3    H156387   2.120   2.634  15.812  0.0925  3.1778  0.0792
11632TIP3    H256388   2.117   2.647  15.962 -0.4671  1.8345  0.2051
11633TIP3   OH256389   5.315   6.630   4.541 -0.4620  0.2102  0.2482
11633TIP3    H156390   5.315   6.678   4.624 -1.2546 -0.3627  0.5908
11633TIP3    H256391   5.401   6.587   4.539 -0.4226  0.2561  0.7644
11634TIP3   OH256392   4.311   5.960  13.189 -0.4560 -0.0199 -0.6048
11634TIP3    H156393   4.288   5.982  13.279 -0.3753  0.6205 -0.7325
11634TIP3    H256394   4.401   5.992  13.178  1.4900 -4.4416  0.5557
11635TIP3   OH256395   0.410   1.019  13.598  1.0161 -0.1874  0.2423
11635TIP3    H156396   0.348   1.090  13.585  0.7719  0.2235  3.1331
11635TIP3    H256397   0.480   1.057  13.651  1.5898 -1.7246  0.6467
11636TIP3   OH256398   4.650   2.915  16.167 -0.6314 -0.0117 -0.1456
11636TIP3    H156399   4.707   2.844  16.138  1.6109  0.7520  2.0978
11636TIP3    H256400   4.574   2.871  16.206  1.0611 -1.2821  1.8943
11637TIP3   OH256401   4.729   4.744   4.662  0.0037 -0.2569 -0.1085
11637TIP3    H156402   4.714   4.660   4.706 -1.2831  1.3867  2.8854
11637TIP3    H256403   4.676   4.739   4.583 -3.0681 -0.9860  1.8351
11638TIP3   OH256404   4.751   0.972  14.663 -0.4749  0.0267  0.0420
11638TIP3    H156405   4.684   0.934  14.607 -0.9554  0.1071  0.5595
11638TIP3    H256406   4.772   0.902  14.725  0.3021 -0.1827 -0.4324
11639TIP3   OH256407   1.110   5.812   4.318  0.1985 -0.0337  0.6367
11639TIP3    H156408   1.098   5.744   4.253  0.7717 -0.8569  1.3651
11639TIP3    H256409   1.037   5.800   4.379  1.7495 -1.8126  2.2823
11640TIP3   OH256410   1.786   1.434  14.131  0.0947  0.6263 -0.0506
11640TIP3    H156411   1.816   1.490  14.059 -1.0582 -0.3051 -1.3042
11640TIP3    H256412   1.820   1.348  14.111 -0.5651  0.2696  0.3111
11641TIP3   OH256413   4.381   2.387  14.701 -0.4021 -0.1043 -0.2268
11641TIP3    H156414   4.354   2.416  14.788 -1.0475  2.6189 -1.2326
11641TIP3    H256415   4.474   2.407  14.696 -0.4440  0.0870 -0.2668
11642TIP3   OH256416   5.606   5.688  16.162 -0.2873  0.5922  0.1834
11642TIP3    H156417   5.655   5.701  16.081 -1.7118  0.2996 -0.7646
11642TIP3    H256418   5.668   5.708  16.231  0.7440  1.5988 -0.9903
11643TIP3   OH256419   3.444   1.621  11.235 -0.0964 -0.7739 -0.0507
11643TIP3    H156420   3.490   1.543  11.205 -1.3774 -1.6806  0.2488
11643TIP3    H256421   3.416   1.600  11.324  0.3710  0.4203  0.4081
11644TIP3   OH256422   1.025   2.504  15.774 -0.0332 -0.1055  0.0687
11644TIP3    H156423   1.039   2.598  15.783 -0.5451 -0.0468  0.2981
11644TIP3    H256424   0.936   2.490  15.807 -0.1831 -0.5810 -0.5271
11645TIP3   OH256425   0.677   3.101   0.304 -0.4051  0.2819 -0.2214
11645TIP3    H156426   0.734   3.054   0.365 -2.0779 -0.3838  0.9035
11645TIP3    H256427   0.595   3.112   0.352 -0.8886  2.1602 -1.3898
11646TIP3   OH256428   2.148   5.244  13.839  0.5966 -0.3807 -0.2613
11646TIP3    H156429   2.109   5.186  13.774  1.3082  0.0749 -1.1140
11646TIP3    H256430   2.218   5.290  13.792 -0.0807  1.3228  0.3196
11647TIP3   OH256431   4.546   4.287   4.266  0.0596 -0.4942 -0.1457
11647TIP3    H156432   4.634   4.326   4.270 -0.8244  1.5368  1.7401
11647TIP3    H256433   4.557   4.199   4.301  1.6660 -1.0507 -1.8781
11648TIP3   OH256434   1.101   6.128  15.885 -0.2009 -0.2506 -0.4451
11648TIP3    H156435   1.115   6.127  15.980  1.4596 -0.7581 -0.6577
11648TIP3    H256436   1.007   6.113  15.874 -0.6029  0.8299  1.1307
11649TIP3   OH256437   4.157   0.279   4.599  0.8503  0.2802  0.2639
11649TIP3    H156438   4.113   0.351   4.644  1.4531 -0.8577  2.8094
11649TIP3    H256439   4.169   0.212   4.666  2.7280 -1.1148 -1.3628
11650TIP3   OH256440   1.665   3.497  17.093  0.2008 -0.6022 -0.4232
11650TIP3    H156441   1.654   3.514  17.187  0.4396 -0.1173 -0.4799
11650TIP3    H256442   1.619   3.414  17.078 -0.9752 -0.0224 -0.1289
11651TIP3   OH256443   2.131   2.512  12.515 -0.8198  0.0839  0.2535
11651TIP3    H156444   2.044   2.548  12.497 -1.1787 -1.4648 -1.4500
11651TIP3    H256445   2.167   2.492  12.429  1.0203  0.1655  0.9613
11652TIP3   OH256446   4.781   6.293   6.458  0.5816 -0.5547  0.1299
11652TIP3    H156447   4.826   6.211   6.440  2.0142  0.3699 -0.7876
11652TIP3    H256448   4.843   6.343   6.512 -0.3074 -0.1119  0.7674
11653TIP3   OH256449   6.263   0.779   1.329  0.8272 -0.4982  0.1618
11653TIP3    H156450   6.320   0.842   1.285 -0.5839  1.3444  0.8665
11653TIP3    H256451   6.207   0.745   1.259  0.6878  0.0598 -0.0023
11654TIP3   OH256452   2.230   4.882  12.602 -0.6005 -0.0735  0.2185
11654TIP3    H156453   2.319   4.891  12.567 -0.6197 -0.8852 -0.0489
11654TIP3    H256454   2.212   4.967  12.643 -0.4264  0.7659 -1.3677
11655TIP3   OH256455   4.728   6.332  17.121 -0.0814  0.3628 -0.7318
11655TIP3    H156456   4.796   6.399  17.110 -1.3592  1.6931 -0.8500
11655TIP3    H256457   4.735   6.278  17.042  1.4539 -0.1561 -0.2886
11656TIP3   OH256458   2.270   1.090  15.829  0.2997  0.0687 -0.2143
11656TIP3    H156459   2.231   1.079  15.915  2.3064 -1.0557  0.6185
11656TIP3    H256460   2.200   1.127  15.775 -1.0435  0.6528  1.8365
11657TIP3   OH256461   1.282   6.239   5.107  0.1878  0.1079 -0.2111
11657TIP3    H156462   1.320   6.184   5.040 -0.5864 -2.3415  1.2455
11657TIP3    H256463   1.341   6.229   5.182 -0.7928  0.0036  0.5631
11658TIP3   OH256464   2.320   5.610  16.371  0.1816 -0.9560 -0.9609
11658TIP3    H156465   2.226   5.607  16.392  0.1748 -0.0408 -0.8301
11658TIP3    H256466   2.328   5.680  16.307  0.9516 -0.1368 -0.0054
11659TIP3   OH256467   4.490   3.043   1.739 -0.4499  0.2715  0.0750
11659TIP3    H156468   4.452   2.969   1.785  0.0079  0.2440  0.4238
11659TIP3    H256469   4.502   3.110   1.806  1.2664 -0.1646  0.2684
11660TIP3   OH256470   4.834   6.326   0.874  0.2860 -0.4440  0.0581
11660TIP3    H156471   4.764   6.371   0.922 -0.5243 -1.0265 -0.5411
11660TIP3    H256472   4.893   6.293   0.942  0.1874  0.3834  0.5552
11661TIP3   OH256473   5.968   5.973  10.979  0.5959  0.5700 -0.6630
11661TIP3    H156474   5.958   5.911  11.051 -0.0522  1.9484  0.4872
11661TIP3    H256475   6.062   5.993  10.978  0.5066  1.1520  0.3769
11662TIP3   OH256476   4.057   5.168   3.381  1.0562 -0.0518  0.2128
11662TIP3    H156477   3.961   5.171   3.377  1.0536  1.4779  0.9734
11662TIP3    H256478   4.079   5.086   3.336 -0.8005 -2.4640  3.2848
11663TIP3   OH256479   0.228   3.008   0.558 -0.5804 -0.8845 -0.0092
11663TIP3    H156480   0.150   2.999   0.503 -1.2393  1.0511  0.5722
11663TIP3    H256481   0.211   3.083   0.614  1.2576 -1.0885  0.9078
11664TIP3   OH256482   3.481   6.560  10.463 -0.2771 -0.2785 -0.2939
11664TIP3    H156483   3.523   6.496  10.405  0.3132 -1.0418  0.9257
11664TIP3    H256484   3.513   6.537  10.551 -2.7951 -0.5161  0.6276
11665TIP3   OH256485   1.310   2.882  15.409 -0.4378 -0.0908 -0.0262
11665TIP3    H156486   1.322   2.835  15.491 -0.1942 -1.0748 -0.6121
11665TIP3    H256487   1.383   2.944  15.406 -0.9190  0.5425  0.8812
11666TIP3   OH256488   6.292   5.182   4.987  0.4150  0.0610 -0.2597
11666TIP3    H156489   6.319   5.230   5.065 -1.3919  0.1574  0.3593
11666TIP3    H256490   6.290   5.091   5.014  0.7797 -0.0174 -0.4963
11667TIP3   OH256491   0.804   4.525  12.424  0.5359 -0.8109 -0.0415
11667TIP3    H156492   0.856   4.605  12.427  0.1344 -0.4324 -1.7713
11667TIP3    H256493   0.868   4.455  12.429  1.2644 -0.3527 -1.9731
11668TIP3   OH256494   4.997   6.213  12.039  0.3831  0.3857 -0.0336
11668TIP3    H156495   4.939   6.197  12.113 -0.2942  2.2066 -0.1111
11668TIP3    H256496   5.075   6.253  12.078 -0.4696  2.4886 -0.3443
11669TIP3   OH256497   4.336   5.656  16.796  0.6092 -0.1832 -0.0120
11669TIP3    H156498   4.289   5.633  16.876 -0.0732 -2.5014 -0.9971
11669TIP3    H256499   4.334   5.752  16.794  2.6081  0.1079  3.8109
11670TIP3   OH256500   2.348   2.616  12.727 -0.6809 -0.0532 -0.3620
11670TIP3    H156501   2.301   2.594  12.646 -1.0714 -0.2074 -0.0945
11670TIP3    H256502   2.327   2.545  12.787  1.1650 -1.0000 -0.7357
11671TIP3   OH256503   0.120   1.070  12.639 -0.1960  0.3250  0.4992
11671TIP3    H156504   0.149   1.053  12.728  0.3477  0.2414  0.3077
11671TIP3    H256505   0.129   1.164  12.628  0.6459  0.2179  0.2210
11672TIP3   OH256506   5.085   4.317  14.418 -0.1266  0.0139  0.3976
11672TIP3    H156507   5.059   4.225  14.431 -0.7409  0.1960  0.5099
11672TIP3    H256508   5.131   4.317  14.334  1.0592 -0.6227  1.0227
11673TIP3   OH256509   1.759   5.326  12.790 -0.0018  0.3080 -0.3078
11673TIP3    H156510   1.852   5.328  12.765  0.7725 -0.9797  2.1556
11673TIP3    H256511   1.717   5.388  12.730  2.3994  0.7846 -1.6282
11674TIP3   OH256512   6.216   5.665  16.226 -0.6171 -0.1088 -0.4569
11674TIP3    H156513   6.168   5.608  16.167 -0.9527  1.2448 -1.5572
11674TIP3    H256514   6.198   5.631  16.314 -0.4172 -1.9347 -1.0881
11675TIP3   OH256515   2.432   0.120   5.170 -0.1473  0.4103 -0.7595
11675TIP3    H156516   2.470   0.073   5.097  1.0854 -0.6212  0.4940
11675TIP3    H256517   2.371   0.058   5.211 -1.3363  1.1989 -1.2617
11676TIP3   OH256518   5.721   5.395   5.735  0.4932  0.4841  0.3153
11676TIP3    H156519   5.709   5.429   5.824  0.2346  1.0329  0.0721
11676TIP3    H256520   5.674   5.456   5.679  2.2457  1.2354 -0.4076
11677TIP3   OH256521   0.867   6.617   3.657 -0.5604 -0.0633  0.3743
11677TIP3    H156522   0.938   6.563   3.621  0.5760  1.6188 -0.0306
11677TIP3    H256523   0.803   6.623   3.586 -0.2297 -0.0700  0.0724
11678TIP3   OH256524   0.497   3.641  11.991  0.1803  0.4264 -0.1773
11678TIP3    H156525   0.570   3.589  11.956  0.0022  0.5688 -0.7716
11678TIP3    H256526   0.445   3.663  11.914 -0.7980 -0.1340  0.3066
11679TIP3   OH256527   1.438   3.162   0.066 -0.1050 -0.7476  0.0170
11679TIP3    H156528   1.343   3.151   0.073  0.0333 -1.8538  0.3406
11679TIP3    H256529   1.457   3.241   0.117 -0.9908  0.2386 -1.1141
11680TIP3   OH256530   6.626   5.834   4.268 -0.0548  0.2864  0.3659
11680TIP3    H156531   6.646   5.781   4.190  0.6630  1.5167 -0.3235
11680TIP3    H256532   6.706   5.828   4.321  0.2014  1.0250  0.0711
11681TIP3   OH256533   5.630   5.825  16.929 -0.5097  0.2819  0.5389
11681TIP3    H156534   5.641   5.731  16.913  0.1759  0.5528 -0.7331
11681TIP3    H256535   5.555   5.850  16.875  0.3288  0.7506 -0.4620
11682TIP3   OH256536   2.553   2.987   5.350  0.0608 -0.6278 -0.5838
11682TIP3    H156537   2.470   3.031   5.368  1.2782  1.5048  0.1737
11682TIP3    H256538   2.596   2.980   5.435  0.6869 -1.7111 -0.9625
11683TIP3   OH256539   3.531   5.438   1.090 -0.1914  0.1888 -0.1246
11683TIP3    H156540   3.612   5.395   1.063 -0.1036  1.5266 -2.2322
11683TIP3    H256541   3.465   5.369   1.089  0.1209 -0.1627 -2.5305
11684TIP3   OH256542   3.225   6.423   6.204 -0.3338  0.3847 -0.0583
11684TIP3    H156543   3.133   6.439   6.228  0.0288  0.0141  1.7496
11684TIP3    H256544   3.230   6.328   6.193 -1.1073  0.6438 -4.7117
11685TIP3   OH256545   3.805   6.646  14.009 -0.1763 -0.2705 -0.1412
11685TIP3    H156546   3.813   6.718  14.071 -3.8018  0.0533  0.1392
11685TIP3    H256547   3.764   6.685  13.932 -0.0942 -1.6092 -0.8887
11686TIP3   OH256548   0.202   4.140  12.337  0.1899  0.5752  0.0831
11686TIP3    H156549   0.158   4.101  12.413  0.0825 -0.8260 -0.6642
11686TIP3    H256550   0.175   4.232  12.339  0.3006  0.6179  1.8105
11687TIP3   OH256551   0.995   6.428  12.280 -0.0966 -0.4604  0.1019
11687TIP3    H156552   0.988   6.513  12.236 -0.3026  0.6737  2.2295
11687TIP3    H256553   1.032   6.448  12.366  2.3016 -2.8618 -0.2522
11688TIP3   OH256554   5.041   3.465  13.350  0.0876  0.2638 -0.2045
11688TIP3    H156555   5.112   3.459  13.414 -0.9458 -2.0065  0.8215
11688TIP3    H256556   5.056   3.393  13.290 -1.3278 -0.2846  0.0550
11689TIP3   OH256557   2.349   3.026  11.056 -0.2204 -0.1808  0.3215
11689TIP3    H156558   2.313   3.075  11.130 -0.8257  0.3589 -0.3153
11689TIP3    H256559   2.443   3.046  11.058 -0.3143  0.2640  0.6219
11690TIP3   OH256560   2.405   5.990  12.140  0.1053 -0.5671 -0.0783
11690TIP3    H156561   2.448   6.051  12.081 -1.5141 -1.0124 -1.8029
11690TIP3    H256562   2.450   6.003  12.224  0.8900  1.7863 -0.7743
11691TIP3   OH256563   4.127   5.914  11.640  0.4805 -0.0693  0.5670
11691TIP3    H156564   4.181   5.948  11.569  0.0563  1.3475  0.8932
11691TIP3    H256565   4.064   5.856  11.597  1.0681 -0.2751 -0.0383
11692TIP3   OH256566   4.500   1.922  12.935 -0.2058 -0.2642 -0.0210
11692TIP3    H156567   4.422   1.926  12.879  0.2157 -1.2209 -0.7030
11692TIP3    H256568   4.474   1.867  13.009  0.0163 -1.1501 -0.5908
11693TIP3   OH256569   1.480   6.402  15.342 -0.2012  0.1089 -0.3504
11693TIP3    H156570   1.523   6.398  15.256 -0.7867 -2.1418 -0.6197
11693TIP3    H256571   1.542   6.448  15.397  1.2958 -0.5199 -1.4271
11694TIP3   OH256572   4.213   5.583  14.149  0.1166 -0.6660  0.4273
11694TIP3    H156573   4.167   5.599  14.231  1.0548 -2.3436  1.3309
11694TIP3    H256574   4.289   5.641  14.152  1.1956 -2.0726  1.6921
11695TIP3   OH256575   3.445   1.748   4.309  0.2011 -0.2850 -0.0393
11695TIP3    H156576   3.350   1.743   4.297  0.4382 -1.5882 -1.9591
11695TIP3    H256577   3.462   1.690   4.383 -0.4618 -0.5185 -0.0550
11696TIP3   OH256578   0.648   0.900   6.096  0.1824 -0.6567  0.2209
11696TIP3    H156579   0.596   0.890   6.176 -0.3912  0.8380  0.0800
11696TIP3    H256580   0.598   0.963   6.044  1.6136  0.0160 -0.3882
11697TIP3   OH256581   6.719   1.338   2.290 -0.0304  0.0393 -0.5069
11697TIP3    H156582   6.746   1.424   2.258  0.4154  0.0912  0.0048
11697TIP3    H256583   6.656   1.356   2.359 -0.4387 -0.0605 -0.8501
11698TIP3   OH256584   1.907   4.194   4.198 -0.0736 -0.5761 -0.0585
11698TIP3    H156585   1.991   4.204   4.241  0.5212  2.4977 -1.6570
11698TIP3    H256586   1.849   4.256   4.243 -1.8616 -3.2369  1.5866
11699TIP3   OH256587   1.552   6.496  12.755 -0.3920 -0.2460 -0.1889
11699TIP3    H156588   1.643   6.514  12.776 -0.7988  1.7360  0.1603
11699TIP3    H256589   1.515   6.462  12.837 -0.2280  0.1756  0.0696
11700TIP3   OH256590   1.027   5.930   0.684  0.2071  0.2231  0.3266
11700TIP3    H156591   1.068   6.017   0.684  0.0356  0.3528  2.5446
11700TIP3    H256592   0.934   5.948   0.673 -0.1538  0.5899  3.3275
11701TIP3   OH256593   0.276   6.220  17.017 -0.0496 -0.5613 -0.0602
11701TIP3    H156594   0.190   6.239  16.980 -1.6666  0.0414  3.5833
11701TIP3    H256595   0.266   6.135  17.059  1.1113 -0.4453  0.4823
11702TIP3   OH256596   0.211   3.115  15.224 -0.2661  0.4924  0.1353
11702TIP3    H156597   0.127   3.075  15.246  0.0276 -0.5706 -0.5991
11702TIP3    H256598   0.276   3.056  15.263  0.1432  1.0634  0.3164
11703TIP3   OH256599   0.478   2.961   5.661  0.1955  0.0710 -0.3400
11703TIP3    H156600   0.512   3.032   5.607  1.0045 -0.3939 -0.4600
11703TIP3    H256601   0.387   2.951   5.633  0.3633  0.3956 -1.0133
11704TIP3   OH256602   5.094   2.974   0.202 -0.4718 -0.0188  0.3350
11704TIP3    H156603   5.058   2.885   0.201  1.0005 -0.6532 -1.1070
11704TIP3    H256604   5.118   2.989   0.293  0.1680 -1.5197  0.4456
11705TIP3   OH256605   5.895   4.287  12.890 -0.1312 -0.2042 -0.2013
11705TIP3    H156606   5.886   4.230  12.967  0.7323  0.3515  0.3276
11705TIP3    H256607   5.954   4.239  12.832  0.9657  0.3292  0.4434
11706TIP3   OH256608   5.707   4.795  12.855 -0.0963  0.1760  0.9220
11706TIP3    H156609   5.778   4.738  12.884 -0.7201 -0.7801  0.5936
11706TIP3    H256610   5.738   4.828  12.770 -0.8130 -1.7395 -0.1493
11707TIP3   OH256611   0.140   5.312   4.244  0.5003 -0.9248 -0.1470
11707TIP3    H156612   0.125   5.356   4.160 -3.1597  1.3513  1.4447
11707TIP3    H256613   0.081   5.237   4.243  0.6917 -1.0825  0.2787
11708TIP3   OH256614   4.971   4.849   1.066 -0.7339 -0.4403  0.8145
11708TIP3    H156615   5.060   4.830   1.035 -0.8545 -2.1458  1.3924
11708TIP3    H256616   4.977   4.938   1.100  0.3121  0.1179 -0.6801
11709TIP3   OH256617   2.588   5.695   4.147 -0.0647 -0.4924  0.6462
11709TIP3    H156618   2.683   5.708   4.155  0.3643 -1.3365 -2.1166
11709TIP3    H256619   2.568   5.718   4.057 -2.3230 -1.4390  0.8479
11710TIP3   OH256620   4.375   1.789  13.161  0.0392 -0.0645 -0.2323
11710TIP3    H156621   4.326   1.850  13.216  0.5038 -1.1523  1.4852
11710TIP3    H256622   4.376   1.707  13.211  0.4721 -1.1296 -1.8954
11711TIP3   OH256623   6.753   2.285   4.199  0.2276  0.1856 -0.6393
11711TIP3    H156624   6.736   2.379   4.203  0.6872  0.2670 -0.5889
11711TIP3    H256625   6.846   2.278   4.176  0.8297 -0.2392  1.6571
11712TIP3   OH256626   2.662   0.593  13.013 -0.5246  0.1417 -0.2358
11712TIP3    H156627   2.703   0.625  13.093 -0.5575 -1.1733  0.3256
11712TIP3    H256628   2.570   0.582  13.037 -1.2153  2.6418 -1.3554
11713TIP3   OH256629   3.017   0.619  14.420  0.1429 -0.1084 -0.1396
11713TIP3    H156630   2.963   0.542  14.439 -2.4973  1.2350 -1.6855
11713TIP3    H256631   3.012   0.672  14.499 -1.1219  0.1501 -0.3806
11714TIP3   OH256632   3.624   3.196  15.805  0.1025  0.2499 -0.8454
11714TIP3    H156633   3.702   3.231  15.849 -1.1831  0.3195  1.5528
11714TIP3    H256634   3.560   3.267  15.810 -1.3239 -1.0701  0.6921
11715TIP3   OH256635   2.965   3.006  13.712 -0.8294  0.2331  0.7219
11715TIP3    H156636   2.941   3.033  13.623  0.3720  1.4038  0.7242
11715TIP3    H256637   2.992   2.915  13.702  2.0991  1.1323 -0.7349
11716TIP3   OH256638   1.759   0.769  14.550 -0.1594  0.2342  0.4215
11716TIP3    H156639   1.716   0.727  14.624 -0.0799  0.4937  0.6111
11716TIP3    H256640   1.850   0.741  14.556 -0.1221  0.3778  0.5047
11717TIP3   OH256641   4.591   0.917   1.724  0.1643  0.8249  0.3418
11717TIP3    H156642   4.626   0.910   1.813  2.3407  0.9648 -0.4260
11717TIP3    H256643   4.525   0.848   1.719 -0.6580  1.3926  2.3144
11718TIP3   OH256644   1.666   0.828   2.758 -0.3720 -0.1102  0.2523
11718TIP3    H156645   1.731   0.775   2.712  0.8503  1.8757 -0.4408
11718TIP3    H256646   1.718   0.893   2.805 -1.8474  1.5622 -0.3247
11719TIP3   OH256647   5.324   3.719  13.737 -0.0200  0.3412  0.1174
11719TIP3    H156648   5.394   3.782  13.719  1.0114 -0.5334  0.8805
11719TIP3    H256649   5.267   3.723  13.660  0.3258  1.7828 -0.0884
11720TIP3   OH256650   5.986   2.266   1.411 -0.4008 -0.0978 -0.0909
11720TIP3    H156651   6.020   2.195   1.357 -1.6405  0.8870 -2.3233
11720TIP3    H256652   5.907   2.230   1.452  1.2898 -1.2938  2.3327
11721TIP3   OH256653   6.122   2.732   3.715  0.5188  0.4070 -0.1736
11721TIP3    H156654   6.150   2.765   3.629  1.8552 -0.4782 -0.1065
11721TIP3    H256655   6.189   2.668   3.739 -0.5549 -0.3461  0.9322
11722TIP3   OH256656   5.364   4.557  14.475  0.1590 -0.3152 -0.1597
11722TIP3    H156657   5.283   4.585  14.516  0.7529  1.1872  0.0629
11722TIP3    H256658   5.424   4.542  14.548  0.2175 -1.0291 -0.3406
11723TIP3   OH256659   3.780   5.070  14.101  0.1179 -0.0625 -0.1421
11723TIP3    H156660   3.805   5.036  14.187 -0.0132 -0.9706 -0.4520
11723TIP3    H256661   3.794   5.165  14.108  1.4676 -0.2749  0.4236
11724TIP3   OH256662   1.836   6.538   2.937  0.2907 -0.2393  0.0241
11724TIP3    H156663   1.755   6.568   2.894  0.4492  0.1593  0.0046
11724TIP3    H256664   1.816   6.448   2.963 -0.6113  0.2406  1.1236
11725TIP3   OH256665   5.108   1.543  12.180 -0.6362 -0.3285 -0.0908
11725TIP3    H156666   5.202   1.528  12.188 -0.2764  1.6291 -0.0691
11725TIP3    H256667   5.083   1.498  12.099  0.7419  0.8175 -1.2038
11726TIP3   OH256668   0.576   3.807  10.909  0.5038  0.5330  0.6090
11726TIP3    H156669   0.566   3.718  10.942  0.8376  0.6081  0.9175
11726TIP3    H256670   0.665   3.832  10.933  0.1267  1.2629  1.2857
11727TIP3   OH256671   3.130   0.361   4.583 -0.2138  0.6738 -0.5105
11727TIP3    H156672   3.090   0.416   4.650  0.2630  2.4107 -1.6053
11727TIP3    H256673   3.058   0.340   4.523  0.0180  1.9527 -1.2705
11728TIP3   OH256674   0.128   1.497  13.704 -0.1588  0.8662 -1.5160
11728TIP3    H156675   0.215   1.522  13.737  0.3380 -2.0512 -0.3932
11728TIP3    H256676   0.089   1.580  13.676  3.0031  2.3001 -2.1622
11729TIP3   OH256677   2.904   5.960  11.407  0.7660  0.1749 -0.6169
11729TIP3    H156678   2.812   5.960  11.433  0.7170  0.3313 -0.7865
11729TIP3    H256679   2.918   6.047  11.371  1.1923  0.4348  0.1528
11730TIP3   OH256680   3.095   1.624  12.910 -0.2431  0.0049  0.2532
11730TIP3    H156681   3.164   1.588  12.965 -1.2854 -1.3131  0.7502
11730TIP3    H256682   3.134   1.631  12.822  0.7700  0.1355  0.7026
11731TIP3   OH256683   6.283   0.160   4.104 -0.6207 -0.2675  0.3091
11731TIP3    H156684   6.372   0.131   4.081 -0.6222 -1.5189  1.7594
11731TIP3    H256685   6.283   0.254   4.086  0.5426 -0.4972 -1.0599
11732TIP3   OH256686   4.823   0.775   3.855 -0.0426 -0.2348  0.4205
11732TIP3    H156687   4.729   0.785   3.835  0.1127  1.2454  0.3145
11732TIP3    H256688   4.867   0.834   3.794  0.8847 -0.1094  1.1912
11733TIP3   OH256689   6.662   3.500  13.671  0.3888  0.4451 -0.2496
11733TIP3    H156690   6.652   3.411  13.705  1.9282  0.4541  0.3076
11733TIP3    H256691   6.572   3.532  13.662 -0.1604 -0.7424  0.6564
11734TIP3   OH256692   3.241   1.038  12.477  0.6172 -0.1590 -0.0197
11734TIP3    H156693   3.294   1.117  12.471 -0.1614  0.4820  1.1122
11734TIP3    H256694   3.165   1.055  12.420 -0.0007  0.3025  0.9208
11735TIP3   OH256695   6.031   0.721  15.347  0.5241  0.3501  0.2700
11735TIP3    H156696   6.117   0.702  15.384  1.6442  1.1594 -1.7735
11735TIP3    H256697   5.982   0.762  15.419  0.8736 -2.4171  2.2714
11736TIP3   OH256698   6.057   5.397   1.624 -0.1002 -0.5164 -0.0676
11736TIP3    H156699   6.036   5.323   1.682 -2.9477  0.3294  0.1186
11736TIP3    H256700   6.144   5.377   1.591 -0.2608 -3.3341  0.9344
11737TIP3   OH256701   6.064   2.013  12.361 -0.4459 -0.3307 -0.3265
11737TIP3    H156702   5.997   2.034  12.426  1.6810  0.0980  1.8649
11737TIP3    H256703   6.022   1.948  12.304 -2.5524 -0.4434  1.2117
11738TIP3   OH256704   5.004   3.220   4.376 -0.3687  0.2167  0.5857
11738TIP3    H156705   5.028   3.201   4.466 -0.6948 -1.1154  0.4104
11738TIP3    H256706   4.930   3.281   4.383 -0.4282  0.0773  1.2081
11739TIP3   OH256707   1.347   0.136  16.405 -0.2236  0.2722  0.1101
11739TIP3    H156708   1.333   0.226  16.434 -0.9807 -0.8828  3.9300
11739TIP3    H256709   1.407   0.099  16.470 -1.5134 -2.4906 -0.1016
11740TIP3   OH256710   4.081   6.594  12.160 -0.0216 -0.0033 -0.0641
11740TIP3    H156711   4.127   6.572  12.241  1.2087  1.0364 -0.4495
11740TIP3    H256712   4.015   6.658  12.186 -1.2174 -1.3977  0.4701
11741TIP3   OH256713   4.550   5.829   1.842 -0.1734 -0.0458 -0.6913
11741TIP3    H156714   4.571   5.749   1.890 -0.4048  0.2463 -0.0879
11741TIP3    H256715   4.519   5.889   1.909  0.5496  0.7486 -1.0480
11742TIP3   OH256716   1.561   0.826  11.892  0.0385  1.2083  0.6685
11742TIP3    H156717   1.532   0.818  11.801  0.1787  2.2578  0.5242
11742TIP3    H256718   1.607   0.910  11.895  0.7555  0.7986  1.5147
11743TIP3   OH256719   1.469   6.230   4.339  0.2540 -0.5101 -0.4892
11743TIP3    H156720   1.424   6.186   4.267  0.7882 -0.6025 -0.7675
11743TIP3    H256721   1.463   6.168   4.412  1.1330 -1.1182 -0.9195
11744TIP3   OH256722   4.893   6.500  14.841  0.1342  0.3230 -0.3639
11744TIP3    H156723   4.971   6.459  14.804 -0.0899 -0.9736  0.5307
11744TIP3    H256724   4.922   6.586  14.869  1.0867  0.0946 -0.6026
11745TIP3   OH256725   2.977   0.073   1.182 -0.0456 -0.0535  0.0940
11745TIP3    H156726   3.057   0.038   1.142 -0.9177 -1.4663 -0.5104
11745TIP3    H256727   2.987   0.055   1.275 -0.1102 -1.2790 -0.1100
11746TIP3   OH256728   4.722   3.234   3.211 -0.3996  0.2966  0.0185
11746TIP3    H156729   4.679   3.151   3.191 -2.2636  1.0790  0.6061
11746TIP3    H256730   4.738   3.274   3.126  1.2963 -0.9862 -0.3273
11747TIP3   OH256731   0.777   3.088  15.797  0.0099 -0.0110  0.5799
11747TIP3    H156732   0.712   3.049  15.738  0.7469 -2.4109  1.2624
11747TIP3    H256733   0.801   3.018  15.857  3.8756  0.4350 -0.1697
11748TIP3   OH256734   3.901   4.860   2.389  0.5218  0.3574 -0.8320
11748TIP3    H156735   3.984   4.831   2.426  0.7394  0.1434 -1.4611
11748TIP3    H256736   3.919   4.868   2.295 -0.1094  0.5187 -0.9425
11749TIP3   OH256737   3.695   0.012   3.608 -0.5097  0.4126  1.2077
11749TIP3    H156738   3.741  -0.063   3.571  0.7413  1.3321  0.8383
11749TIP3    H256739   3.724   0.087   3.556 -2.0485  1.1168  1.2894
11750TIP3   OH256740   3.151   1.452   4.944  0.7606  0.4655 -0.2121
11750TIP3    H156741   3.244   1.439   4.961  0.4124  0.5834  2.0807
11750TIP3    H256742   3.109   1.444   5.030 -1.2732  1.0953 -1.0769
11751TIP3   OH256743   3.391   0.370   4.649  0.0466  0.3680 -0.4328
11751TIP3    H156744   3.307   0.336   4.619  0.8420 -1.5880 -0.5575
11751TIP3    H256745   3.418   0.310   4.719  0.2970  2.2997  1.2359
11752TIP3   OH256746   5.430   1.583  14.151  0.1451  0.3778 -0.2577
11752TIP3    H156747   5.459   1.582  14.242  2.1056  2.2305 -0.7661
11752TIP3    H256748   5.484   1.651  14.110 -0.4871 -0.5872 -2.8598
11753TIP3   OH256749   3.117   3.411   5.524  0.1973  0.1148  0.3545
11753TIP3    H156750   3.150   3.322   5.533 -0.1643 -0.1222 -0.5245
11753TIP3    H256751   3.065   3.409   5.444 -0.1575  1.0154  0.5517
11754TIP3   OH256752   2.354   5.251  13.287 -0.2926  0.1363  0.7097
11754TIP3    H156753   2.360   5.158  13.308  0.7263  0.4158  1.7715
11754TIP3    H256754   2.421   5.265  13.219  0.1620  0.2493  1.1749
11755TIP3   OH256755   6.437   5.013   4.652  0.0756  0.2162 -0.5443
11755TIP3    H156756   6.458   5.098   4.692  1.3597 -0.9921  1.5744
11755TIP3    H256757   6.345   5.000   4.673  0.0074  0.8465 -0.4085
11756TIP3   OH256758   6.366   6.559   3.703  0.5909  0.2985 -1.0866
11756TIP3    H156759   6.321   6.644   3.706 -3.2178 -1.5556  0.4644
11756TIP3    H256760   6.398   6.546   3.792 -2.1261 -1.3253 -0.2318
11757TIP3   OH256761   2.408   0.827  12.518 -0.8205 -0.1642 -0.0243
11757TIP3    H156762   2.463   0.843  12.441 -0.2191 -0.7742  0.2685
11757TIP3    H256763   2.469   0.795  12.584 -1.2959  0.5576  0.7856
11758TIP3   OH256764   0.936   6.170  13.763 -0.2577  0.1766 -0.0114
11758TIP3    H156765   0.971   6.243  13.814  0.0113  0.1841 -0.2096
11758TIP3    H256766   0.972   6.092  13.804 -1.2870  0.0964  0.7910
11759TIP3   OH256767   1.453   0.210  12.113  0.6413 -0.4843  0.9467
11759TIP3    H156768   1.464   0.304  12.098  0.7978 -0.6691 -0.1742
11759TIP3    H256769   1.478   0.197  12.205  0.8279  0.5293  1.0473
11760TIP3   OH256770   3.953   6.071  13.251  0.8441 -0.0525 -0.2310
11760TIP3    H156771   3.925   6.033  13.334  2.0034  0.3273  0.3608
11760TIP3    H256772   3.976   6.161  13.272  0.3650  0.3023 -1.1450
11761TIP3   OH256773   4.809   6.162   0.661  0.5791 -0.3821  0.0892
11761TIP3    H156774   4.735   6.102   0.659  0.4563 -0.2523  0.6006
11761TIP3    H256775   4.793   6.217   0.737  0.2408  0.8945 -0.8763
11762TIP3   OH256776   2.738   4.929  10.465 -0.7952  0.1014 -0.0736
11762TIP3    H156777   2.817   4.885  10.434 -0.3904  0.7950 -0.0399
11762TIP3    H256778   2.740   4.918  10.560  0.0666  1.4033  0.0858
11763TIP3   OH256779   5.840   4.513   3.849  0.3340 -0.3062  0.4987
11763TIP3    H156780   5.842   4.600   3.808 -0.6050 -0.5809 -0.1713
11763TIP3    H256781   5.825   4.530   3.942 -1.1000  0.2174  0.1918
11764TIP3   OH256782   4.057   3.411  16.490 -0.4849  0.1224  0.3158
11764TIP3    H156783   4.065   3.344  16.423  0.7285  0.5872 -0.0370
11764TIP3    H256784   4.097   3.489  16.452  1.7067 -0.0202  2.0913
11765TIP3   OH256785   0.508   1.280   2.695 -0.0442  0.9421 -0.1071
11765TIP3    H156786   0.502   1.237   2.780 -1.5575  0.0159 -0.6399
11765TIP3    H256787   0.435   1.244   2.644  2.6861 -1.1269 -2.9663
11766TIP3   OH256788   3.664   1.381   6.077  0.9626  0.5258  0.1326
11766TIP3    H156789   3.641   1.429   6.156 -0.3913  0.3882 -0.1552
11766TIP3    H256790   3.635   1.292   6.094 -1.1637  0.8777 -1.2008
11767TIP3   OH256791   0.619   2.923  14.185 -0.2330 -0.1481  0.0061
11767TIP3    H156792   0.624   2.837  14.143  0.6720 -0.8106  1.3786
11767TIP3    H256793   0.548   2.968  14.139  1.6282 -0.2287 -3.2157
11768TIP3   OH256794   2.218   4.513   1.002  0.0023 -0.2216  0.6096
11768TIP3    H156795   2.272   4.450   0.955 -1.6167 -0.7711 -0.5844
11768TIP3    H256796   2.132   4.507   0.961 -0.3212  2.5106  0.6778
11769TIP3   OH256797   6.616   2.041  14.739 -0.3954  0.1021  0.8301
11769TIP3    H156798   6.656   2.063  14.823  0.4189 -0.2988  0.5560
11769TIP3    H256799   6.673   1.974  14.702 -0.6445  0.4016 -0.1257
11770TIP3   OH256800   5.067   4.850   2.353  0.3986 -0.2696  0.1308
11770TIP3    H156801   5.011   4.866   2.429 -0.6016 -1.4930 -0.3156
11770TIP3    H256802   5.042   4.918   2.290 -1.7538 -1.6557 -0.6510
11771TIP3   OH256803   2.250   1.096   3.602 -0.2972 -0.2865 -0.6051
11771TIP3    H156804   2.241   1.180   3.559  1.5851  1.0049  1.2977
11771TIP3    H256805   2.322   1.052   3.556  0.4659  0.2942  0.0084
11772TIP3   OH256806   6.797   6.564   5.467 -0.2118  0.6984  0.3658
11772TIP3    H156807   6.721   6.522   5.426 -1.0259  1.2916  1.2080
11772TIP3    H256808   6.820   6.635   5.406  0.1366  0.0694 -0.2503
11773TIP3   OH256809   2.404   5.247   6.132 -0.1743  0.2694  0.3874
11773TIP3    H156810   2.428   5.160   6.101  0.9974  0.8507 -0.3988
11773TIP3    H256811   2.380   5.234   6.224  2.1713 -0.5652  0.9518
11774TIP3   OH256812   3.212   3.090   0.930  0.3740 -0.4671  1.1605
11774TIP3    H156813   3.225   3.096   1.025  2.0742 -1.0789  0.9849
11774TIP3    H256814   3.298   3.105   0.893 -0.1008 -1.1197 -0.2603
11775TIP3   OH256815   1.457   6.490  10.833  0.1788 -0.3903  0.3784
11775TIP3    H156816   1.392   6.543  10.787  0.8742  0.8195  0.7410
11775TIP3    H256817   1.429   6.399  10.818  1.0638 -0.2168 -3.5309
11776TIP3   OH256818   6.690   3.370  11.854 -0.0373 -0.1247 -0.3296
11776TIP3    H156819   6.756   3.325  11.907  1.8734  1.4319 -1.2431
11776TIP3    H256820   6.683   3.457  11.894  0.6164  0.6965 -1.9110
11777TIP3   OH256821   2.370   5.749  11.197  0.1477 -0.2924 -0.2370
11777TIP3    H156822   2.404   5.671  11.241  0.9521  1.6349  2.9180
11777TIP3    H256823   2.448   5.800  11.176 -0.4478  0.9894  0.5560
11778TIP3   OH256824   2.720   0.747  16.223 -0.0696  0.2159  0.0857
11778TIP3    H156825   2.700   0.691  16.298 -1.1745  0.4289 -0.0260
11778TIP3    H256826   2.783   0.697  16.172 -0.2947 -0.5050  0.4938
11779TIP3   OH256827   1.176   2.271   3.117 -0.0492 -0.1323  0.1929
11779TIP3    H156828   1.200   2.244   3.028  0.0445  0.1935  0.1170
11779TIP3    H256829   1.242   2.230   3.173 -0.1229 -0.3602  0.1145
11780TIP3   OH256830   3.476   5.796   3.034  0.0314  0.1216 -0.2293
11780TIP3    H156831   3.441   5.731   3.095 -0.4671  0.5429 -0.0572
11780TIP3    H256832   3.558   5.758   3.003  0.3113 -0.0887  0.7314
11781TIP3   OH256833   0.389   4.986  12.152  0.4940 -0.1339 -0.4882
11781TIP3    H156834   0.344   5.028  12.078 -0.8159  0.8116  0.7889
11781TIP3    H256835   0.375   4.893  12.139 -0.4574  0.0662 -0.9865
11782TIP3   OH256836   0.710   2.782  15.870  0.5910 -0.9855  0.1429
11782TIP3    H156837   0.617   2.804  15.864  0.5991 -0.0631  2.4195
11782TIP3    H256838   0.735   2.756  15.781 -0.9154  2.3716 -1.4145
11783TIP3   OH256839   6.729   6.106   2.690  0.3631 -0.4815  0.0461
11783TIP3    H156840   6.801   6.097   2.753  0.2626  0.0276  0.2342
11783TIP3    H256841   6.679   6.181   2.721 -0.9455 -1.5372  0.6153
11784TIP3   OH256842   3.655   4.878   1.072  0.3301 -0.4358  0.3774
11784TIP3    H156843   3.722   4.858   1.138  1.5330  1.1949 -0.2682
11784TIP3    H256844   3.641   4.972   1.080  0.3484 -0.2332 -1.5303
11785TIP3   OH256845   0.490   2.687   0.973 -0.2185 -0.0938 -0.3534
11785TIP3    H156846   0.491   2.619   0.905 -1.4998  0.9463 -1.4713
11785TIP3    H256847   0.494   2.638   1.055 -1.1597 -1.5492 -1.1234
11786TIP3   OH256848   5.989   5.796  14.488  0.0629  0.2419 -0.4817
11786TIP3    H156849   6.069   5.848  14.476 -0.5006  1.1548 -0.3326
11786TIP3    H256850   5.984   5.742  14.409  0.8516  0.1284 -0.4677
11787TIP3   OH256851   2.921   5.813  12.374  0.0636 -0.0303  0.5829
11787TIP3    H156852   2.895   5.729  12.339  2.9403 -1.1396  0.8156
11787TIP3    H256853   2.905   5.805  12.469  0.9597 -0.6170  0.6985
11788TIP3   OH256854   6.744   2.832  12.625  0.2237  0.0047  0.4674
11788TIP3    H156855   6.760   2.877  12.709 -0.1686  0.5899  0.2389
11788TIP3    H256856   6.820   2.774  12.614 -0.8321 -1.8870  2.3820
11789TIP3   OH256857   3.885   6.421   5.373  0.6158  0.5226 -0.1409
11789TIP3    H156858   3.862   6.386   5.287  0.6447 -1.9592  0.7833
11789TIP3    H256859   3.978   6.403   5.383  0.4646  0.1376  0.6857
11790TIP3   OH256860   1.695   6.430   1.421  0.3524 -0.4574 -0.4671
11790TIP3    H156861   1.782   6.401   1.394  0.0954 -1.0389 -0.6845
11790TIP3    H256862   1.646   6.440   1.340 -0.0739 -1.0842 -0.3007
11791TIP3   OH256863   1.852   2.202   1.478  0.4052  0.1820 -0.4364
11791TIP3    H156864   1.861   2.193   1.572  1.4125  1.6782 -0.3674
11791TIP3    H256865   1.932   2.247   1.450  1.1506 -2.0896 -2.3100
11792TIP3   OH256866   0.366   4.263  16.565  0.0647  0.1534 -0.5524
11792TIP3    H156867   0.360   4.322  16.640  1.7818  0.9007 -0.9587
11792TIP3    H256868   0.286   4.210  16.570 -0.7277  1.3873  0.7629
11793TIP3   OH256869   2.720   3.479  11.606  0.2306  0.1914  0.3018
11793TIP3    H156870   2.723   3.533  11.685 -1.2572  1.3696 -0.3999
11793TIP3    H256871   2.656   3.523  11.550  0.5167 -1.1825 -1.1474
11794TIP3   OH256872   6.806   5.301  15.262 -0.1245 -0.2772 -0.0872
11794TIP3    H156873   6.862   5.292  15.185  0.5739  1.7081  0.1060
11794TIP3    H256874   6.842   5.378  15.308 -2.6195  0.6976  0.3917
11795TIP3   OH256875   6.653   0.174  11.607 -0.6238 -0.2097  0.3787
11795TIP3    H156876   6.617   0.159  11.520  0.1860 -1.3899  0.2124
11795TIP3    H256877   6.599   0.243  11.645 -1.0849  0.2058 -0.9936
11796TIP3   OH256878   2.511   1.355   0.368  1.0658  0.1426 -0.0726
11796TIP3    H156879   2.455   1.420   0.325  0.9234  0.8302  1.0946
11796TIP3    H256880   2.495   1.274   0.321 -1.4787  0.1409  0.6405
11797TIP3   OH256881   3.423   3.905  15.313 -0.1984  0.2135  0.4133
11797TIP3    H156882   3.329   3.924  15.314 -0.2278  0.0516  0.8337
11797TIP3    H256883   3.459   3.965  15.248 -1.1792 -2.4611 -2.8678
11798TIP3   OH256884   5.306   6.202   5.816  0.0863 -0.3000  0.1030
11798TIP3    H156885   5.335   6.271   5.755  0.1351 -1.1416 -0.8391
11798TIP3    H256886   5.370   6.132   5.805 -1.5367 -1.6586 -1.0433
11799TIP3   OH256887   5.624   6.596  10.873 -0.3898  0.0861 -0.0457
11799TIP3    H156888   5.611   6.502  10.884 -0.6341 -0.0364 -1.2285
11799TIP3    H256889   5.601   6.613  10.782 -0.4300  1.3115  0.1685
11800TIP3   OH256890   3.429   5.497  16.673 -0.0609 -0.1104  0.2727
11800TIP3    H156891   3.409   5.518  16.764 -0.0764  2.1426 -0.1950
11800TIP3    H256892   3.440   5.402  16.672  1.2169 -0.0848  2.8833
11801TIP3   OH256893   3.141   1.258   2.035 -0.3294 -0.1167  0.0374
11801TIP3    H156894   3.109   1.235   1.948  0.9440 -0.3148 -0.4034
11801TIP3    H256895   3.079   1.217   2.095 -1.4544  0.3583 -0.7550
11802TIP3   OH256896   2.906   0.912  12.660  0.4940  0.5144 -0.5437
11802TIP3    H156897   2.970   0.855  12.617  2.1810  0.7626  1.4681
11802TIP3    H256898   2.948   0.998  12.661 -0.0254  0.7655  0.5039
11803TIP3   OH256899   5.651   6.068  10.927  0.5881  0.1447 -0.3043
11803TIP3    H156900   5.596   6.014  10.984  0.6068  1.0088  0.5502
11803TIP3    H256901   5.737   6.067  10.968  0.3955  1.4518  0.1505
11804TIP3   OH256902   6.627   1.678  14.110  0.1222 -0.3950  0.1007
11804TIP3    H156903   6.636   1.583  14.107 -2.5587 -0.7225 -1.5156
11804TIP3    H256904   6.664   1.708  14.027  1.4898  0.0857  0.8565
11805TIP3   OH256905   0.347   0.664  13.065 -0.0765 -0.0581 -0.2829
11805TIP3    H156906   0.430   0.621  13.083  0.5954  2.2049  2.7715
11805TIP3    H256907   0.357   0.699  12.977  0.8124 -2.6351 -1.3056
11806TIP3   OH256908   1.602   2.801  14.179 -0.3692  0.3381 -0.3301
11806TIP3    H156909   1.679   2.854  14.157 -0.2339  0.6719  0.8562
11806TIP3    H256910   1.604   2.796  14.275 -2.5622  1.5073 -0.1498
11807TIP3   OH256911   6.163   2.881   3.453  0.3798  0.0809  0.2082
11807TIP3    H156912   6.144   2.959   3.400  1.6728 -0.2210 -0.7584
11807TIP3    H256913   6.237   2.839   3.408  0.6239 -0.9424  1.5095
11808TIP3   OH256914   3.125   4.589   0.586 -0.5935  0.2373  0.3528
11808TIP3    H156915   3.184   4.577   0.512 -0.4524  2.7565 -0.0201
11808TIP3    H256916   3.112   4.683   0.592 -0.0743  0.2346  3.9869
11809TIP3   OH256917   1.388   0.524   0.557 -0.4158 -0.5046  0.1394
11809TIP3    H156918   1.397   0.434   0.526 -0.6503 -0.6900  0.6189
11809TIP3    H256919   1.333   0.518   0.634  0.9254 -0.1548  1.1652
11810TIP3   OH256920   1.754   5.118  16.045  0.4000 -0.2614 -0.4519
11810TIP3    H156921   1.732   5.025  16.057  1.7638 -0.5260  0.1257
11810TIP3    H256922   1.849   5.119  16.033  0.2398  0.9334 -1.9334
11811TIP3   OH256923   5.610   3.813   3.312 -0.5610  0.4128 -0.5189
11811TIP3    H156924   5.639   3.786   3.399 -0.0944 -0.3183 -0.8923
11811TIP3    H256925   5.519   3.783   3.306 -0.3784 -0.1474 -0.5358
11812TIP3   OH256926   2.165   3.563   2.626 -0.0581  0.2929 -0.2564
11812TIP3    H156927   2.186   3.477   2.592  0.8642 -0.1545  1.3028
11812TIP3    H256928   2.122   3.547   2.710  1.1797  1.2996  0.6330
11813TIP3   OH256929   4.969   6.565   6.127 -0.1283  0.1120  0.3724
11813TIP3    H156930   4.901   6.624   6.161  1.3637  2.3260 -0.2487
11813TIP3    H256931   4.974   6.587   6.034  0.1251 -1.4058  0.0122
11814TIP3   OH256932   4.065   0.656   4.187  0.6496 -0.2415 -0.1950
11814TIP3    H156933   4.030   0.742   4.209  1.0456  0.3046 -1.6111
11814TIP3    H256934   4.152   0.654   4.227  1.9276  1.2778 -2.6636
11815TIP3   OH256935   0.650   3.494   0.331 -0.5951 -0.0745  0.4859
11815TIP3    H156936   0.661   3.442   0.251  1.6320 -0.2435  0.8585
11815TIP3    H256937   0.703   3.572   0.316 -0.9227  0.3403  1.4451
11816TIP3   OH256938   0.858   6.800   4.751 -0.1973  0.5336 -0.0566
11816TIP3    H156939   0.900   6.802   4.665  0.6299  2.4435  0.3394
11816TIP3    H256940   0.923   6.761   4.809 -0.6748 -0.5557 -0.2286
11817TIP3   OH256941   3.291   0.501   5.877  0.1294 -0.0880 -0.4106
11817TIP3    H156942   3.199   0.502   5.851 -0.0256  0.0251  0.1189
11817TIP3    H256943   3.333   0.441   5.816  0.0366  1.1265 -1.7210
11818TIP3   OH256944   5.940   5.574  10.994 -0.7864 -1.0617  0.2728
11818TIP3    H156945   5.906   5.660  11.019  1.8839  0.0361  0.4600
11818TIP3    H256946   6.026   5.569  11.036 -0.2480 -3.2252 -0.9315
11819TIP3   OH256947   5.798   0.769   3.383 -0.6578  0.0332  0.1344
11819TIP3    H156948   5.704   0.785   3.392 -0.8074 -1.5243  2.0156
11819TIP3    H256949   5.839   0.839   3.434 -0.8016  0.3622 -0.1920
11820TIP3   OH256950   3.880   3.941  14.753  0.1160  0.5847 -0.1488
11820TIP3    H156951   3.867   3.886  14.831  0.7329  0.8518  0.1540
11820TIP3    H256952   3.911   4.025  14.789  0.5803  0.6489 -0.6934
11821TIP3   OH256953   5.645   0.906   3.160  0.1276 -0.1735  0.2691
11821TIP3    H156954   5.717   0.844   3.175  0.3094 -0.3829 -1.2516
11821TIP3    H256955   5.567   0.850   3.150  0.2364 -0.1560 -0.7788
11822TIP3   OH256956   3.363   3.046  12.483  0.4383  1.0639  0.3416
11822TIP3    H156957   3.428   3.013  12.421  0.8231 -0.5036  1.5168
11822TIP3    H256958   3.300   3.093  12.429  2.1568  2.0527 -0.9200
11823TIP3   OH256959   3.858   6.386   3.754  0.1978  0.4633  0.0557
11823TIP3    H156960   3.858   6.418   3.664 -2.1236 -1.0974 -0.5809
11823TIP3    H256961   3.795   6.443   3.799 -1.5050 -1.0395 -0.3015
11824TIP3   OH256962   3.249   5.180   2.148 -0.3995  0.0325  0.0459
11824TIP3    H156963   3.328   5.180   2.202  0.6245  1.5581 -1.3610
11824TIP3    H256964   3.177   5.177   2.211  0.7221 -1.8830  1.3568
11825TIP3   OH256965   2.327   0.164  15.503 -0.7647 -0.3564  0.3984
11825TIP3    H156966   2.378   0.098  15.551 -1.0432 -0.7250  0.1971
11825TIP3    H256967   2.291   0.220  15.571  1.3764  1.0243  0.4684
11826TIP3   OH256968   4.656   4.492  15.225 -1.0720 -0.5590 -0.1626
11826TIP3    H156969   4.627   4.490  15.134 -0.5121 -1.5577 -0.3358
11826TIP3    H256970   4.745   4.457  15.222 -1.0695 -0.6483  0.7799
11827TIP3   OH256971   5.402   1.632   1.567  0.2470 -0.1758  0.0778
11827TIP3    H156972   5.308   1.619   1.569 -0.2088  2.3890 -0.7139
11827TIP3    H256973   5.432   1.583   1.490 -0.7468  0.4816 -0.7534
11828TIP3   OH256974   2.013   4.756  14.445  0.4268 -0.2944  0.5343
11828TIP3    H156975   1.970   4.670  14.444 -0.7110  0.2606  0.3099
11828TIP3    H256976   2.090   4.744  14.501  1.3790 -1.9723 -1.0148
11829TIP3   OH256977   0.322   3.567   4.730 -0.3398  0.4023 -0.4820
11829TIP3    H156978   0.357   3.656   4.732  0.1820  0.1954  0.6534
11829TIP3    H256979   0.349   3.529   4.814 -0.0986 -0.9995 -1.1672
11830TIP3   OH256980   2.107   3.074   5.443  0.0082 -0.0804  0.4653
11830TIP3    H156981   2.149   3.004   5.394  1.8110  0.8438  0.6154
11830TIP3    H256982   2.013   3.059   5.430  0.3761 -0.4636 -2.4176
11831TIP3   OH256983   3.690   0.011  11.062 -0.1835 -0.1820  0.0620
11831TIP3    H156984   3.637  -0.068  11.070  0.5408 -0.5739  1.2886
11831TIP3    H256985   3.743   0.013  11.141  0.7859  0.8280 -0.5698
11832TIP3   OH256986   3.145   2.814  12.163 -0.0541  0.0710  0.3689
11832TIP3    H156987   3.164   2.906  12.145  1.9997 -0.1652  1.0336
11832TIP3    H256988   3.195   2.765  12.097  1.4119 -0.5894  1.8764
11833TIP3   OH256989   3.548   2.813   0.297  0.6021 -0.7200  0.0360
11833TIP3    H156990   3.508   2.898   0.281 -1.0181 -1.4771 -0.1082
11833TIP3    H256991   3.557   2.808   0.392  1.7770  0.0515 -0.0089
11834TIP3   OH256992   2.529   1.059  11.466  0.3020  0.2179  0.5628
11834TIP3    H156993   2.464   1.050  11.396 -0.3058  0.3250  1.1003
11834TIP3    H256994   2.612   1.071  11.421  0.7272 -4.3318 -0.2688
11835TIP3   OH256995   1.089   6.719  14.340  0.0833 -0.5152  0.5164
11835TIP3    H156996   1.012   6.662  14.344  0.7306 -1.4101  0.4689
11835TIP3    H256997   1.138   6.698  14.420  0.3486 -0.0503  0.4761
11836TIP3   OH256998   1.497   4.293   3.516  0.0761 -0.0629 -0.2123
11836TIP3    H156999   1.478   4.312   3.424  0.5498  1.9340  0.0734
11836TIP3    H257000   1.506   4.379   3.557  0.5805 -0.9286  1.5646
11837TIP3   OH257001   1.754   5.634  16.433  0.4967 -0.9240 -0.1017
11837TIP3    H157002   1.757   5.698  16.362 -0.7692  1.1671  1.6043
11837TIP3    H257003   1.844   5.628  16.464  0.9998 -1.5972 -1.5894
11838TIP3   OH257004   2.488   2.076  14.373 -0.1102  0.1566  0.6085
11838TIP3    H157005   2.476   2.120  14.289 -2.3798  0.9631  1.2821
11838TIP3    H257006   2.477   1.983  14.354 -2.3949  0.4590  0.2372
11839TIP3   OH257007   2.462   4.983  13.265  0.8860 -0.0012 -0.0686
11839TIP3    H157008   2.378   4.937  13.265 -0.0777  1.6996 -0.7990
11839TIP3    H257009   2.515   4.935  13.201 -0.6390  0.7866 -2.0274
11840TIP3   OH257010   4.433   3.968  15.934  0.3696  0.3554  0.1193
11840TIP3    H157011   4.470   4.011  16.011  0.6115  1.8927 -0.8200
11840TIP3    H257012   4.357   3.920  15.967  0.3742  1.1269  1.2868
11841TIP3   OH257013   3.825   3.600   0.454 -0.1704  0.3394 -0.1707
11841TIP3    H157014   3.820   3.658   0.529  1.8943  2.6122 -1.6378
11841TIP3    H257015   3.782   3.647   0.383 -1.0271 -1.2318 -0.7468
11842TIP3   OH257016   1.106   6.599  16.510 -0.3162  0.2026 -0.0690
11842TIP3    H157017   1.167   6.544  16.558 -0.9713  1.1212  1.9063
11842TIP3    H257018   1.064   6.539  16.447  0.8502 -0.9442  0.2027
11843TIP3   OH257019   1.785   4.280  15.265  0.2446  0.0155  0.1264
11843TIP3    H157020   1.740   4.359  15.295  1.0313  0.5131  0.0274
11843TIP3    H257021   1.828   4.307  15.184 -1.4472 -1.1640 -1.2426
11844TIP3   OH257022   0.826   6.513  16.585 -0.0904  0.1369 -0.1272
11844TIP3    H157023   0.879   6.562  16.647 -0.5803  0.8432 -0.2513
11844TIP3    H257024   0.868   6.427  16.580  0.4823  0.3703  0.4844
11845TIP3   OH257025   5.846   6.131  11.341 -0.1414  0.3340  0.4264
11845TIP3    H157026   5.759   6.095  11.327 -1.0701  2.6439 -0.1259
11845TIP3    H257027   5.841   6.174  11.426  0.4220  0.6391  0.3084
11846TIP3   OH257028   5.860   4.552  11.524 -0.0169 -0.2828  0.0656
11846TIP3    H157029   5.874   4.641  11.491  2.3504 -0.4828  0.3317
11846TIP3    H257030   5.848   4.500  11.445 -2.0988  0.3225 -0.0674
11847TIP3   OH257031   1.182   6.082  12.079  0.3858  0.3913 -0.2945
11847TIP3    H157032   1.102   6.130  12.057 -1.0358 -1.4842  0.5298
11847TIP3    H257033   1.243   6.102  12.007 -0.6331  2.2120 -0.7124
11848TIP3   OH257034   6.158   1.510   3.313 -0.1757  0.0248  0.1974
11848TIP3    H157035   6.231   1.541   3.366  0.2486  0.0950 -0.4109
11848TIP3    H257036   6.120   1.438   3.363  0.4264 -0.1303  0.4391
11849TIP3   OH257037   1.270   0.551   2.207  0.2990 -0.2588  0.7263
11849TIP3    H157038   1.344   0.600   2.242  1.9514 -1.9179 -0.3046
11849TIP3    H257039   1.227   0.612   2.147  1.4076  0.4242  0.6039
11850TIP3   OH257040   0.767   5.805  14.329 -0.2920 -0.1664  0.5721
11850TIP3    H157041   0.836   5.855  14.374  0.4437 -0.4120 -0.2497
11850TIP3    H257042   0.800   5.715  14.330  0.8485  0.1162 -2.3790
11851TIP3   OH257043   5.775   5.501  13.864  0.1862 -0.4114  0.7214
11851TIP3    H157044   5.711   5.443  13.824  0.3034  0.2440 -0.4819
11851TIP3    H257045   5.795   5.461  13.949 -0.3108 -1.6917  0.2615
11852TIP3   OH257046   3.792   2.836   1.465 -0.3166  0.4444  0.5240
11852TIP3    H157047   3.881   2.826   1.431 -0.1724 -0.2584  1.0888
11852TIP3    H257048   3.789   2.927   1.495  0.6983  0.0714  1.8367
11853TIP3   OH257049   1.312   1.657   4.748 -0.0197  0.4887 -0.6279
11853TIP3    H157050   1.254   1.602   4.696 -1.7573  2.3402 -0.7453
11853TIP3    H257051   1.335   1.603   4.824 -1.2816 -0.5425 -0.9520
11854TIP3   OH257052   5.576   4.670   4.949 -0.0841 -0.2141  0.0900
11854TIP3    H157053   5.515   4.731   4.907 -0.9700 -0.9101  0.3325
11854TIP3    H257054   5.552   4.674   5.042  0.6007 -0.1000  0.2643
11855TIP3   OH257055   1.265   1.418   0.988  0.2032 -0.1818 -0.1175
11855TIP3    H157056   1.295   1.373   1.068 -1.6843 -1.5559 -0.1186
11855TIP3    H257057   1.340   1.472   0.962  1.4106 -0.8476  1.7326
11856TIP3   OH257058   3.724   1.845   5.751 -0.6517 -0.4259  0.1588
11856TIP3    H157059   3.634   1.824   5.729 -0.5811 -0.4852 -0.0784
11856TIP3    H257060   3.767   1.759   5.760 -0.3632 -0.3955 -0.8115
11857TIP3   OH257061   5.698   2.027   3.068  0.7505 -0.5856 -0.2094
11857TIP3    H157062   5.685   2.112   3.026 -0.3502 -0.6521 -0.0272
11857TIP3    H257063   5.622   2.016   3.124  0.7197 -1.8463 -0.4708
11858TIP3   OH257064   2.143   6.183  15.356  0.2230  0.4026  0.0318
11858TIP3    H157065   2.193   6.264  15.367 -0.2442  0.9070 -1.2299
11858TIP3    H257066   2.094   6.173  15.437  0.9797  0.9008  0.5548
11859TIP3   OH257067   2.937   2.693   0.859 -0.6619  0.3263  0.0150
11859TIP3    H157068   2.956   2.773   0.909  1.9353 -1.1693  1.6403
11859TIP3    H257069   2.957   2.621   0.919  3.4857 -1.6395 -3.2358
11860TIP3   OH257070   4.054   2.857  14.522  0.4418  0.3273  0.0498
11860TIP3    H157071   4.136   2.807  14.522  0.2910  0.0742 -0.4448
11860TIP3    H257072   3.997   2.809  14.581  0.9587  1.0291  1.1430
11861TIP3   OH257073   5.968   4.769   5.180 -0.4582 -0.8282  0.3859
11861TIP3    H157074   6.025   4.802   5.110 -0.9814  1.1497  0.8370
11861TIP3    H257075   5.903   4.715   5.135  0.3200 -1.1206 -0.4172
11862TIP3   OH257076   5.316   4.794  11.121  0.0170 -0.3304 -0.2586
11862TIP3    H157077   5.281   4.718  11.168 -0.4105  0.1464  0.1963
11862TIP3    H257078   5.270   4.869  11.158  1.7083  0.3512  0.5745
11863TIP3   OH257079   2.776   3.376  15.933  0.8805  0.5559  0.1061
11863TIP3    H157080   2.846   3.356  15.996  0.3783  0.7466  0.7298
11863TIP3    H257081   2.789   3.312  15.863 -0.2035 -1.5219  1.6805
11864TIP3   OH257082   4.899   5.184  10.973 -0.0904  0.2643 -0.0434
11864TIP3    H157083   4.857   5.256  10.925 -0.4733  0.6933  0.9268
11864TIP3    H257084   4.993   5.198  10.958 -0.2365 -0.9022 -2.5017
11865TIP3   OH257085   1.541   3.306  14.142 -0.2851  0.1597 -0.3246
11865TIP3    H157086   1.462   3.286  14.192 -0.1596  1.6490  0.5162
11865TIP3    H257087   1.570   3.221  14.108 -1.9513 -0.4822 -0.2356
11866TIP3   OH257088   3.394   6.003   3.761 -0.5767  0.1318 -0.1127
11866TIP3    H157089   3.426   5.994   3.851 -0.3623 -1.6139 -0.3195
11866TIP3    H257090   3.304   5.969   3.764 -0.3505 -0.5450 -0.6519
11867TIP3   OH257091   1.505   0.665   1.011 -0.1005  0.0717  0.0237
11867TIP3    H157092   1.534   0.639   0.924 -0.0024  0.6201 -0.1134
11867TIP3    H257093   1.479   0.583   1.054  1.3541 -0.4021  0.0475
11868TIP3   OH257094   4.120   4.257   5.550  0.1856 -0.2926  0.0362
11868TIP3    H157095   4.206   4.235   5.513  0.6012  0.2510  0.6446
11868TIP3    H257096   4.137   4.334   5.604 -1.1236  1.2334 -1.6351
11869TIP3   OH257097   3.108   4.375   1.831  0.2983  0.4932  0.0603
11869TIP3    H157098   3.175   4.308   1.847  0.5069  0.2470 -1.6452
11869TIP3    H257099   3.156   4.448   1.791 -0.3014  0.7035 -0.2833
11870TIP3   OH257100   2.336   4.057   0.899 -0.9173 -0.4555  0.5542
11870TIP3    H157101   2.411   4.104   0.864  0.2595 -2.0558  0.8030
11870TIP3    H257102   2.344   4.066   0.994 -1.2443 -0.3430  0.5729
11871TIP3   OH257103   4.198   3.720   0.654 -0.1038  0.0847 -0.4137
11871TIP3    H157104   4.116   3.767   0.637  0.4091  0.3354 -2.4548
11871TIP3    H257105   4.173   3.628   0.654 -1.1573  0.1600  3.8293
11872TIP3   OH257106   4.625   0.313  11.810 -0.1259  0.1545  0.5542
11872TIP3    H157107   4.603   0.221  11.794 -0.8803  0.6158 -1.4700
11872TIP3    H257108   4.684   0.311  11.885 -0.8043 -1.8906  1.1155
11873TIP3   OH257109   3.599   0.143  16.055  0.4929 -0.0850 -0.2828
11873TIP3    H157110   3.678   0.171  16.102  0.0370  1.8008 -0.5685
11873TIP3    H257111   3.607   0.184  15.969 -1.0721  0.6358 -0.1148
11874TIP3   OH257112   4.008   3.899   3.792  0.4311 -0.2396  0.1858
11874TIP3    H157113   4.058   3.974   3.825  1.0812 -0.7980  0.5089
11874TIP3    H257114   3.959   3.932   3.717 -2.0313  1.4114  2.3559
11875TIP3   OH257115   6.751   5.208   0.815  0.1081 -0.9041  0.1470
11875TIP3    H157116   6.756   5.230   0.908  1.6295 -1.1447  0.1509
11875TIP3    H257117   6.840   5.181   0.792  0.0451  0.2759 -1.6617
11876TIP3   OH257118   2.352   1.732  11.162  0.0819  0.1364 -0.1886
11876TIP3    H157119   2.431   1.733  11.216  0.2738 -1.4263 -0.3857
11876TIP3    H257120   2.368   1.662  11.098 -1.6885 -0.6374  0.1499
11877TIP3   OH257121   1.305   4.084  14.226 -0.5303 -0.0801 -0.1169
11877TIP3    H157122   1.273   4.143  14.295  0.6186  2.0825 -1.3023
11877TIP3    H257123   1.274   4.124  14.145  0.6536 -0.8945 -0.9975
11878TIP3   OH257124   0.143   5.818   5.009  0.4127 -0.4110 -0.2088
11878TIP3    H157125   0.228   5.778   5.029  1.1642  0.3032 -1.7196
11878TIP3    H257126   0.160   5.912   5.013 -0.7877 -0.2283  1.2325
11879TIP3   OH257127   0.474   3.977  12.637 -0.1555  0.0555  0.0937
11879TIP3    H157128   0.484   4.027  12.557  1.0348 -0.4339 -0.0877
11879TIP3    H257129   0.455   4.042  12.704  2.3940  0.9406  0.0712
11880TIP3   OH257130   4.113   3.110  16.051  0.7908  0.0736 -0.2155
11880TIP3    H157131   4.196   3.068  16.028  0.4757  0.3247 -1.9120
11880TIP3    H257132   4.048   3.071  15.992  0.1156  1.4361 -0.4280
11881TIP3   OH257133   0.869   4.393   5.575 -0.0780 -0.1082 -0.0109
11881TIP3    H157134   0.927   4.469   5.582  0.1787 -0.2151 -0.9095
11881TIP3    H257135   0.800   4.410   5.640  1.5490 -0.5292  1.9246
11882TIP3   OH257136   6.751   4.337  13.786 -0.3803  0.3678 -0.1862
11882TIP3    H157137   6.680   4.343  13.722 -0.2523  0.5752 -0.3142
11882TIP3    H257138   6.826   4.307  13.734 -1.2541 -3.6691  0.6291
11883TIP3   OH257139   0.151   0.037   3.553 -0.3851  0.2509 -0.0835
11883TIP3    H157140   0.064   0.076   3.545 -0.4112  0.1409 -0.3188
11883TIP3    H257141   0.209   0.112   3.568 -0.8394  0.1719  2.7211
11884TIP3   OH257142   0.767   1.324   0.867  0.5437 -0.0458  0.3930
11884TIP3    H157143   0.684   1.307   0.822 -1.0110 -1.3201  3.4540
11884TIP3    H257144   0.794   1.410   0.835 -1.6617  0.1712 -1.1208
11885TIP3   OH257145   4.999   2.994  17.102  0.2029  0.1563 -0.0387
11885TIP3    H157146   5.060   3.018  17.172  0.0079 -2.9159  1.3156
11885TIP3    H257147   5.040   2.920  17.057 -1.6526 -0.7853 -0.2880
11886TIP3   OH257148   3.047   1.734   2.258  0.0583 -0.0827  0.3394
11886TIP3    H157149   3.132   1.690   2.267 -0.0833 -0.2420  0.9677
11886TIP3    H257150   3.006   1.693   2.182  0.4910 -0.0947  0.1103
11887TIP3   OH257151   0.842   3.659   2.011  0.5293  0.1933  0.2248
11887TIP3    H157152   0.885   3.740   1.982 -0.6053  1.8598  2.7929
11887TIP3    H257153   0.907   3.616   2.066  0.4284  0.4703  0.5662
11888TIP3   OH257154   1.449   1.270  14.471 -0.4463 -0.1934 -1.1442
11888TIP3    H157155   1.530   1.305  14.510 -0.8738 -0.5746  0.1279
11888TIP3    H257156   1.381   1.332  14.499 -1.0131 -1.3402  0.0860
11889TIP3   OH257157   5.646   0.013  12.940  0.0807  0.0376  0.5875
11889TIP3    H157158   5.610   0.020  12.851  0.2242  0.1370  0.5377
11889TIP3    H257159   5.572  -0.017  12.993 -0.4451  1.5782  0.7521
11890TIP3   OH257160   5.565   5.900  11.604  0.1473 -0.2315  0.0179
11890TIP3    H157161   5.626   5.948  11.660  0.4352 -0.8258  0.2224
11890TIP3    H257162   5.501   5.863  11.665 -0.2552  0.1539 -0.1691
11891TIP3   OH257163   5.537   0.370   0.523 -0.2759  0.1724  0.5250
11891TIP3    H157164   5.584   0.408   0.448  0.9745  0.0367  1.2145
11891TIP3    H257165   5.602   0.369   0.594 -1.2689 -0.2291  1.4514
11892TIP3   OH257166   0.436   6.111   3.059 -0.1391 -0.1100 -0.6971
11892TIP3    H157167   0.418   6.024   3.023 -2.3229 -0.3344  0.6991
11892TIP3    H257168   0.418   6.102   3.153  0.7643  1.5689 -0.3231
11893TIP3   OH257169   2.942   6.509  14.651  0.1321  0.1750  0.4259
11893TIP3    H157170   2.861   6.470  14.617  0.6026 -0.9986  0.5756
11893TIP3    H257171   2.995   6.525  14.573  0.0353  0.2791  0.3811
11894TIP3   OH257172   1.782   5.006  11.450 -0.1564  0.1730 -0.1081
11894TIP3    H157173   1.825   5.054  11.522  0.4941  1.6175 -1.3885
11894TIP3    H257174   1.692   5.039  11.450 -0.6976 -1.2029  1.1690
11895TIP3   OH257175   1.971   4.113   2.522 -0.6572  0.6327 -0.1641
11895TIP3    H157176   2.035   4.139   2.456  0.5121 -0.7750  0.3611
11895TIP3    H257177   1.997   4.162   2.601 -1.5242  1.6403 -0.4709
11896TIP3   OH257178   2.147   0.246  11.116 -0.0196  0.8699  0.8366
11896TIP3    H157179   2.176   0.282  11.032 -1.7804 -0.8057 -0.5911
11896TIP3    H257180   2.067   0.296  11.136 -1.0178 -0.4117  0.1714
11897TIP3   OH257181   4.755   0.226  14.886  0.2994  0.5618  0.4782
11897TIP3    H157182   4.666   0.226  14.920 -0.1258 -0.2033 -0.5936
11897TIP3    H257183   4.753   0.166  14.812  1.7868  0.2985  0.6172
11898TIP3   OH257184   1.952   4.994   1.421 -0.2078 -0.1845  0.0802
11898TIP3    H157185   1.921   4.904   1.425  0.0027 -0.2495  0.2670
11898TIP3    H257186   1.884   5.041   1.372  0.2541 -0.6856 -1.0770
11899TIP3   OH257187   6.218   4.687  14.669  0.2344 -0.2191  0.1354
11899TIP3    H157188   6.145   4.659  14.614  2.1412 -1.4380 -1.9582
11899TIP3    H257189   6.270   4.744  14.612  1.5824 -0.4068  1.1216
11900TIP3   OH257190   4.953   5.231  13.015  0.2023  0.5142  0.1198
11900TIP3    H157191   5.010   5.305  13.035 -0.4864  1.5225 -1.5429
11900TIP3    H257192   4.947   5.229  12.920 -1.7013 -0.2233  0.2046
11901TIP3   OH257193   0.418   3.698  11.695 -0.0074  0.3745  0.8528
11901TIP3    H157194   0.467   3.675  11.617  0.8645  1.3031  1.1064
11901TIP3    H257195   0.418   3.793  11.697  1.6130  0.4148  2.9419
11902TIP3   OH257196   1.388   3.122  14.523  0.3478  0.1838 -0.0412
11902TIP3    H157197   1.370   3.028  14.525  0.1624  0.2264  0.3130
11902TIP3    H257198   1.303   3.163  14.536  0.1020  0.4340 -2.1353
11903TIP3   OH257199   5.466   1.241  11.584  0.5567 -0.2525 -0.1551
11903TIP3    H157200   5.414   1.322  11.587  0.0437 -0.5811 -0.0189
11903TIP3    H257201   5.549   1.267  11.545  0.6999  0.5083  0.6285
11904TIP3   OH257202   3.059   4.451   1.066  0.1560  0.5103 -0.1183
11904TIP3    H157203   3.059   4.478   0.974  0.3858  2.2174  0.3527
11904TIP3    H257204   2.977   4.485   1.101  0.7204  1.1197  0.6414
11905TIP3   OH257205   0.255   3.807   0.968 -0.2571  0.0097 -0.0561
11905TIP3    H157206   0.332   3.758   0.938  0.2322  0.8031 -0.1210
11905TIP3    H257207   0.189   3.791   0.900 -0.2758 -0.9367  0.1616
11906TIP3   OH257208   5.123   5.855   1.705 -0.4226  0.2483 -0.0279
11906TIP3    H157209   5.029   5.848   1.725 -0.0181  0.7428  2.4881
11906TIP3    H257210   5.134   5.945   1.675 -1.0602 -0.5118 -2.7992
11907TIP3   OH257211   0.483   5.489   1.441  0.4128 -0.1862 -0.5948
11907TIP3    H157212   0.525   5.403   1.440  0.7813 -0.0065 -0.9990
11907TIP3    H257213   0.412   5.482   1.378 -0.3950 -0.5990  0.3493
11908TIP3   OH257214   2.535   5.609  16.580 -0.0471 -0.2225  0.4715
11908TIP3    H157215   2.462   5.601  16.519 -0.9414  0.2202  1.4520
11908TIP3    H257216   2.495   5.597  16.666  0.9569  0.5391  1.0546
11909TIP3   OH257217   0.765   5.684   5.654 -0.4747  0.4264  0.2873
11909TIP3    H157218   0.688   5.741   5.656 -0.6467  0.1774  0.7934
11909TIP3    H257219   0.827   5.724   5.714  1.3174  2.7098 -2.7741
11910TIP3   OH257220   2.116   0.775   2.453 -0.3092 -0.3782 -0.4372
11910TIP3    H157221   2.076   0.690   2.438 -0.1241 -0.3225 -1.3341
11910TIP3    H257222   2.209   0.761   2.439  0.1133 -0.6199  2.1282
11911TIP3   OH257223   2.961   6.248   6.330 -0.6849 -0.2552 -0.0979
11911TIP3    H157224   2.948   6.321   6.269 -0.3637 -0.0396  0.0902
11911TIP3    H257225   2.882   6.194   6.319 -1.2298  0.4547  0.2355
11912TIP3   OH257226   1.580   4.132  13.542 -0.3999 -0.2877  0.2213
11912TIP3    H157227   1.586   4.109  13.449 -1.4928 -1.3463  0.3955
11912TIP3    H257228   1.591   4.049  13.588  2.6747  0.5304  1.2016
11913TIP3   OH257229   1.814   4.151   5.114  0.0619 -0.4073 -0.2850
11913TIP3    H157230   1.766   4.073   5.085  1.1654 -1.3166  0.2564
11913TIP3    H257231   1.794   4.157   5.208  0.5053 -0.4201 -0.1897
11914TIP3   OH257232   5.751   1.629   1.695  0.3436 -0.0682 -0.0188
11914TIP3    H157233   5.704   1.699   1.741 -0.3777 -0.0089 -0.8155
11914TIP3    H257234   5.778   1.669   1.613  1.2261 -0.3037  0.1458
11915TIP3   OH257235   3.626   4.164   1.086  0.2032 -0.4863 -0.5256
11915TIP3    H157236   3.711   4.186   1.048 -0.1404  1.8225 -0.1161
11915TIP3    H257237   3.647   4.126   1.171  0.8394 -1.2282 -0.9981
11916TIP3   OH257238   3.608   1.218   4.312  0.1515  0.4617  0.3816
11916TIP3    H157239   3.589   1.297   4.261  1.9069  0.0109 -1.1020
11916TIP3    H257240   3.703   1.221   4.325 -0.0769 -0.1685  2.4692
11917TIP3   OH257241   1.285   2.768   4.344  0.3015  0.3487 -0.2836
11917TIP3    H157242   1.346   2.812   4.284  1.3605 -0.2254  0.3518
11917TIP3    H257243   1.221   2.725   4.286  1.8058 -0.9199 -1.0700
11918TIP3   OH257244   5.519   2.692   1.165  0.2081 -0.0620 -0.0046
11918TIP3    H157245   5.580   2.660   1.098 -2.7844 -1.2449 -2.4332
11918TIP3    H257246   5.482   2.613   1.203 -0.8302  0.5862  0.3660
11919TIP3   OH257247   1.512   2.787   1.582  0.6187  0.5209 -0.2583
11919TIP3    H157248   1.474   2.875   1.592 -0.9929 -0.3951  3.6015
11919TIP3    H257249   1.604   2.797   1.606  0.6020  1.2244 -0.4591
11920TIP3   OH257250   4.941   4.651   2.181 -0.2991 -0.0446 -0.0105
11920TIP3    H157251   4.996   4.681   2.253 -0.3022  0.6562 -0.2916
11920TIP3    H257252   4.992   4.582   2.139 -0.9885 -1.6414  1.6453
11921TIP3   OH257253   0.556   6.071   2.420 -0.0528  0.1938 -0.1365
11921TIP3    H157254   0.649   6.068   2.441 -0.0142  1.6241 -0.0181
11921TIP3    H257255   0.553   6.075   2.325  0.0129  0.3299 -0.1328
11922TIP3   OH257256   2.644   6.694   0.969  0.0917  0.3816  0.0076
11922TIP3    H157257   2.711   6.640   1.011 -0.7913 -0.9719 -0.2659
11922TIP3    H257258   2.629   6.766   1.031 -0.0773 -0.7343  1.3261
11923TIP3   OH257259   3.269   3.664  16.848 -0.2770 -0.6014  0.5580
11923TIP3    H157260   3.210   3.711  16.906  0.5090  2.1350 -0.7032
11923TIP3    H257261   3.356   3.682  16.882  0.0982 -0.3457 -0.5074
11924TIP3   OH257262   2.757   5.275   2.673 -0.5003 -0.0373  0.4527
11924TIP3    H157263   2.818   5.348   2.677 -0.9406  0.4676 -1.0977
11924TIP3    H257264   2.734   5.257   2.764  0.9625  0.5836  0.9745
11925TIP3   OH257265   5.996   1.842   0.359  0.5334  0.7562  0.2673
11925TIP3    H157266   5.951   1.766   0.321  1.2379  0.4938 -0.0893
11925TIP3    H257267   5.969   1.843   0.450 -1.9683  1.9700 -0.4013
11926TIP3   OH257268   4.432   0.721   3.958 -0.2282 -0.4753  0.8410
11926TIP3    H157269   4.455   0.666   3.883 -0.4683 -0.5251  0.8052
11926TIP3    H257270   4.479   0.682   4.031 -2.3239 -2.2260  1.3372
11927TIP3   OH257271   0.837   4.654  13.183 -0.0544 -0.1278 -0.1509
11927TIP3    H157272   0.924   4.694  13.184  0.1334 -0.3632 -2.2445
11927TIP3    H257273   0.848   4.576  13.128 -1.5240 -0.3070 -0.2249
11928TIP3   OH257274   4.492   0.852   4.440 -0.7628  0.2179 -0.5452
11928TIP3    H157275   4.545   0.920   4.398 -1.4387  0.5814 -0.8314
11928TIP3    H257276   4.449   0.807   4.368  0.5371 -1.2718 -0.4372
11929TIP3   OH257277   3.960   3.716   1.516 -0.0114 -0.1697 -0.5318
11929TIP3    H157278   4.044   3.677   1.489  1.3368  0.7548  1.9743
11929TIP3    H257279   3.959   3.802   1.473  1.0988  0.4455  0.6225
11930TIP3   OH257280   1.407   3.916   1.274 -0.1708 -0.3290 -0.3377
11930TIP3    H157281   1.349   3.956   1.209  0.5635 -0.2178 -0.9436
11930TIP3    H257282   1.360   3.838   1.303 -1.5345  0.8514  0.7242
11931TIP3   OH257283   0.057   0.222   1.689 -0.0766 -0.3330  0.3321
11931TIP3    H157284   0.128   0.189   1.744  1.2693  0.3740 -0.9057
11931TIP3    H257285  -0.019   0.227   1.747  1.3566  0.6822  2.2122
11932TIP3   OH257286   4.272   5.922   4.693  0.1304 -0.1928  0.5471
11932TIP3    H157287   4.365   5.914   4.671  0.1859  1.0594  0.2708
11932TIP3    H257288   4.271   5.951   4.784  0.0068 -0.3229  0.5878
11933TIP3   OH257289   0.669   3.693   4.779  0.3265  0.2627  0.1831
11933TIP3    H157290   0.626   3.679   4.863  0.0233  1.2945  0.2093
11933TIP3    H257291   0.689   3.787   4.777 -1.8991  0.8135 -1.9323
11934TIP3   OH257292   4.200   5.547  11.701 -0.6807 -0.1781 -0.2456
11934TIP3    H157293   4.119   5.497  11.696 -0.7242 -0.0137 -1.4968
11934TIP3    H257294   4.172   5.636  11.720 -0.8821  0.0554 -1.5487
11935TIP3   OH257295   1.447   6.797  12.890  0.2241  0.0684  0.0550
11935TIP3    H157296   1.451   6.887  12.922 -0.3447  0.0053  0.3062
11935TIP3    H257297   1.428   6.745  12.967  1.1318 -0.3402  0.0172
11936TIP3   OH257298   5.193   6.530  11.960 -0.2850  0.2660 -0.2912
11936TIP3    H157299   5.098   6.521  11.966 -0.1644 -1.5689 -0.6359
11936TIP3    H257300   5.227   6.442  11.980  1.3687  1.0058  0.3359
11937TIP3   OH257301   0.607   0.651   2.384  0.2064  0.0516  0.8870
11937TIP3    H157302   0.541   0.652   2.314  1.1103 -0.5202 -0.0053
11937TIP3    H257303   0.645   0.738   2.383 -0.8672  0.5521  1.7558
11938TIP3   OH257304   5.289   2.502  13.890 -0.1597  0.5521  0.5096
11938TIP3    H157305   5.238   2.580  13.868 -0.5018  0.4246  0.8404
11938TIP3    H257306   5.380   2.532  13.888 -0.1466  0.5026 -1.2532
11939TIP3   OH257307   1.109   1.564  16.581  0.2850  0.0560  0.2629
11939TIP3    H157308   1.073   1.564  16.670  1.5482 -1.3802  0.8176
11939TIP3    H257309   1.055   1.500  16.534  0.2119  0.1165  0.2654
11940TIP3   OH257310   2.443   4.154  16.887  0.5388  0.1408 -0.0563
11940TIP3    H157311   2.420   4.190  16.801  1.3115 -0.8978 -0.7248
11940TIP3    H257312   2.501   4.219  16.926  0.7042  0.3287 -0.6061
11941TIP3   OH257313   2.113   5.934  16.491  0.6675  0.6786  0.5267
11941TIP3    H157314   2.061   5.885  16.428  0.8891  0.0965  0.7876
11941TIP3    H257315   2.095   5.892  16.575  2.3034 -0.1849  0.4877
11942TIP3   OH257316   6.346   5.558   2.022  0.2184 -0.3985 -0.6109
11942TIP3    H157317   6.310   5.589   2.105 -0.1493  0.9326 -1.2412
11942TIP3    H257318   6.273   5.562   1.961 -0.3933 -4.2774 -0.4136
11943TIP3   OH257319   3.380   0.228   5.631 -0.0992  0.6551  0.5644
11943TIP3    H157320   3.306   0.284   5.607  0.4256  1.5353  0.9479
11943TIP3    H257321   3.452   0.289   5.649  0.3057 -0.0917  1.6266
11944TIP3   OH257322   3.343   5.842   0.053 -0.1216 -0.1753 -0.4911
11944TIP3    H157323   3.366   5.796   0.133 -1.4552 -1.9473 -1.0483
11944TIP3    H257324   3.377   5.931   0.065 -0.8647 -0.1789  2.3038
11945TIP3   OH257325   5.211   0.660   0.960 -0.2753  0.3962 -0.4975
11945TIP3    H157326   5.238   0.611   0.882  1.8328 -1.6937  1.3890
11945TIP3    H257327   5.293   0.698   0.993 -1.6385  4.2882 -1.1299
11946TIP3   OH257328   4.821   1.235  16.540  0.4436  0.0833  0.1425
11946TIP3    H157329   4.772   1.301  16.491  0.5684 -0.2548 -0.4525
11946TIP3    H257330   4.768   1.219  16.618  0.6399  1.2111  0.5237
11947TIP3   OH257331   0.065   0.231   4.726  0.3510 -0.3442 -0.7124
11947TIP3    H157332   0.051   0.198   4.815  0.5762  0.0315 -0.5356
11947TIP3    H257333   0.082   0.325   4.738  1.4287 -0.4884 -1.0606
11948TIP3   OH257334   5.290   2.722  12.415  0.5221  0.5131 -0.0177
11948TIP3    H157335   5.336   2.639  12.414 -0.0376  0.2020 -0.2325
11948TIP3    H257336   5.198   2.699  12.433  0.3916  1.0920  0.0826
11949TIP3   OH257337   5.023   1.996  10.757  0.3322  0.3294 -0.2899
11949TIP3    H157338   4.994   2.086  10.738 -1.3516 -0.2923 -0.8179
11949TIP3    H257339   4.960   1.940  10.712  0.5281 -1.1494  1.1751
11950TIP3   OH257340   4.166   5.759  14.973  0.4007 -0.3864  0.0865
11950TIP3    H157341   4.153   5.669  14.944  1.0006 -0.8486  1.2016
11950TIP3    H257342   4.127   5.762  15.060  0.3034  0.4697  0.0275
11951TIP3   OH257343   0.401   0.993   0.219  0.1065  0.1576 -0.4144
11951TIP3    H157344   0.412   0.984   0.314 -0.2595  2.2977 -0.1141
11951TIP3    H257345   0.309   0.971   0.204  0.2231 -0.4132 -0.3200
11952TIP3   OH257346   2.473   5.741   2.834 -0.0447  0.8618 -0.1744
11952TIP3    H157347   2.567   5.747   2.850  0.1387  0.4333 -1.0383
11952TIP3    H257348   2.460   5.653   2.799 -0.7990  0.8524  0.0932
11953TIP3   OH257349   3.197   2.020  14.821  0.0925 -0.1272  0.5413
11953TIP3    H157350   3.274   2.046  14.771 -0.5228 -1.0950 -0.9864
11953TIP3    H257351   3.220   2.040  14.912  1.4695  1.1651 -0.0397
11954TIP3   OH257352   3.188   1.735   4.166  0.0120  0.2126  0.1221
11954TIP3    H157353   3.098   1.722   4.195  0.1776 -1.1734  0.0799
11954TIP3    H257354   3.180   1.777   4.080 -0.6449 -0.9931 -0.4272
11955TIP3   OH257355   1.104   1.978   2.075 -0.3385  0.1281 -0.0742
11955TIP3    H157356   1.172   2.044   2.060 -0.5818  0.2437 -0.7158
11955TIP3    H257357   1.135   1.928   2.150  1.5112 -1.1775 -1.6087
11956TIP3   OH257358   4.149   2.729   1.640 -0.3985 -0.0897 -0.2324
11956TIP3    H157359   4.080   2.741   1.706 -0.7398  0.1648 -0.6292
11956TIP3    H257360   4.126   2.790   1.570 -0.4740 -0.9056 -0.9392
11957TIP3   OH257361   4.736   4.229   4.616 -0.0599  0.3367 -0.3013
11957TIP3    H157362   4.772   4.260   4.533  0.1937  0.3488 -0.1866
11957TIP3    H257363   4.786   4.274   4.683 -0.6832  0.7995 -0.1407
11958TIP3   OH257364   5.593   4.007  11.385 -0.0123  0.8152 -0.0232
11958TIP3    H157365   5.612   3.997  11.292 -0.1569 -0.1760  0.0436
11958TIP3    H257366   5.609   3.921  11.423 -1.6493  0.7233  0.5627
11959TIP3   OH257367   6.697   0.354   2.973  0.4833 -0.5616  1.0697
11959TIP3    H157368   6.601   0.350   2.982 -0.0193  1.8015 -1.6233
11959TIP3    H257369   6.716   0.302   2.895  1.3622 -0.8214  1.4521
11960TIP3   OH257370   4.422   2.730  15.152  0.1969  0.4592  0.1610
11960TIP3    H157371   4.393   2.802  15.208  0.6892  1.8026 -1.2424
11960TIP3    H257372   4.511   2.753  15.127  0.1285 -0.3046 -0.8514
11961TIP3   OH257373   5.147   0.395  15.564 -0.6587  0.0524 -0.1083
11961TIP3    H157374   5.114   0.472  15.517  1.2311  1.6551  1.0385
11961TIP3    H257375   5.191   0.431  15.640 -0.4023 -2.2628  0.9154
11962TIP3   OH257376   4.357   3.593  11.417  0.0471  0.2959  0.3412
11962TIP3    H157377   4.336   3.541  11.495  1.5262 -1.3832 -0.3280
11962TIP3    H257378   4.448   3.619  11.429  1.0655 -1.9370 -1.8167
11963TIP3   OH257379   1.238   1.424   1.424 -0.1903  0.6366 -0.1319
11963TIP3    H157380   1.262   1.491   1.489 -0.0341  0.7861 -0.3439
11963TIP3    H257381   1.144   1.415   1.434 -0.0291 -0.1368  0.8846
11964TIP3   OH257382   5.409   1.185  15.187 -0.2967  0.1760 -0.3459
11964TIP3    H157383   5.498   1.165  15.161  0.2080 -0.4440  1.6378
11964TIP3    H257384   5.413   1.274  15.222 -0.3545  0.0301  0.0491
11965TIP3   OH257385   1.935   4.603  10.525  0.0614  0.7630 -0.9187
11965TIP3    H157386   1.913   4.521  10.481  0.9258 -0.3657  0.6366
11965TIP3    H257387   1.859   4.621  10.581  1.0966 -0.7381  1.1035
11966TIP3   OH257388   2.522   0.516  14.706 -0.4760 -0.4183 -0.0621
11966TIP3    H157389   2.562   0.507  14.620  2.1622 -1.9249  1.2104
11966TIP3    H257390   2.557   0.444  14.757 -1.4121  0.7994  2.4970
11967TIP3   OH257391   0.874   3.698  11.667  0.7635 -0.7117 -0.3071
11967TIP3    H157392   0.877   3.721  11.574  1.4979  1.5093  0.1946
11967TIP3    H257393   0.934   3.624  11.675 -0.1634 -1.6907 -1.7354
11968TIP3   OH257394   3.040   0.729  13.680  0.1250 -0.5211  0.1577
11968TIP3    H157395   3.014   0.637  13.684  1.5659 -0.9720 -0.1474
11968TIP3    H257396   3.003   0.761  13.598  0.0861 -0.9810 -0.0070
11969TIP3   OH257397   1.233   2.719  14.098 -0.0843  0.5949 -0.3201
11969TIP3    H157398   1.249   2.793  14.040 -0.6362  0.5851 -0.4943
11969TIP3    H257399   1.278   2.645  14.056 -0.1755  0.6678 -0.5473
11970TIP3   OH257400   6.494   1.399   1.966 -0.1360  0.0863 -0.3934
11970TIP3    H157401   6.557   1.459   1.924 -0.4116  0.9072  0.3278
11970TIP3    H257402   6.429   1.457   2.005 -1.8346 -0.7502 -1.8273
11971TIP3   OH257403   4.453   5.506   2.870 -0.7170  0.3275  0.0192
11971TIP3    H157404   4.543   5.500   2.837 -0.5116  0.5364  0.5347
11971TIP3    H257405   4.406   5.552   2.800 -0.3028  0.7104 -0.0187
11972TIP3   OH257406   1.648   3.471   2.495 -0.1447  0.1453 -0.1008
11972TIP3    H157407   1.615   3.560   2.485 -0.2752  0.0641 -0.3950
11972TIP3    H257408   1.733   3.471   2.451  1.1749  0.8647  2.2525
11973TIP3   OH257409   4.166   3.552  13.916 -0.0699 -0.2521  0.4218
11973TIP3    H157410   4.148   3.490  13.987  0.4704  0.0083  0.7933
11973TIP3    H257411   4.230   3.613  13.953 -1.1002  0.9350  0.2745
11974TIP3   OH257412   4.326   6.597   2.751  0.3922  0.6835  0.5084
11974TIP3    H157413   4.373   6.622   2.671  2.5500  1.7719  2.0427
11974TIP3    H257414   4.274   6.675   2.773 -2.5165 -0.5571 -1.2632
11975TIP3   OH257415   3.294   2.237   3.395 -0.1156  0.5745  0.3789
11975TIP3    H157416   3.243   2.254   3.474  1.0866 -0.4250  1.4102
11975TIP3    H257417   3.378   2.279   3.411  1.1600 -1.9378  0.9089
11976TIP3   OH257418   3.767   5.066  16.107  0.4277  0.0719 -0.2547
11976TIP3    H157419   3.790   5.157  16.123  2.1033 -0.6616  1.9648
11976TIP3    H257420   3.677   5.058  16.140 -0.5121  1.3011 -2.3142
11977TIP3   OH257421   6.355   1.920  15.872 -0.1807 -0.4468 -0.0554
11977TIP3    H157422   6.390   1.833  15.891 -0.0575 -0.5489 -0.7432
11977TIP3    H257423   6.430   1.979  15.881 -0.2290 -0.4312  0.2522
11978TIP3   OH257424   1.579   0.151  11.777  0.4621  0.1186 -0.5135
11978TIP3    H157425   1.527   0.077  11.809  0.8125 -0.9024 -2.1789
11978TIP3    H257426   1.617   0.190  11.856  0.5573 -1.7131  0.3900
11979TIP3   OH257427   3.404   3.776  14.676  0.3787 -0.0867 -0.1087
11979TIP3    H157428   3.438   3.813  14.594  1.8837 -1.6408 -0.2670
11979TIP3    H257429   3.421   3.844  14.742 -0.7879  1.1565 -1.0433
11980TIP3   OH257430   3.910   1.434   2.522 -0.1375 -0.3430  0.6202
11980TIP3    H157431   3.895   1.503   2.458 -2.0240 -1.2368  0.0283
11980TIP3    H257432   3.989   1.388   2.491  0.8467  1.1915  0.7634
11981TIP3   OH257433   0.460   1.142  15.358  0.0307 -0.3128 -0.3848
11981TIP3    H157434   0.420   1.228  15.366  0.2569 -0.3550  1.4989
11981TIP3    H257435   0.386   1.082  15.351 -0.1644 -0.1147 -0.0307
11982TIP3   OH257436   0.083   4.282  13.201 -0.0582  0.4481  0.2864
11982TIP3    H157437   0.125   4.199  13.225  0.5015  0.7507  0.3755
11982TIP3    H257438   0.154   4.346  13.204 -0.4211  0.8713 -0.1114
11983TIP3   OH257439   4.891   0.308   4.784 -0.6406 -0.4290  0.3899
11983TIP3    H157440   4.818   0.339   4.837 -0.3812  0.3625  0.2952
11983TIP3    H257441   4.881   0.354   4.701 -0.3228 -0.6989  0.2031
11984TIP3   OH257442   1.895   0.140   1.020  0.2561  0.2890  0.4903
11984TIP3    H157443   1.820   0.183   1.062 -0.1112  1.8748 -1.6089
11984TIP3    H257444   1.865   0.050   1.006 -0.0965  0.0772  2.3016
11985TIP3   OH257445   3.093   6.439  12.922  0.2900  0.5269  0.3986
11985TIP3    H157446   3.095   6.351  12.958 -0.8344  0.3746  0.1273
11985TIP3    H257447   3.007   6.447  12.881  0.4626  1.6638  0.2004
11986TIP3   OH257448   5.017   1.895   6.057 -0.0878 -0.5159  0.6447
11986TIP3    H157449   5.101   1.917   6.098  0.5353 -1.6387  0.0344
11986TIP3    H257450   5.018   1.944   5.974 -1.2067  1.5028  1.7609
11987TIP3   OH257451   6.211   2.192  10.756 -1.0118 -0.0921  0.7237
11987TIP3    H157452   6.172   2.258  10.814 -1.3474  0.6564 -0.3246
11987TIP3    H257453   6.138   2.137  10.729 -0.9935  0.0437  0.3934
11988TIP3   OH257454   5.515   0.153  14.362 -0.6800 -0.0418 -0.5682
11988TIP3    H157455   5.485   0.194  14.444 -1.4331 -0.3792 -0.6617
11988TIP3    H257456   5.468   0.200  14.293  0.5609  0.7844 -0.8862
11989TIP3   OH257457   0.095   6.719  16.108  0.2740 -0.4379 -0.1769
11989TIP3    H157458   0.109   6.795  16.051  0.4896  0.6559  1.2788
11989TIP3    H257459   0.009   6.686  16.083 -2.8325  3.9459  3.0158
11990TIP3   OH257460   5.479   0.198   2.598 -0.2813  0.5078  0.1342
11990TIP3    H157461   5.400   0.144   2.591  0.0401 -0.1851  1.4607
11990TIP3    H257462   5.454   0.282   2.560 -1.7455  0.3806  0.7299
11991TIP3   OH257463   0.586   3.203   4.239 -0.5700 -0.0983  0.1833
11991TIP3    H157464   0.532   3.195   4.160 -2.1610 -2.6238  1.3847
11991TIP3    H257465   0.652   3.135   4.230  0.0321  0.4462  0.4668
11992TIP3   OH257466   4.915   1.993   4.044 -0.2637  0.1781  0.1339
11992TIP3    H157467   4.989   1.976   4.102 -0.6409 -1.7753  0.1362
11992TIP3    H257468   4.862   1.913   4.049 -1.2821  0.6995 -1.4526
11993TIP3   OH257469   1.528   4.511  15.926 -0.1565  0.1192  0.4433
11993TIP3    H157470   1.583   4.444  15.885  0.6934 -0.9056  3.0676
11993TIP3    H257471   1.589   4.578  15.956 -0.7803  0.9299 -0.0550
11994TIP3   OH257472   0.385   5.715   3.013 -0.6699  0.2239  0.5117
11994TIP3    H157473   0.465   5.668   3.034 -1.2387 -0.6054  0.8899
11994TIP3    H257474   0.412   5.786   2.955  0.4209  0.3337  1.1421
11995TIP3   OH257475   3.017   2.740  13.628 -0.2430  0.0489 -0.3492
11995TIP3    H157476   3.009   2.711  13.537 -2.0905 -0.6123 -0.0231
11995TIP3    H257477   3.102   2.707  13.657  0.6476  0.7859 -1.9860
11996TIP3   OH257478   5.487   1.466  12.654  0.5453  0.4416 -0.9538
11996TIP3    H157479   5.444   1.415  12.586 -1.8369 -1.0354  1.4549
11996TIP3    H257480   5.577   1.434  12.656 -0.4253 -2.5100 -0.6815
11997TIP3   OH257481   6.523   4.036  12.245  0.0817  0.3171 -0.1925
11997TIP3    H157482   6.472   3.976  12.300  0.5711 -1.0458 -1.1707
11997TIP3    H257483   6.612   4.001  12.248  0.2806  0.7114 -1.1806
11998TIP3   OH257484   3.720   5.750   1.487 -0.1979  0.3466 -0.1262
11998TIP3    H157485   3.736   5.699   1.567 -1.3594  1.4405  0.8579
11998TIP3    H257486   3.649   5.704   1.443  0.2686 -0.1144 -0.4046
11999TIP3   OH257487   3.188   5.647  15.707 -0.0982  0.8375  0.1200
11999TIP3    H157488   3.203   5.556  15.683 -0.5331  0.3092  1.7345
11999TIP3    H257489   3.094   5.652  15.725 -0.1637  1.7276 -0.3820
12000TIP3   OH257490   4.120   1.007  14.852 -0.2899  0.8289  0.2092
12000TIP3    H157491   4.196   1.058  14.880 -0.1634  0.6337  0.2224
12000TIP3    H257492   4.109   0.940  14.920  2.2703 -2.0369 -1.9403
12001TIP3   OH257493   1.868   5.446  11.762  0.5323  0.3288  0.6398
12001TIP3    H157494   1.851   5.385  11.834  0.0207  0.0327  0.2752
12001TIP3    H257495   1.785   5.492  11.750  0.2517 -0.4275 -0.4993
12002TIP3   OH257496   5.718   2.203   1.509 -0.1731 -0.0106  0.1032
12002TIP3    H157497   5.648   2.207   1.575  1.0978 -0.7430  1.5464
12002TIP3    H257498   5.674   2.173   1.429 -1.6294  0.2348  0.7842
12003TIP3   OH257499   1.453   5.806   2.037 -0.0373 -0.2477 -0.7026
12003TIP3    H157500   1.471   5.790   2.130 -0.8318 -0.0284 -0.5016
12003TIP3    H257501   1.519   5.870   2.011 -0.1842  0.1474 -0.1296
12004TIP3   OH257502   5.186   2.053  11.980 -0.0183 -0.0204  0.3007
12004TIP3    H157503   5.108   2.095  12.016  1.2160  0.9329  2.0567
12004TIP3    H257504   5.170   2.048  11.886 -1.6692  1.2622  0.4639
12005TIP3   OH257505   0.662   2.908  13.428  0.0940 -0.2363 -0.4928
12005TIP3    H157506   0.586   2.899  13.371  1.1536 -0.6245 -1.9090
12005TIP3    H257507   0.736   2.885  13.373  1.4917  2.2117  0.1981
12006TIP3   OH257508   3.310   3.972  13.023 -0.1285 -0.3914  0.1020
12006TIP3    H157509   3.400   4.005  13.029  1.2954 -3.7839 -0.4754
12006TIP3    H257510   3.277   3.978  13.113  1.1451 -0.3209  0.5913
12007TIP3   OH257511   1.465   6.170  14.779 -0.2190 -0.5895 -0.6081
12007TIP3    H157512   1.457   6.111  14.704 -0.3320 -1.6842  0.2489
12007TIP3    H257513   1.491   6.114  14.852 -2.2295  0.0703  0.6976
12008TIP3   OH257514   1.524   3.573  12.555  0.4469  0.0340 -0.6742
12008TIP3    H157515   1.450   3.514  12.565  1.4193 -1.0883  0.1152
12008TIP3    H257516   1.581   3.554  12.630  2.0940  0.0404 -1.8687
12009TIP3   OH257517   6.163   5.921   3.646 -0.0315 -0.4573 -0.2980
12009TIP3    H157518   6.113   5.960   3.574  0.5110  0.0854 -0.3887
12009TIP3    H257519   6.228   5.866   3.603  2.7993  2.7270 -0.4973
12010TIP3   OH257520   4.797   1.357  15.786  0.4913  0.2492 -0.0668
12010TIP3    H157521   4.767   1.272  15.755 -0.0327  0.8594 -1.3289
12010TIP3    H257522   4.881   1.371  15.742  1.4696 -0.3820  1.5425
12011TIP3   OH257523   1.533   6.489   4.143 -0.0852 -0.3496 -0.1301
12011TIP3    H157524   1.527   6.520   4.233  0.5663 -0.6713  0.0277
12011TIP3    H257525   1.576   6.404   4.150 -1.2707 -1.0156 -0.6103
12012TIP3   OH257526   0.148   3.072  13.557 -0.2208  0.1486 -0.3061
12012TIP3    H157527   0.186   3.050  13.642 -0.9634 -0.4649 -0.1177
12012TIP3    H257528   0.132   3.166  13.562  0.1506  0.1957  0.0664
12013TIP3   OH257529   5.319   0.569   4.270  0.2778 -0.3281 -0.0570
12013TIP3    H157530   5.321   0.479   4.237  0.9460  0.0874 -1.2063
12013TIP3    H257531   5.344   0.622   4.195  0.0105  0.8119  0.6489
12014TIP3   OH257532   5.351   4.961  12.231 -0.3057 -0.1121  0.6722
12014TIP3    H157533   5.397   4.878  12.236  1.2620  0.6294 -0.4883
12014TIP3    H257534   5.349   4.993  12.321  2.8038  0.4811  0.6214
12015TIP3   OH257535   1.789   3.666   2.684  0.7323 -0.4009 -0.1435
12015TIP3    H157536   1.843   3.723   2.738  0.7708 -0.1565 -0.4397
12015TIP3    H257537   1.819   3.578   2.705  0.8447 -0.2980  0.1277
12016TIP3   OH257538   5.257   1.118   5.703  0.3742 -0.0337 -0.4707
12016TIP3    H157539   5.238   1.212   5.698 -0.9939 -0.2883 -0.4271
12016TIP3    H257540   5.319   1.102   5.632 -0.9984  0.5388 -1.8492
12017TIP3   OH257541   1.238   4.156  11.500 -0.6810 -0.0601  0.2735
12017TIP3    H157542   1.223   4.191  11.587 -3.4487  2.4120 -1.0447
12017TIP3    H257543   1.156   4.170  11.453  0.5110 -1.7608 -2.6154
12018TIP3   OH257544   1.093   1.570   5.134  0.3589  0.0676 -0.4008
12018TIP3    H157545   1.178   1.596   5.169 -0.2593  0.1481  1.1141
12018TIP3    H257546   1.113   1.537   5.046  2.1861 -1.3990  0.4767
12019TIP3   OH257547   4.980   3.096   1.143 -0.0578 -0.5456  0.2214
12019TIP3    H157548   5.056   3.045   1.171  1.1405  0.2159 -1.5033
12019TIP3    H257549   4.947   3.137   1.223  1.0775 -1.2139  1.0555
12020TIP3   OH257550   3.946   5.437   1.074  0.6248  0.4653 -0.5983
12020TIP3    H157551   3.933   5.476   1.161  0.7672 -0.0864 -0.3297
12020TIP3    H257552   4.021   5.484   1.038  0.6201  0.6345 -0.3891
12021TIP3   OH257553   5.143   2.904  15.769  0.1359 -0.3391  0.3464
12021TIP3    H157554   5.085   2.894  15.844 -1.6341 -0.1185 -0.9187
12021TIP3    H257555   5.130   2.824  15.718 -1.4878  0.9984 -1.4996
12022TIP3   OH257556   4.763   6.032   1.137  0.1034 -0.3527 -0.3684
12022TIP3    H157557   4.706   5.992   1.072  0.7076  0.8528 -1.6967
12022TIP3    H257558   4.811   6.100   1.089 -0.1539  1.2826  1.5360
12023TIP3   OH257559   0.648   3.798  13.088 -0.3139  0.1945 -0.5882
12023TIP3    H157560   0.734   3.769  13.120 -1.0492 -0.9899  0.4054
12023TIP3    H257561   0.668   3.848  13.009  1.3735  0.8848  0.2142
12024TIP3   OH257562   5.291   3.752   4.097  0.0298 -0.0969 -0.5478
12024TIP3    H157563   5.201   3.731   4.075 -0.5611  0.6723  1.0038
12024TIP3    H257564   5.327   3.793   4.018 -0.7429 -1.0546 -1.4091
12025TIP3   OH257565   5.670   2.269  15.806  0.0850 -0.5514 -0.2970
12025TIP3    H157566   5.723   2.189  15.809 -0.4689 -0.9323 -0.5453
12025TIP3    H257567   5.713   2.323  15.740  0.2737 -0.7747 -0.3598
12026TIP3   OH257568   6.823   5.214  15.846  0.7482  0.1087  0.2184
12026TIP3    H157569   6.876   5.293  15.841  0.7107  0.1024 -0.3932
12026TIP3    H257570   6.776   5.211  15.763  0.2238 -0.1893  0.5172
12027TIP3   OH257571   4.774   1.635  15.858  0.3334  0.2634  0.1483
12027TIP3    H157572   4.772   1.541  15.840  2.5958  0.1975  0.0036
12027TIP3    H257573   4.707   1.672  15.801  0.0907 -1.1458 -0.5209
12028TIP3   OH257574   4.579   5.776   5.494  0.1048 -0.4376  0.4863
12028TIP3    H157575   4.497   5.780   5.543 -1.4542 -1.8392 -1.7584
12028TIP3    H257576   4.587   5.684   5.469  3.2095 -0.6550  1.8328
12029TIP3   OH257577   0.247   5.677   6.409  0.2371  0.3524 -0.4327
12029TIP3    H157578   0.185   5.728   6.356  1.1292  1.1272 -0.7736
12029TIP3    H257579   0.201   5.663   6.492 -0.7849  0.0185 -1.0296
12030TIP3   OH257580   6.202   6.817   3.858 -0.0055 -0.1798 -0.0733
12030TIP3    H157581   6.250   6.888   3.816 -0.0230 -0.9763 -1.5019
12030TIP3    H257582   6.196   6.844   3.950 -0.3362  1.8298 -0.6300
12031TIP3   OH257583   3.202   5.390  15.361 -0.4420 -1.4135  0.4259
12031TIP3    H157584   3.130   5.419  15.416 -0.2606 -1.9736  0.9784
12031TIP3    H257585   3.160   5.355  15.283 -0.7156 -0.8476  0.3134
12032TIP3   OH257586   0.078   5.975  15.353  0.0790  0.0819 -0.1469
12032TIP3    H157587  -0.014   5.995  15.335  0.7773  1.5951 -2.3219
12032TIP3    H257588   0.115   5.951  15.268  2.0256  0.9232  0.4085
12033TIP3   OH257589   3.070   6.523  14.031  0.1731  0.3483  0.1200
12033TIP3    H157590   3.164   6.512  14.031  0.0231 -1.0272  0.1466
12033TIP3    H257591   3.043   6.503  13.941 -0.1157  0.6465  0.1344
12034TIP3   OH257592   6.514   3.293  14.118 -0.5538 -0.1448 -0.1873
12034TIP3    H157593   6.559   3.266  14.198  0.6358 -0.8360 -1.0580
12034TIP3    H257594   6.422   3.270  14.132  0.1066 -3.1063 -0.1695
12035TIP3   OH257595   2.764   4.357   5.421  0.3037 -0.1333 -0.0660
12035TIP3    H157596   2.825   4.284   5.410  0.4771 -0.6713  3.4740
12035TIP3    H257597   2.819   4.431   5.446 -0.2495  0.0567  0.6113
12036TIP3   OH257598   6.572   5.245   1.710 -0.6007 -0.1397  0.1910
12036TIP3    H157599   6.664   5.247   1.681 -0.6210 -0.9657  0.0487
12036TIP3    H257600   6.522   5.252   1.628 -0.6562 -0.9159  0.1486
12037TIP3   OH257601   0.427   2.070  15.302 -0.8214 -0.6455 -0.4850
12037TIP3    H157602   0.375   2.148  15.283 -0.7429 -0.5779 -0.4235
12037TIP3    H257603   0.459   2.042  15.216  0.7133  0.4854 -0.3296
12038TIP3   OH257604   1.830   1.658   0.638 -0.6719  0.4210 -0.1487
12038TIP3    H157605   1.774   1.628   0.567  0.1525  1.5813 -1.3316
12038TIP3    H257606   1.784   1.632   0.718 -1.3919 -1.3267 -1.0826
12039TIP3   OH257607   4.850   1.063   5.338  0.4214 -0.4003 -0.4247
12039TIP3    H157608   4.892   1.102   5.414 -2.7468 -0.2820  1.4603
12039TIP3    H257609   4.783   1.127   5.313  1.0214 -0.6842 -3.0557
12040TIP3   OH257610   3.759   2.640   0.590  0.1574 -0.2010  0.2305
12040TIP3    H157611   3.783   2.641   0.498  0.9098  2.6508  0.3647
12040TIP3    H257612   3.842   2.648   0.637 -0.4106  1.8257  0.9905
12041TIP3   OH257613   6.106   5.023   0.756  0.2036 -0.3317  0.3109
12041TIP3    H157614   6.116   4.928   0.755  0.0926 -0.3499  0.7009
12041TIP3    H257615   6.081   5.043   0.846  1.9262  0.2353  0.7095
12042TIP3   OH257616   5.847   0.575  16.655 -0.2497  0.6417 -0.5242
12042TIP3    H157617   5.837   0.624  16.737 -0.3962 -0.4174  0.1011
12042TIP3    H257618   5.924   0.615  16.613 -0.6158  1.6907 -0.2466
12043TIP3   OH257619   0.442   2.923  11.634 -0.5707 -0.3182  0.2390
12043TIP3    H157620   0.452   3.018  11.644  0.4540 -0.4117  0.2044
12043TIP3    H257621   0.414   2.893  11.721 -1.5141  0.0888  0.0793
12044TIP3   OH257622   5.877   1.533  12.760  0.7265  0.0809  0.2805
12044TIP3    H157623   5.830   1.490  12.688  0.0366  0.5285  0.4565
12044TIP3    H257624   5.931   1.600  12.717  0.4507  0.2284  0.1625
12045TIP3   OH257625   6.595   3.964   6.182  0.5112  0.2625  0.0161
12045TIP3    H157626   6.592   3.945   6.088  1.3995  1.0768 -0.2002
12045TIP3    H257627   6.513   4.010   6.200  0.7307  0.9092 -0.5691
12046TIP3   OH257628   6.179   3.597  15.675  0.5416 -0.1076 -0.3813
12046TIP3    H157629   6.098   3.548  15.661  0.5655 -0.0642 -0.6706
12046TIP3    H257630   6.188   3.650  15.597  1.2682 -0.6987 -0.7064
12047TIP3   OH257631   5.714   1.661  11.775 -0.3980 -0.1561  0.1027
12047TIP3    H157632   5.634   1.609  11.770 -0.9742  0.7499 -0.5133
12047TIP3    H257633   5.686   1.743  11.817  0.0262  0.4649 -0.7877
12048TIP3   OH257634   1.739   6.314  13.965  0.3392 -0.0116 -0.5091
12048TIP3    H157635   1.808   6.254  13.937 -1.5870 -1.8393 -1.6176
12048TIP3    H257636   1.702   6.348  13.883 -0.5479  0.3552  0.0274
12049TIP3   OH257637   1.386   5.261   3.487 -0.3916  0.1378 -0.1951
12049TIP3    H157638   1.453   5.303   3.540 -2.0441  1.6407  0.7906
12049TIP3    H257639   1.320   5.231   3.550 -1.2680 -0.1768 -1.2251
12050TIP3   OH257640   3.621   1.114   4.999  0.5779  0.0048 -0.1933
12050TIP3    H157641   3.644   1.026   4.971 -1.7635 -0.7432 -0.0007
12050TIP3    H257642   3.555   1.143   4.936 -1.7063 -0.0668  1.9831
12051TIP3   OH257643   6.214   4.505  11.383 -0.3036 -0.1417 -0.0522
12051TIP3    H157644   6.309   4.512  11.378 -0.4579  1.3791 -2.1587
12051TIP3    H257645   6.189   4.454  11.306 -1.1856 -1.1417  0.8586
12052TIP3   OH257646   1.561   4.118   1.064  0.3003  0.7046 -0.5797
12052TIP3    H157647   1.471   4.094   1.087  0.7359 -0.1844  0.2694
12052TIP3    H257648   1.560   4.214   1.058 -0.2330  0.8850  1.5619
12053TIP3   OH257649   3.411   0.032  11.721  0.8508 -0.6610 -0.0363
12053TIP3    H157650   3.468   0.106  11.741 -0.1638  0.1354  0.0264
12053TIP3    H257651   3.432  -0.034  11.786  0.0625  0.5294  1.4837
12054TIP3   OH257652   3.441   1.999  15.240 -0.0862 -0.1868  0.6459
12054TIP3    H157653   3.380   1.945  15.190 -2.0141  1.6047  0.9331
12054TIP3    H257654   3.430   1.970  15.331  1.3052 -1.4689  0.4527
12055TIP3   OH257655   4.957   4.373   2.457  0.3309  0.4231 -0.3427
12055TIP3    H157656   4.983   4.356   2.366 -0.6172 -0.4373 -0.4714
12055TIP3    H257657   5.015   4.443   2.485 -0.1784  1.6009 -2.0237
12056TIP3   OH257658   3.599   6.683   5.525  0.8308  0.4718 -0.2397
12056TIP3    H157659   3.559   6.760   5.485  0.5369  0.1325 -0.6082
12056TIP3    H257660   3.560   6.609   5.478 -0.2785  0.0071  1.2981
12057TIP3   OH257661   4.571   5.364   3.740  0.4406  0.2637 -0.3187
12057TIP3    H157662   4.487   5.373   3.785  0.4450 -0.8078 -0.0627
12057TIP3    H257663   4.548   5.353   3.648  0.3555  0.9147 -0.3799
12058TIP3   OH257664   1.644   4.436   2.530  0.0436  0.0228  0.1603
12058TIP3    H157665   1.661   4.347   2.500  0.2240 -0.4061  1.4638
12058TIP3    H257666   1.598   4.478   2.457  0.7919 -0.8447 -0.8255
12059TIP3   OH257667   2.854   2.182  15.048  0.1377 -0.0771 -0.1890
12059TIP3    H157668   2.778   2.161  14.994 -1.3398 -1.1941  2.1446
12059TIP3    H257669   2.888   2.097  15.077 -0.2627  0.4595  2.0486
12060TIP3   OH257670   4.870   3.698   1.915  0.8396 -0.0904 -0.2728
12060TIP3    H157671   4.884   3.614   1.959  1.3241  0.7182  1.1932
12060TIP3    H257672   4.851   3.675   1.824 -0.9199 -1.8676  0.4925
12061TIP3   OH257673   0.604   4.414  13.195  0.3863 -0.2067  0.7062
12061TIP3    H157674   0.695   4.413  13.165  1.4892 -1.6341  3.6916
12061TIP3    H257675   0.588   4.324  13.223 -1.8707  0.1016  0.5482
12062TIP3   OH257676   0.052   4.229  17.090  0.3168  0.3613  0.4235
12062TIP3    H157677  -0.030   4.273  17.067  0.4835  0.4554 -0.0052
12062TIP3    H257678   0.118   4.268  17.032  0.9493  1.2941  1.7109
12063TIP3   OH257679   6.819   1.452   4.841 -0.0064 -0.9350 -0.0322
12063TIP3    H157680   6.837   1.440   4.934 -0.0583  2.6433  0.5730
12063TIP3    H257681   6.814   1.547   4.829  0.3276 -1.2203 -3.7693
12064TIP3   OH257682   1.416   1.338  16.768 -0.9331  0.2844 -1.2475
12064TIP3    H157683   1.364   1.417  16.756 -1.0159  0.1649 -1.7022
12064TIP3    H257684   1.366   1.285  16.830  0.4618  1.7740  1.2913
12065TIP3   OH257685   0.308   0.728  16.608 -0.1988  0.0652 -0.0868
12065TIP3    H157686   0.402   0.711  16.607 -0.2095 -0.7191  2.8685
12065TIP3    H257687   0.278   0.700  16.522  2.0428 -1.0869 -0.5791
12066TIP3   OH257688   5.152   0.599  14.250 -0.6487  0.4002 -0.0244
12066TIP3    H157689   5.097   0.533  14.293 -0.9193 -0.2215 -1.2849
12066TIP3    H257690   5.091   0.650  14.197 -0.5827  2.3008  1.6249
12067TIP3   OH257691   4.584   2.486  15.751 -0.1911 -0.5865 -0.2041
12067TIP3    H157692   4.599   2.392  15.759 -0.9342 -0.8352 -1.4065
12067TIP3    H257693   4.517   2.493  15.682 -1.3207  0.7284  0.9641
12068TIP3   OH257694   1.532   3.968   1.866  0.5099  0.0787 -0.3412
12068TIP3    H157695   1.444   3.972   1.828  0.6789 -1.1774 -0.9222
12068TIP3    H257696   1.574   4.049   1.838 -0.1119  0.1901 -0.9902
12069TIP3   OH257697   4.250   2.659   3.335  0.2357 -0.4970  0.1019
12069TIP3    H157698   4.297   2.595   3.389 -0.4071 -1.9494 -1.0085
12069TIP3    H257699   4.178   2.610   3.295 -0.1193  0.8536 -1.0244
12070TIP3   OH257700   5.895   4.767   3.747  0.1319 -0.7165 -0.6528
12070TIP3    H157701   5.811   4.756   3.792  0.1415  0.0684 -0.4350
12070TIP3    H257702   5.935   4.843   3.790  1.2976 -1.5477 -0.2212
12071TIP3   OH257703   5.861   1.841   1.483  0.0836 -0.6915  0.5243
12071TIP3    H157704   5.787   1.883   1.439 -1.2329 -1.3661  1.9720
12071TIP3    H257705   5.909   1.797   1.414  0.1942  1.2363 -0.7124
12072TIP3   OH257706   4.182   4.783   0.705  0.1477  0.1202  0.4086
12072TIP3    H157707   4.147   4.713   0.651  2.2363  1.0690 -2.3960
12072TIP3    H257708   4.267   4.751   0.735 -0.2797  0.2529  1.8657
12073TIP3   OH257709   0.972   1.196  15.209  0.2612  0.1418 -0.0017
12073TIP3    H157710   1.065   1.176  15.197  0.2425 -2.4338  2.9216
12073TIP3    H257711   0.929   1.158  15.133  1.3833 -0.7437 -0.2203
12074TIP3   OH257712   0.331   6.498  14.621  0.2357 -0.2509  0.3151
12074TIP3    H157713   0.280   6.440  14.564 -0.1163 -0.1067  0.4805
12074TIP3    H257714   0.369   6.563  14.561 -0.1608 -0.0814  0.2457
12075TIP3   OH257715   3.089   2.731   5.950  0.2461  0.3614  0.1780
12075TIP3    H157716   3.079   2.755   6.042  1.1863  1.6415 -0.0252
12075TIP3    H257717   3.020   2.780   5.904 -0.9183 -1.1100  0.2990
12076TIP3   OH257718   4.769   5.208   1.182 -0.0614 -0.0631 -0.2303
12076TIP3    H157719   4.778   5.195   1.276 -0.4915 -0.3442 -0.2250
12076TIP3    H257720   4.681   5.176   1.161  0.3186 -0.7633 -0.8522
12077TIP3   OH257721   2.950   1.448  14.606  0.6656 -0.6172 -0.0675
12077TIP3    H157722   2.912   1.361  14.605 -0.0510 -0.3196 -2.0808
12077TIP3    H257723   2.939   1.478  14.696  0.4086 -2.3594  0.5111
12078TIP3   OH257724   0.549   0.385  16.791 -0.1468  0.3322  0.3289
12078TIP3    H157725   0.641   0.363  16.799 -0.0966  0.8196  1.2190
12078TIP3    H257726   0.508   0.307  16.754  0.8112  0.5635 -1.3073
12079TIP3   OH257727   2.701   6.295   6.494  0.4578 -0.6197  0.3144
12079TIP3    H157728   2.718   6.219   6.439 -0.3917 -1.1529  0.7775
12079TIP3    H257729   2.614   6.325   6.468  1.3978  1.1946 -1.0065
12080TIP3   OH257730   2.596   2.085  11.629  0.0090  0.5088 -0.0527
12080TIP3    H157731   2.541   2.043  11.563 -0.3568  1.1727 -0.1795
12080TIP3    H257732   2.536   2.109  11.699  0.4646 -0.5589  0.7143
12081TIP3   OH257733   5.551   2.882  15.946 -0.1216 -0.9012 -0.0024
12081TIP3    H157734   5.553   2.894  15.851  0.9939 -0.2529  0.0845
12081TIP3    H257735   5.642   2.862  15.969 -0.4513 -1.4446  0.8914
12082TIP3   OH257736   5.967   6.284  11.708 -0.1083 -0.0585 -0.5595
12082TIP3    H157737   5.914   6.343  11.655  2.5072  2.1149 -0.9547
12082TIP3    H257738   6.037   6.255  11.650  1.5293  0.5712  0.9948
12083TIP3   OH257739   0.998   4.874   4.855 -0.3315 -0.2353 -0.1980
12083TIP3    H157740   0.930   4.823   4.900  1.5391 -0.4459  2.6927
12083TIP3    H257741   1.078   4.823   4.868  0.9539  1.6108 -0.5355
12084TIP3   OH257742   1.764   5.928  13.432  0.5120  0.1441 -0.0896
12084TIP3    H157743   1.747   5.850  13.485  0.2294 -0.4137 -0.9938
12084TIP3    H257744   1.676   5.962  13.412  0.4986 -0.9346 -2.0862
12085TIP3   OH257745   5.666   2.116   4.451 -0.4440 -0.6434  0.6148
12085TIP3    H157746   5.610   2.187   4.483 -0.0130  0.7671 -1.5465
12085TIP3    H257747   5.613   2.072   4.384  0.2946 -0.5460 -0.0462
12086TIP3   OH257748   0.448   6.814   4.482 -0.2427  0.5442 -0.4563
12086TIP3    H157749   0.421   6.760   4.408 -0.2358 -0.9177  0.5704
12086TIP3    H257750   0.543   6.799   4.489 -0.6829 -1.7477  1.6553
12087TIP3   OH257751   2.819   1.577  16.062  0.3569  0.6920 -0.4129
12087TIP3    H157752   2.836   1.498  16.112 -0.2742  0.7149 -0.1603
12087TIP3    H257753   2.906   1.616  16.048  0.9267 -1.0866 -2.3121
12088TIP3   OH257754   2.157   4.357  11.597 -0.0035  0.4268  0.1910
12088TIP3    H157755   2.076   4.315  11.570  0.8090 -0.1649 -1.4251
12088TIP3    H257756   2.158   4.348  11.693 -0.9250 -1.2378  0.0725
12089TIP3   OH257757   6.666   4.934  15.963  0.1348  0.0107  0.1214
12089TIP3    H157758   6.662   4.839  15.950  0.4998  0.2145 -1.8533
12089TIP3    H257759   6.754   4.958  15.935  0.4497  0.8190  1.7077
12090TIP3   OH257760   0.088   0.341  11.667 -0.2243 -0.0581 -0.2007
12090TIP3    H157761   0.049   0.319  11.582 -0.6269 -0.2394  0.0281
12090TIP3    H257762   0.045   0.283  11.729 -0.7243  0.8178  0.2961
12091TIP3   OH257763   2.803   3.788  13.784  0.5715  0.2414  0.3265
12091TIP3    H157764   2.787   3.841  13.705  0.8751 -0.3078 -0.1081
12091TIP3    H257765   2.783   3.848  13.856  0.1526  0.7120 -0.1618
12092TIP3   OH257766   6.559   5.469   4.041  0.0692 -0.0581 -0.0968
12092TIP3    H157767   6.464   5.478   4.036  0.2603  1.6762 -1.5601
12092TIP3    H257768   6.575   5.435   4.129 -1.9967 -2.5400 -0.5419
12093TIP3   OH257769   5.710   0.960   1.682  0.0809 -0.4808 -0.2940
12093TIP3    H157770   5.636   1.000   1.728 -0.8815  0.3575 -2.4419
12093TIP3    H257771   5.786   1.013   1.707 -0.9748  2.1411 -2.1953
12094TIP3   OH257772   3.277   5.264   3.314  0.0818  0.1041  0.3339
12094TIP3    H157773   3.298   5.351   3.281  0.7205  1.3330  3.5487
12094TIP3    H257774   3.210   5.279   3.381  0.2132 -1.8534  0.9775
12095TIP3   OH257775   3.932   1.210  17.111 -0.1616 -0.5012  0.2110
12095TIP3    H157776   3.888   1.151  17.049 -0.8575  0.3840 -0.1541
12095TIP3    H257777   4.019   1.172  17.122 -0.2920 -1.1045 -0.7036
12096TIP3   OH257778   6.304   0.422   4.055  0.4273 -0.1232  0.4468
12096TIP3    H157779   6.351   0.445   4.135  1.6189 -0.1027 -0.2370
12096TIP3    H257780   6.252   0.499   4.034  0.6641  0.1411  0.8205
12097TIP3   OH257781   3.341   0.813   0.438 -0.4846  0.1233 -0.3337
12097TIP3    H157782   3.416   0.866   0.466  0.4298 -1.8124  1.1230
12097TIP3    H257783   3.310   0.856   0.359  2.4329  0.7856 -1.2644
12098TIP3   OH257784   2.952   3.741   4.798 -0.5421  0.1104 -0.1591
12098TIP3    H157785   2.888   3.813   4.791 -0.0119  0.6740  0.6279
12098TIP3    H257786   2.991   3.735   4.711  0.3468  1.6815  0.0852
12099TIP3   OH257787   4.659   4.827   5.838 -0.0313  0.6942 -0.5109
12099TIP3    H157788   4.636   4.734   5.843  0.5679  0.5804  0.3675
12099TIP3    H257789   4.752   4.830   5.863  0.1789  1.4406 -1.3363
12100TIP3   OH257790   1.268   2.832  14.353 -0.9287  0.2299 -0.0425
12100TIP3    H157791   1.189   2.864  14.396 -1.6682 -0.1990 -1.0432
12100TIP3    H257792   1.240   2.812  14.263  0.3614  0.2682 -0.4753
12101TIP3   OH257793   0.284   1.315   2.964 -0.2657  0.6301  0.1703
12101TIP3    H157794   0.265   1.235   2.915  0.5899  0.1453  0.5926
12101TIP3    H257795   0.367   1.296   3.008 -0.5540  1.3889  1.0694
12102TIP3   OH257796   3.542   4.642  13.345 -0.4081  0.7675 -0.3261
12102TIP3    H157797   3.565   4.566  13.399  0.9302  0.5145 -1.2067
12102TIP3    H257798   3.502   4.703  13.406 -1.4777 -0.6080  0.4222
12103TIP3   OH257799   5.439   4.150   5.952  0.3010 -0.2129 -0.6163
12103TIP3    H157800   5.449   4.127   6.044 -2.6966 -0.9389 -0.3747
12103TIP3    H257801   5.426   4.245   5.951 -0.8719 -0.3621 -0.1434
12104TIP3   OH257802   0.505   0.620  16.349  0.1069  0.3103  0.0592
12104TIP3    H157803   0.565   0.598  16.420  0.1141  1.7830  0.5501
12104TIP3    H257804   0.473   0.707  16.371 -4.2548 -1.3424  1.2295
12105TIP3   OH257805   4.926   3.537   4.647 -0.7206  0.2606 -0.1436
12105TIP3    H157806   4.886   3.604   4.703 -0.6176  1.0473 -0.9804
12105TIP3    H257807   5.019   3.558   4.647 -0.5187 -0.5750  0.4778
12106TIP3   OH257808   6.501   1.365   4.665 -0.2453 -0.1166  0.1644
12106TIP3    H157809   6.558   1.289   4.653 -0.4892 -0.0807 -1.5515
12106TIP3    H257810   6.550   1.437   4.627 -1.7115 -0.2418 -2.1448
12107TIP3   OH257811   2.701   2.808  17.069  0.1718  0.5332 -0.6547
12107TIP3    H157812   2.760   2.837  17.138 -0.9377  1.1924  0.0540
12107TIP3    H257813   2.683   2.716  17.089  1.0811  0.2715 -0.9869
12108TIP3   OH257814   1.634   4.453   0.408 -0.1614 -0.5100  0.0383
12108TIP3    H157815   1.615   4.546   0.393  1.2050 -0.4879 -1.9506
12108TIP3    H257816   1.552   4.409   0.386 -0.5626  0.1665  0.1353
12109TIP3   OH257817   1.777   3.324  11.246 -0.2415 -0.1435  0.9508
12109TIP3    H157818   1.708   3.270  11.285  0.9511 -2.2771  0.2971
12109TIP3    H257819   1.741   3.412  11.244 -1.9028 -0.6892  3.0874
12110TIP3   OH257820   2.741   1.165  16.437  0.1478 -0.2767  0.1742
12110TIP3    H157821   2.696   1.132  16.359  0.1181  2.2239 -0.9674
12110TIP3    H257822   2.678   1.226  16.476  0.8135 -0.2360  1.2072
12111TIP3   OH257823   1.142   5.555   0.332  0.4235  0.3141 -0.2821
12111TIP3    H157824   1.105   5.640   0.357 -1.7334 -0.2921 -1.1723
12111TIP3    H257825   1.111   5.540   0.243  3.1672 -0.1475 -1.2315
12112TIP3   OH257826   1.558   3.343   3.828  0.3906 -0.5511  0.8025
12112TIP3    H157827   1.566   3.378   3.917  1.1976  0.3209  0.4031
12112TIP3    H257828   1.470   3.306   3.825  0.3070 -0.4866  1.9282
12113TIP3   OH257829   5.853   6.512   3.438  0.8869 -0.2423 -0.2556
12113TIP3    H157830   5.926   6.507   3.500  0.9399  0.9570 -0.1966
12113TIP3    H257831   5.893   6.525   3.353  0.7558  0.1554 -0.2592
12114TIP3   OH257832   2.515   2.782  15.210 -0.1288  0.1287 -0.1762
12114TIP3    H157833   2.499   2.701  15.163 -0.8698  0.4832 -0.5635
12114TIP3    H257834   2.604   2.774  15.244  0.6183  0.0772 -2.0558
12115TIP3   OH257835   4.894   5.441   2.929 -0.1115  0.1250  0.1355
12115TIP3    H157836   4.823   5.474   2.873 -0.7193 -1.9831 -0.4161
12115TIP3    H257837   4.968   5.500   2.910 -1.4959  1.9819  0.2564
12116TIP3   OH257838   1.723   1.013  11.649 -0.2080 -0.2202  0.0819
12116TIP3    H157839   1.776   1.085  11.614  0.5230 -1.2122 -0.9154
12116TIP3    H257840   1.633   1.046  11.646 -0.0376  0.1638 -1.6714
12117TIP3   OH257841   4.088   4.360   4.201 -0.3534  0.0991 -0.3747
12117TIP3    H157842   4.074   4.369   4.295  1.4443 -0.9401  0.0321
12117TIP3    H257843   4.134   4.440   4.176  0.4038 -0.2453 -0.0942
12118TIP3   OH257844   3.853   5.759  13.803 -0.2796  0.5303 -0.3285
12118TIP3    H157845   3.930   5.763  13.859 -0.3985 -0.6454 -0.0623
12118TIP3    H257846   3.816   5.848  13.806 -0.0826  0.5817  1.1494
12119TIP3   OH257847   3.109   5.219   0.646 -0.1205  0.3195  0.6402
12119TIP3    H157848   3.163   5.252   0.575 -0.9487 -1.9759 -1.2127
12119TIP3    H257849   3.019   5.227   0.613 -0.4425 -2.0574  0.7677
12120TIP3   OH257850   4.609   4.440   4.011  0.1926  0.6816 -0.1576
12120TIP3    H157851   4.695   4.428   3.972  0.9593  2.7336  0.7310
12120TIP3    H257852   4.562   4.359   3.993  2.6687 -0.9398  0.2404
12121TIP3   OH257853   6.217   1.093   5.132 -0.2589  0.0915 -0.0713
12121TIP3    H157854   6.126   1.097   5.159 -0.0503  1.9077  0.4563
12121TIP3    H257855   6.221   1.017   5.074 -2.6024  1.2345 -1.8888
12122TIP3   OH257856   3.813   4.346  13.947  0.1262 -0.0348 -0.0457
12122TIP3    H157857   3.836   4.366  13.856  0.0285  1.2417  0.1971
12122TIP3    H257858   3.865   4.269  13.968 -0.3514 -0.7754 -1.3867
12123TIP3   OH257859   0.877   0.755   1.188  0.6213  0.1729 -1.0248
12123TIP3    H157860   0.791   0.791   1.166  0.8570  0.3017 -1.7683
12123TIP3    H257861   0.939   0.814   1.145  1.1134  0.4589  0.0411
12124TIP3   OH257862   2.146   2.808   5.390 -0.8425  0.4234  0.1922
12124TIP3    H157863   2.217   2.753   5.356  0.4357  2.3184 -0.3658
12124TIP3    H257864   2.103   2.753   5.456  0.2232 -1.3013 -0.4843
12125TIP3   OH257865   0.280   0.148   2.483 -0.3151  1.0678 -0.0036
12125TIP3    H157866   0.295   0.236   2.448  0.3585  1.4366  1.1563
12125TIP3    H257867   0.346   0.138   2.551 -1.1837  0.1417  0.7382
12126TIP3   OH257868   6.183   0.510  15.743  0.3009 -0.3197  0.6030
12126TIP3    H157869   6.143   0.533  15.659 -0.9154  2.2176  1.7926
12126TIP3    H257870   6.109   0.494  15.801  0.9802  1.6045  2.0975
12127TIP3   OH257871   4.709   6.510  11.216 -0.7177 -0.1920  0.3551
12127TIP3    H157872   4.761   6.457  11.276  1.3534 -0.1896 -1.3345
12127TIP3    H257873   4.756   6.593  11.209 -0.7008 -0.3113 -1.4793
12128TIP3   OH257874   3.985   0.154   2.944  0.0135 -0.6760  0.2012
12128TIP3    H157875   4.040   0.185   3.016 -2.3150 -1.6236  2.5335
12128TIP3    H257876   3.988   0.225   2.879  3.3160 -0.4064  0.4689
12129TIP3   OH257877   3.828   6.690   5.324  0.1865 -0.1421  0.2211
12129TIP3    H157878   3.791   6.682   5.412 -1.2659 -1.5064 -0.4651
12129TIP3    H257879   3.888   6.616   5.316  0.3783  0.0256  0.0739
12130TIP3   OH257880   0.985   1.855   3.262  0.3140 -0.0563  0.6968
12130TIP3    H157881   0.891   1.872   3.265  0.4456  0.9319 -0.3403
12130TIP3    H257882   0.995   1.789   3.194  0.4454  0.3959  0.2754
12131TIP3   OH257883   6.760   0.561   5.038 -0.2438  0.1949  0.6954
12131TIP3    H157884   6.825   0.625   5.068  0.3614 -0.1892  0.2290
12131TIP3    H257885   6.781   0.481   5.087  1.4274 -0.7627 -1.4028
12132TIP3   OH257886   3.371   1.459   3.194 -0.3613  0.7344  0.0748
12132TIP3    H157887   3.412   1.494   3.116  1.0268 -0.8578  0.0309
12132TIP3    H257888   3.442   1.454   3.258 -0.4173 -1.9953  0.0336
12133TIP3   OH257889   4.385   4.009  14.195  0.2580  0.3061  0.3274
12133TIP3    H157890   4.380   4.056  14.279  0.2682 -0.2811  0.6602
12133TIP3    H257891   4.382   4.078  14.129  0.1372  0.7685  0.8095
12134TIP3   OH257892   3.051   4.434  15.500 -0.6452 -0.6268  0.3141
12134TIP3    H157893   3.138   4.406  15.525 -1.1819 -2.2045  0.4872
12134TIP3    H257894   3.032   4.509  15.557 -0.4258 -1.8975  2.1486
12135TIP3   OH257895   6.538   2.926   0.553  0.1944 -0.1977 -0.1932
12135TIP3    H157896   6.452   2.914   0.593  0.4362  3.3553  1.7953
12135TIP3    H257897   6.518   2.941   0.460 -1.3844  0.5910  0.2290
12136TIP3   OH257898   5.528   4.721  14.904  0.3102 -0.0184  0.0671
12136TIP3    H157899   5.568   4.781  14.841  2.2140 -2.0340 -0.7294
12136TIP3    H257900   5.524   4.772  14.986 -0.2228  1.9091 -1.0797
12137TIP3   OH257901   6.155   4.030   4.236 -0.5829  0.1501 -0.2603
12137TIP3    H157902   6.119   4.080   4.310 -1.0346 -1.4071  0.6126
12137TIP3    H257903   6.233   4.078   4.210 -0.4772  0.7920  1.1689
12138TIP3   OH257904   0.220   4.154   3.229 -0.5681 -0.0471  0.1791
12138TIP3    H157905   0.226   4.100   3.151 -1.5180 -0.8352  0.6279
12138TIP3    H257906   0.166   4.102   3.290 -1.0165  1.1473  0.8319
12139TIP3   OH257907   4.177   3.259  15.351  0.5957 -0.0118 -0.1814
12139TIP3    H157908   4.226   3.338  15.375 -0.9986  1.1578 -0.6064
12139TIP3    H257909   4.091   3.271  15.391  0.4678 -1.7903  0.1420
12140TIP3   OH257910   4.289   6.364  13.745  0.5692 -0.7495  0.5061
12140TIP3    H157911   4.344   6.377  13.668  0.1494  0.3104  0.3633
12140TIP3    H257912   4.231   6.292  13.721  0.3059 -0.2961 -0.2515
12141TIP3   OH257913   4.209   0.779   0.859 -0.2402  0.0752  0.1074
12141TIP3    H157914   4.158   0.707   0.898  1.4797 -1.6587 -0.7023
12141TIP3    H257915   4.296   0.742   0.846  0.7041  2.3455 -0.3581
12142TIP3   OH257916   5.117   2.943  15.364  0.1295 -0.2180  0.3125
12142TIP3    H157917   5.112   2.907  15.275  0.0332 -2.5520  1.2195
12142TIP3    H257918   5.038   2.996  15.372 -0.1697 -0.4627 -0.7763
12143TIP3   OH257919   6.264   0.252   6.128  0.0728 -0.0749  0.2378
12143TIP3    H157920   6.236   0.213   6.211 -0.1990  1.1960  0.7683
12143TIP3    H257921   6.346   0.208   6.107  0.1576 -0.3917  1.2011
12144TIP3   OH257922   1.014   0.421  14.351 -0.3440  0.6734  0.2293
12144TIP3    H157923   0.974   0.383  14.430 -0.5927 -0.5346 -0.4522
12144TIP3    H257924   1.026   0.346  14.292  0.7210  1.4056 -0.5152
12145TIP3   OH257925   4.086   2.682   2.215  0.7677 -0.3187 -0.0992
12145TIP3    H157926   4.141   2.659   2.290  0.9366 -1.9172 -0.6853
12145TIP3    H257927   4.066   2.599   2.174  0.6965  0.5328 -1.8605
12146TIP3   OH257928   1.329   3.687  15.036 -0.4231  0.1422  0.4278
12146TIP3    H157929   1.250   3.687  14.982 -0.0237 -2.0427 -0.2608
12146TIP3    H257930   1.384   3.756  14.998 -1.3215  0.5606 -0.1372
12147TIP3   OH257931   5.699   1.339   2.205 -0.3098 -0.4506 -0.2213
12147TIP3    H157932   5.777   1.288   2.184 -1.1157 -1.4113 -1.0099
12147TIP3    H257933   5.708   1.361   2.297  0.6934 -0.8957 -0.2035
12148TIP3   OH257934   5.564   1.907  12.811 -0.4351  0.7867  0.1904
12148TIP3    H157935   5.644   1.853  12.811 -1.0465 -0.1651  1.3793
12148TIP3    H257936   5.582   1.976  12.874 -0.0627  1.3549 -0.5276
12149TIP3   OH257937   4.243   0.208  15.459  0.8058  0.7513 -0.0344
12149TIP3    H157938   4.310   0.206  15.391  0.4819  0.6666 -0.3523
12149TIP3    H257939   4.252   0.124  15.504 -0.1506  0.0540 -1.1158
12150TIP3   OH257940   0.882   2.353  11.508 -0.3506 -0.2675  0.0860
12150TIP3    H157941   0.893   2.413  11.582  2.4283  0.4168 -0.7388
12150TIP3    H257942   0.809   2.297  11.533 -1.4657  1.8443  1.9928
12151TIP3   OH257943   4.318   0.328  14.633  0.0713  0.1109  0.6247
12151TIP3    H157944   4.291   0.293  14.717 -0.8856  0.0409  0.2949
12151TIP3    H257945   4.242   0.376  14.600  0.4280  0.1479 -0.1955
12152TIP3   OH257946   4.039   1.339  14.119  0.2060  0.0113  0.0737
12152TIP3    H157947   3.976   1.270  14.139  1.2416 -0.7367  0.8339
12152TIP3    H257948   4.046   1.389  14.201  1.3814 -0.5651  0.3435
12153TIP3   OH257949   0.024   4.786   0.687 -0.2087  0.2053 -0.1327
12153TIP3    H157950  -0.054   4.776   0.632  0.5284 -0.1528 -1.1461
12153TIP3    H257951   0.089   4.730   0.647  0.5387  0.3757  0.7946
12154TIP3   OH257952   5.685   6.045   2.959  0.2379 -0.2465  0.2397
12154TIP3    H157953   5.609   6.038   3.017 -0.2059 -0.5361 -0.3600
12154TIP3    H257954   5.726   5.958   2.963  0.1959 -0.2729  0.1139
12155TIP3   OH257955   1.092   6.279  11.655 -0.0952  0.9906  0.2532
12155TIP3    H157956   1.051   6.278  11.742  0.1407  1.2812  0.3693
12155TIP3    H257957   1.061   6.360  11.615 -0.3423  0.7736 -0.0063
12156TIP3   OH257958   3.594   1.208   2.034  0.5845 -0.3211  0.5334
12156TIP3    H157959   3.639   1.151   2.096  1.1257  1.0454  1.4469
12156TIP3    H257960   3.553   1.275   2.088 -0.9619 -0.4535 -0.4335
12157TIP3   OH257961   4.418   4.191  14.403 -0.5523  0.1825  0.0302
12157TIP3    H157962   4.444   4.209  14.493 -0.4370 -0.0202  0.0368
12157TIP3    H257963   4.438   4.271  14.355  2.1420 -0.6746 -0.4132
12158TIP3   OH257964   0.314   2.730   6.352  0.9331  0.0710  0.1490
12158TIP3    H157965   0.229   2.686   6.362  0.4103  1.0726  0.2254
12158TIP3    H257966   0.293   2.812   6.308  1.5923  1.2042  1.8799
12159TIP3   OH257967   1.887   2.650   6.116  0.9051 -0.4120 -0.6480
12159TIP3    H157968   1.963   2.681   6.068 -0.1248 -0.5271 -2.4176
12159TIP3    H257969   1.910   2.664   6.208  2.8463 -0.0007 -1.1482
12160TIP3   OH257970   2.217   0.768  16.428  0.0204 -0.0291 -0.3854
12160TIP3    H157971   2.128   0.743  16.453  0.3216 -1.9973 -1.0699
12160TIP3    H257972   2.266   0.686  16.434  1.1729  0.4393 -2.6698
12161TIP3   OH257973   4.272   0.271  11.563 -0.3362 -0.1166  1.0463
12161TIP3    H157974   4.280   0.362  11.536 -1.0890 -0.7303 -1.5141
12161TIP3    H257975   4.213   0.273  11.638 -1.4869  1.3821  0.1594
12162TIP3   OH257976   1.517   3.225   2.432 -0.2165  0.2725  0.1943
12162TIP3    H157977   1.562   3.307   2.455 -0.0523  0.1437  0.3320
12162TIP3    H257978   1.424   3.245   2.446 -0.1911  0.4887  0.0638
12163TIP3   OH257979   0.805   3.813  12.333  0.1982  0.6255 -0.3308
12163TIP3    H157980   0.786   3.822  12.426 -0.8848 -2.2689 -0.2041
12163TIP3    H257981   0.721   3.828  12.289  0.4380  0.6945 -0.7753
12164TIP3   OH257982   0.972   0.885  11.414  0.5139  0.3420 -0.5766
12164TIP3    H157983   1.061   0.890  11.379  0.5233  0.5324 -0.5260
12164TIP3    H257984   0.923   0.951  11.365  0.1157 -0.5473 -1.4244
12165TIP3   OH257985   1.373   2.416  13.177  0.4663 -0.4194 -0.0376
12165TIP3    H157986   1.410   2.335  13.140  0.0060  0.2043 -1.9993
12165TIP3    H257987   1.383   2.480  13.106 -0.1282  0.9720  1.1093
12166TIP3   OH257988   4.008   4.410   2.384  0.1429 -0.5413  0.6430
12166TIP3    H157989   4.014   4.317   2.406 -0.1275 -0.7052  0.0562
12166TIP3    H257990   3.915   4.426   2.372 -0.1398  0.5098  3.5566
12167TIP3   OH257991   5.634   1.860   2.833  0.1791  0.2486 -0.8579
12167TIP3    H157992   5.549   1.818   2.839  0.1500  0.3264 -0.7089
12167TIP3    H257993   5.653   1.888   2.923  0.5445 -0.1331 -0.8123
12168TIP3   OH257994   1.987   5.598   2.740 -0.2005 -0.1437 -0.2902
12168TIP3    H157995   2.081   5.579   2.745 -0.0140  0.4274 -1.2961
12168TIP3    H257996   1.973   5.622   2.648 -1.7406 -2.2584 -0.6614
12169TIP3   OH257997   3.057   2.519  11.113  0.0557  0.5540  0.4010
12169TIP3    H157998   2.983   2.510  11.174 -1.5031  1.6233 -1.1989
12169TIP3    H257999   3.076   2.613  11.114  0.5843  0.4546 -0.1335
12170TIP3   OH258000   2.085   5.189  15.620 -0.3845  0.3957  0.2062
12170TIP3    H158001   2.012   5.232  15.666 -1.2611 -2.1662  1.4182
12170TIP3    H258002   2.092   5.235  15.537 -2.8253  1.2882  0.4239
12171TIP3   OH258003   6.638   3.227   0.054 -0.3054  0.1725 -0.4458
12171TIP3    H158004   6.579   3.293   0.091  0.7721  0.7616  0.2506
12171TIP3    H258005   6.588   3.189  -0.019 -0.4483  2.6965 -1.7658
12172TIP3   OH258006   1.017   5.784   0.416 -0.5779 -0.5329  0.0672
12172TIP3    H158007   0.957   5.763   0.488 -1.2074  2.2810  0.5008
12172TIP3    H258008   1.069   5.857   0.450 -1.3779  1.3699 -2.5351
12173TIP3   OH258009   2.156   1.858   6.058  0.2452 -0.4690 -0.2820
12173TIP3    H158010   2.194   1.934   6.015  1.2419 -1.3995 -1.1225
12173TIP3    H258011   2.063   1.879   6.068  0.7477  1.4314  0.8393
12174TIP3   OH258012   6.645   3.826   6.416 -0.1363 -0.1260  0.4873
12174TIP3    H158013   6.606   3.882   6.348 -1.3889  1.0901  2.1219
12174TIP3    H258014   6.736   3.856   6.421  0.2013 -0.7575 -1.1330
12175TIP3   OH258015   5.611   6.291   4.229 -0.4541  0.2979  0.1758
12175TIP3    H158016   5.561   6.356   4.279 -0.3412 -0.7065  1.6817
12175TIP3    H258017   5.673   6.255   4.293 -1.4756 -2.2965 -0.2020
12176TIP3   OH258018   3.521   0.501   3.279 -0.1590 -0.2604 -0.4594
12176TIP3    H158019   3.548   0.411   3.262  0.4965 -0.0260 -0.7029
12176TIP3    H258020   3.445   0.514   3.222  0.3477 -0.3545 -1.1730
12177TIP3   OH258021   5.442   3.545   5.454 -0.0007 -0.1638  0.5495
12177TIP3    H158022   5.484   3.625   5.422 -0.6548 -0.0665 -0.1018
12177TIP3    H258023   5.462   3.544   5.548 -0.5814  1.1684  0.7223
12178TIP3   OH258024   5.173   5.336   0.860  0.0461  0.5296 -0.5215
12178TIP3    H158025   5.252   5.390   0.862  0.1968  0.2845  0.4009
12178TIP3    H258026   5.126   5.359   0.940 -1.1960  1.2001 -1.3991
12179TIP3   OH258027   5.005   1.922  16.475 -0.1396 -0.3439  0.0956
12179TIP3    H158028   5.040   1.969  16.399  0.7724  1.1461  1.3884
12179TIP3    H258029   5.009   1.830  16.450  1.5738  0.0110 -1.0883
12180TIP3   OH258030   1.505   0.709  15.831 -0.2482  0.1674 -0.1417
12180TIP3    H158031   1.499   0.753  15.746 -3.0055  1.0260  0.4041
12180TIP3    H258032   1.461   0.626  15.818 -1.3336  0.6073  0.5887
12181TIP3   OH258033   6.195   4.972   3.257  0.2517  0.2841 -0.2064
12181TIP3    H158034   6.197   4.896   3.198  0.7273  0.6021 -0.5976
12181TIP3    H258035   6.106   4.971   3.292  0.3465 -0.6580  0.0558
12182TIP3   OH258036   4.703   1.158   0.039 -0.0018 -0.5268  0.1992
12182TIP3    H158037   4.633   1.112  -0.008 -0.1403 -0.6230  0.4989
12182TIP3    H258038   4.681   1.251   0.030  0.6205 -0.4620 -0.9535
12183TIP3   OH258039   5.995   5.236   6.767 -0.3546 -0.0710  0.4670
12183TIP3    H158040   5.914   5.258   6.813  0.2687  2.0871  0.6433
12183TIP3    H258041   5.968   5.172   6.702 -2.3793  1.1158  0.0342
12184TIP3   OH258042   4.085   2.107  16.409  0.1295 -0.3007  0.2357
12184TIP3    H158043   4.171   2.147  16.425 -0.1791  0.9482 -0.9934
12184TIP3    H258044   4.087   2.025  16.459  1.7632  0.0361  0.7972
12185TIP3   OH258045   5.132   1.590  16.663 -0.0278 -0.3352 -0.3595
12185TIP3    H158046   5.121   1.506  16.618 -0.9567  0.1152 -0.9987
12185TIP3    H258047   5.068   1.648  16.622  0.9576  0.8373 -0.2828
12186TIP3   OH258048   6.272   1.524   4.688  0.4503  0.1010  0.1040
12186TIP3    H158049   6.347   1.467   4.670 -0.7295 -1.4229 -0.1346
12186TIP3    H258050   6.284   1.553   4.778  1.1340 -0.4289  0.1881
12187TIP3   OH258051   1.058   2.326  11.165 -0.0336  0.4976 -0.4745
12187TIP3    H158052   1.152   2.328  11.147 -0.2934  0.6465 -1.9198
12187TIP3    H258053   1.018   2.367  11.089 -1.3458 -0.4911 -0.3513
12188TIP3   OH258054   1.124   5.116  13.414 -0.0292 -0.0929  0.2115
12188TIP3    H158055   1.030   5.108  13.398 -0.0928  0.5117  0.2528
12188TIP3    H258056   1.165   5.080  13.336 -0.2533 -2.2845  1.0373
12189TIP3   OH258057   0.780   2.226   6.568  0.0276  0.0168  1.0250
12189TIP3    H158058   0.778   2.209   6.474  1.2049  0.7787  0.8378
12189TIP3    H258059   0.706   2.177   6.603  1.9245 -3.7390  0.2841
12190TIP3   OH258060   1.637   5.097  15.239  0.1053 -0.2649  0.3795
12190TIP3    H158061   1.584   5.177  15.235 -0.3644 -0.5720  0.3924
12190TIP3    H258062   1.679   5.100  15.325  0.5100  0.2281  0.1696
12191TIP3   OH258063   0.142   1.772  13.574 -0.2693  1.0061 -0.2688
12191TIP3    H158064   0.188   1.783  13.490  1.1502 -0.6294  0.2323
12191TIP3    H258065   0.203   1.806  13.639 -1.2013  1.8948  0.1682
12192TIP3   OH258066   1.630   5.117   2.630 -0.4606  0.1598  0.7296
12192TIP3    H158067   1.616   5.044   2.691  0.0800 -0.8029 -0.2635
12192TIP3    H258068   1.710   5.158   2.660 -1.1067  0.7559  1.6781
12193TIP3   OH258069   6.458   5.609   0.713  0.1256  0.4444  0.0782
12193TIP3    H158070   6.387   5.553   0.683  0.9362 -1.0093  0.7522
12193TIP3    H258071   6.416   5.692   0.736 -1.1456  0.0470 -0.7155
12194TIP3   OH258072   5.301   0.215   0.970  0.9330 -0.3259  0.1232
12194TIP3    H158073   5.208   0.218   0.949  0.9832  0.2254 -0.0247
12194TIP3    H258074   5.310   0.265   1.051  1.3904  1.4632 -0.9704
12195TIP3   OH258075   1.900   1.362   0.012  0.5162  0.1159  0.1732
12195TIP3    H158076   1.850   1.390   0.089  1.1387 -1.8223  1.3503
12195TIP3    H258077   1.842   1.302  -0.034  0.5917  0.3533 -0.2397
12196TIP3   OH258078   1.986   4.153   1.595  0.2678 -0.0788 -0.0978
12196TIP3    H158079   1.956   4.100   1.521 -0.7349  2.4035 -1.5620
12196TIP3    H258080   1.954   4.106   1.672 -0.7480 -1.4788 -1.3100
12197TIP3   OH258081   2.457   4.183  15.693  0.6359 -0.0192  0.1470
12197TIP3    H158082   2.403   4.210  15.767  0.4632  0.2516 -0.0752
12197TIP3    H258083   2.415   4.223  15.616  0.4856 -0.7562 -0.1658
12198TIP3   OH258084   6.666   2.126   1.797 -0.0050 -0.5776  0.4734
12198TIP3    H158085   6.610   2.162   1.728  0.3378 -0.3791  0.2986
12198TIP3    H258086   6.747   2.176   1.792  0.6927 -1.7237 -0.1320
12199TIP3   OH258087   0.481   6.679  13.362 -0.6055  0.0633  0.6654
12199TIP3    H158088   0.469   6.586  13.343  0.7946  0.2556 -1.4421
12199TIP3    H258089   0.541   6.681  13.437  1.0354 -0.7752 -0.5616
12200TIP3   OH258090   4.984   3.661  16.708  0.3959 -0.1780  0.0430
12200TIP3    H158091   4.983   3.595  16.639 -2.3343 -0.5189  0.2803
12200TIP3    H258092   4.998   3.611  16.789 -0.2399 -0.3009  0.0829
12201TIP3   OH258093   1.652   0.309  16.523 -0.5691 -0.6493 -0.2284
12201TIP3    H158094   1.583   0.331  16.586 -0.5347  0.1441 -0.4585
12201TIP3    H258095   1.640   0.371  16.451  1.6882  0.9079  0.6562
12202TIP3   OH258096   1.644   5.574  12.665  0.1630  0.2938 -0.1172
12202TIP3    H158097   1.698   5.640  12.622 -1.1807  1.5592  0.0188
12202TIP3    H258098   1.592   5.624  12.728 -0.5673 -0.9782  0.3326
12203TIP3   OH258099   5.404   0.219   2.255 -0.7373  0.1715  0.0950
12203TIP3    H158100   5.326   0.184   2.299 -2.4829  2.4322 -0.9399
12203TIP3    H258101   5.384   0.210   2.161  0.5448  0.2249 -0.1987
12204TIP3   OH258102   4.975   5.135  13.476  0.2964  0.0795  0.3183
12204TIP3    H158103   5.046   5.085  13.434 -1.0453 -0.3185 -1.5892
12204TIP3    H258104   4.983   5.223  13.440  0.1119  0.1751  0.5091
12205TIP3   OH258105   4.814   2.439   5.903  0.3714 -0.2835  0.0768
12205TIP3    H158106   4.733   2.489   5.888 -0.0237 -0.9748 -0.1629
12205TIP3    H258107   4.785   2.360   5.950  1.0389 -0.1051  0.7995
12206TIP3   OH258108   6.243   2.169   2.423 -0.0221  0.0000  0.2387
12206TIP3    H158109   6.247   2.264   2.433 -0.5201 -0.0428  0.8733
12206TIP3    H258110   6.178   2.140   2.486 -1.8776 -0.5106 -1.7894
12207TIP3   OH258111   4.543   4.037   1.522 -0.1331 -0.2813  0.0150
12207TIP3    H158112   4.604   4.074   1.586 -0.4199  0.1789  0.0208
12207TIP3    H258113   4.484   3.982   1.574  0.0915 -0.4929  0.0473
12208TIP3   OH258114   0.251   3.853  16.191  0.5124  0.6007  0.1955
12208TIP3    H158115   0.159   3.876  16.203  0.9910  2.4961  0.4850
12208TIP3    H258116   0.283   3.837  16.280  0.0860 -1.8841 -0.0111
12209TIP3   OH258117   5.321   5.318  11.644  0.1906  0.5399 -0.4571
12209TIP3    H158118   5.317   5.405  11.603 -1.7913  0.3973 -0.6635
12209TIP3    H258119   5.262   5.324  11.719  0.0381 -0.6088 -0.4617
12210TIP3   OH258120   3.809   6.670   1.078 -0.4080 -0.0538 -0.1498
12210TIP3    H158121   3.856   6.713   1.006  0.3113  1.5210  1.1779
12210TIP3    H258122   3.765   6.742   1.123  1.3459 -0.5166  2.5342
12211TIP3   OH258123   6.014   5.322  13.688 -0.3823 -0.3540 -0.2069
12211TIP3    H158124   5.995   5.341  13.597  1.1385 -0.0144 -0.4736
12211TIP3    H258125   6.104   5.291  13.689 -1.5163 -4.2737  0.6633
12212TIP3   OH258126   4.300   2.932  12.002 -0.2221  0.1041  0.2039
12212TIP3    H158127   4.359   2.868  11.961  0.7587  1.4386 -0.5160
12212TIP3    H258128   4.342   2.954  12.085  1.1883  2.2596 -1.0212
12213TIP3   OH258129   4.365   2.975   0.832 -0.0254 -0.1226  0.1748
12213TIP3    H158130   4.327   3.056   0.866  0.4745 -0.2966  1.2048
12213TIP3    H258131   4.446   3.002   0.789 -0.3157  0.0260 -0.2783
12214TIP3   OH258132   5.106   2.676   4.796  0.3534 -0.4445  0.3240
12214TIP3    H158133   5.143   2.762   4.814 -0.7468 -0.1388  1.2582
12214TIP3    H258134   5.117   2.664   4.702  0.3056  0.8226  0.1438
12215TIP3   OH258135   5.851   6.472  14.711 -0.7109 -0.1167  0.3926
12215TIP3    H158136   5.889   6.543  14.658 -0.4196  0.2443  1.0771
12215TIP3    H258137   5.839   6.400  14.649  0.2777  0.0625 -0.0259
12216TIP3   OH258138   2.971   2.867  10.994  0.1380 -0.1228 -0.2293
12216TIP3    H158139   3.048   2.817  11.022 -1.1319 -2.4387 -0.6003
12216TIP3    H258140   2.990   2.891  10.903  0.3621 -0.8894 -0.3998
12217TIP3   OH258141   3.753   5.908   4.699  0.4771 -0.1841  0.3728
12217TIP3    H158142   3.735   5.856   4.778 -1.3608  0.3346  0.3471
12217TIP3    H258143   3.842   5.884   4.674  1.3121  0.0228  2.8966
12218TIP3   OH258144   3.558   4.128   4.320 -0.0222  0.2880 -0.3781
12218TIP3    H158145   3.515   4.199   4.271 -1.2302 -0.0793  0.1209
12218TIP3    H258146   3.547   4.051   4.265  1.4572  0.4853 -1.0096
12219TIP3   OH258147   3.417   2.488  16.023  0.1002  0.4156  0.1055
12219TIP3    H158148   3.478   2.455  15.956  0.3226  2.1839 -0.6128
12219TIP3    H258149   3.457   2.462  16.106 -0.1631 -1.7949 -0.3923
12220TIP3   OH258150   5.187   6.605  14.568 -0.2252  0.0942 -0.8694
12220TIP3    H158151   5.115   6.668  14.560  0.6696  0.9052 -4.2077
12220TIP3    H258152   5.266   6.656  14.550  1.1519 -1.0394  1.4215
12221TIP3   OH258153   4.489   6.392  13.079 -0.1014 -0.3844  0.0783
12221TIP3    H158154   4.436   6.467  13.051 -1.4111 -1.0611  0.6367
12221TIP3    H258155   4.452   6.318  13.031 -0.5877 -1.0995  1.5075
12222TIP3   OH258156   2.697   0.040  13.713  0.2811 -0.3222  0.4018
12222TIP3    H158157   2.726   0.007  13.627 -0.9544  0.1984 -0.2424
12222TIP3    H258158   2.652  -0.035  13.753 -1.2574  0.0926 -0.4537
12223TIP3   OH258159   6.482   4.293   3.323 -0.2353  0.3899 -0.0276
12223TIP3    H158160   6.456   4.203   3.344  0.2107  0.1370 -0.5445
12223TIP3    H258161   6.414   4.323   3.263  0.4163 -0.1202 -1.0322
12224TIP3   OH258162   5.497   4.062   0.105 -0.3778  0.5455 -0.2215
12224TIP3    H158163   5.520   3.974   0.133 -3.2499 -0.1481  0.2359
12224TIP3    H258164   5.440   4.049   0.030  0.6156  2.1276 -1.3107
12225TIP3   OH258165   4.429   1.749  13.750 -0.2807  0.4046  0.1050
12225TIP3    H158166   4.396   1.819  13.807 -1.9497  0.2875 -0.6583
12225TIP3    H258167   4.467   1.686  13.811 -0.4614  1.0900  0.9611
12226TIP3   OH258168   6.759   0.723   2.212 -0.6340  0.3743 -0.2635
12226TIP3    H158169   6.831   0.668   2.182 -2.2008 -2.3430  0.5056
12226TIP3    H258170   6.783   0.747   2.302 -0.8611 -1.0470  0.2180
12227TIP3   OH258171   3.353   5.097  16.384  0.6065  0.4034 -0.0095
12227TIP3    H158172   3.384   5.157  16.452  0.7992 -0.0344  0.2936
12227TIP3    H258173   3.426   5.036  16.371 -0.3700 -1.1032  1.2383
12228TIP3   OH258174   6.594   2.782   4.765 -0.7319  0.4881  0.0752
12228TIP3    H158175   6.575   2.773   4.672 -0.7238  0.5822  0.0638
12228TIP3    H258176   6.635   2.869   4.772  0.4631 -0.0372 -0.0258
12229TIP3   OH258177   2.971   1.998   2.156  0.2997  0.4482  0.0218
12229TIP3    H158178   2.879   2.025   2.161  0.2172  0.2719 -0.4733
12229TIP3    H258179   2.992   2.004   2.063  0.6844  0.1237  0.0878
12230TIP3   OH258180   0.838   2.304  12.320 -0.1015  0.1017  0.4119
12230TIP3    H158181   0.862   2.218  12.285  2.8212  1.3778 -1.0580
12230TIP3    H258182   0.759   2.329  12.272  0.9359 -0.3808 -1.6481
12231TIP3   OH258183   4.680   3.838   5.163  0.5613 -0.7925  0.7869
12231TIP3    H158184   4.753   3.900   5.167 -1.3862  1.9636 -1.6732
12231TIP3    H258185   4.609   3.881   5.211 -0.4092 -1.8983  0.4033
12232TIP3   OH258186   5.487   5.485   4.730  0.9251 -0.3382 -0.2015
12232TIP3    H158187   5.518   5.395   4.721 -0.4262 -0.9720  1.0628
12232TIP3    H258188   5.564   5.539   4.709  1.7383 -1.7573 -1.0635
12233TIP3   OH258189   6.765   6.118   0.137 -0.2852  0.3874  0.2376
12233TIP3    H158190   6.676   6.105   0.169 -1.2606  1.1007 -1.9730
12233TIP3    H258191   6.763   6.204   0.095  1.2890  0.1528 -0.3865
12234TIP3   OH258192   2.579   1.191  14.356  0.1191  0.0458  0.3181
12234TIP3    H158193   2.583   1.167  14.264 -2.1570 -0.5394  0.3042
12234TIP3    H258194   2.559   1.285  14.355 -2.1872 -0.3813  0.0938
12235TIP3   OH258195   4.350   5.274  16.984 -0.4273  0.5053  0.4854
12235TIP3    H158196   4.377   5.188  17.015 -0.6798  0.3667  0.3186
12235TIP3    H258197   4.373   5.275  16.891 -0.8544  0.4448  0.3776
12236TIP3   OH258198   4.041   2.129   4.505 -0.2486  0.6412 -1.0614
12236TIP3    H158199   4.001   2.165   4.584  1.5634  1.1840 -0.3391
12236TIP3    H258200   4.041   2.035   4.519  0.5405  0.7635 -0.1580
12237TIP3   OH258201   5.868   1.191   3.192  0.1512  0.6247  0.4043
12237TIP3    H158202   5.956   1.152   3.187 -0.3990 -0.5371 -0.9367
12237TIP3    H258203   5.869   1.259   3.125 -0.5317 -0.6912 -1.0186
12238TIP3   OH258204   1.829   3.776  14.150 -0.3104  0.0639 -0.1003
12238TIP3    H158205   1.885   3.700  14.135  0.2215  0.4525 -0.0991
12238TIP3    H258206   1.794   3.763  14.238  0.7248  0.4056  0.3766
12239TIP3   OH258207   4.512   3.650   4.672  0.0193  0.1466 -0.0605
12239TIP3    H158208   4.520   3.606   4.756 -0.8673 -0.4317 -0.2542
12239TIP3    H258209   4.551   3.736   4.685  1.0064 -0.3906  0.5775
12240TIP3   OH258210   3.033   1.011  15.281  0.3925 -0.4360  0.1272
12240TIP3    H158211   2.971   1.002  15.353  0.1398 -0.7756 -0.1276
12240TIP3    H258212   3.000   0.952  15.213  0.6224 -0.1104 -0.2723
12241TIP3   OH258213   3.831   1.432  16.654 -0.0724  0.2547 -0.2127
12241TIP3    H158214   3.889   1.507  16.642 -2.7359  2.7669  1.2967
12241TIP3    H258215   3.746   1.462  16.621 -1.4209 -1.8281  1.1249
12242TIP3   OH258216   4.390   1.810   4.407  0.0461  0.1975 -0.0022
12242TIP3    H158217   4.364   1.836   4.495  1.7207  1.2941  0.2072
12242TIP3    H258218   4.311   1.822   4.354 -0.1232  2.8438  0.6995
12243TIP3   OH258219   1.358   0.295   4.443 -0.4127  0.0536  0.5995
12243TIP3    H158220   1.423   0.248   4.391 -0.6824  1.9977 -1.6816
12243TIP3    H258221   1.406   0.368   4.483 -1.0030  1.2303 -0.7271
12244TIP3   OH258222   1.259   3.144  16.897  0.2369 -0.0789 -0.8136
12244TIP3    H158223   1.228   3.224  16.940  1.2555  0.5942 -1.2836
12244TIP3    H258224   1.305   3.175  16.819  1.2119 -1.0795 -0.6629
12245TIP3   OH258225   4.415   5.144  13.062  0.4772  0.0404  0.1301
12245TIP3    H158226   4.454   5.172  13.145  0.9197 -0.5168  0.1134
12245TIP3    H258227   4.489   5.116  13.008  0.1632  0.0913 -0.3388
12246TIP3   OH258228   0.370   0.472   0.545 -0.3072  0.0283 -0.2445
12246TIP3    H158229   0.324   0.553   0.524 -0.7371  0.0785  0.7916
12246TIP3    H258230   0.421   0.451   0.467 -1.3726  0.4748 -1.0802
12247TIP3   OH258231   3.501   2.799  13.888 -0.3027 -0.2260  0.0659
12247TIP3    H158232   3.419   2.749  13.891 -0.2657 -0.2620  1.1152
12247TIP3    H258233   3.520   2.809  13.795 -2.1569  0.8568 -0.2587
12248TIP3   OH258234   5.091   2.324   1.794 -0.0508  0.1430  0.3693
12248TIP3    H158235   5.001   2.333   1.761  0.0846 -0.0992 -0.0763
12248TIP3    H258236   5.114   2.233   1.776  0.3454  0.2525  0.3261
12249TIP3   OH258237   2.043   6.002  14.157  0.1175 -0.1482  0.0964
12249TIP3    H158238   2.123   5.953  14.137 -0.2972 -0.4058 -1.0058
12249TIP3    H258239   2.019   5.972  14.245 -0.2997 -2.2175 -0.6553
12250TIP3   OH258240   5.605   0.471   1.320  0.4073  0.0072 -0.7883
12250TIP3    H158241   5.630   0.564   1.323  0.3516  0.0090  1.0778
12250TIP3    H258242   5.682   0.425   1.353  0.3402 -0.6051 -1.4673
12251TIP3   OH258243   1.543   0.244  15.638 -0.2471  0.8325 -0.3267
12251TIP3    H158244   1.621   0.234  15.583  0.2936  1.8226  0.2304
12251TIP3    H258245   1.490   0.310  15.593  0.0096  1.3522  0.1266
12252TIP3   OH258246   3.105   5.623   4.074  0.4151 -0.3047 -0.4468
12252TIP3    H158247   3.072   5.668   4.152  0.4175 -1.8116  0.4672
12252TIP3    H258248   3.146   5.543   4.108  2.4528  0.1100 -1.8177
12253TIP3   OH258249   3.316   4.107  13.485  0.0897  0.1761 -0.2784
12253TIP3    H158250   3.229   4.070  13.468  0.0956 -0.3469  0.7667
12253TIP3    H258251   3.372   4.066  13.419 -0.1562 -0.7266  0.0587
12254TIP3   OH258252   6.048   6.598   2.612  0.1217 -0.5689  0.4489
12254TIP3    H158253   6.062   6.514   2.567  0.9051 -0.9749  1.4131
12254TIP3    H258254   5.958   6.623   2.589 -0.4635 -2.1391  0.8896
12255TIP3   OH258255   0.602   3.018  15.579 -0.6014 -0.0864 -0.7323
12255TIP3    H158256   0.522   2.978  15.545 -0.4741  0.0595 -1.2014
12255TIP3    H258257   0.651   3.045  15.502  0.0928 -0.5437 -0.4667
12256TIP3   OH258258   3.696   5.846   5.623 -0.0839  0.3610 -0.6816
12256TIP3    H158259   3.775   5.899   5.611  1.0212 -0.7598  1.1566
12256TIP3    H258260   3.712   5.767   5.570 -0.7116  0.8343 -1.5944
12257TIP3   OH258261   4.341   2.976   1.228 -0.0735  0.2182  0.0457
12257TIP3    H158262   4.349   3.002   1.320 -2.9291 -0.2891  0.5157
12257TIP3    H258263   4.322   2.882   1.231  1.0202 -0.0781 -1.1725
12258TIP3   OH258264   6.016   3.216  12.729  0.4818 -0.6734 -0.7697
12258TIP3    H158265   6.024   3.138  12.675  1.1086 -0.5805 -0.8172
12258TIP3    H258266   5.983   3.184  12.813 -1.3504 -0.7081 -1.4606
12259TIP3   OH258267   1.725   6.758  11.639 -0.2912 -0.2152 -0.3703
12259TIP3    H158268   1.737   6.769  11.545 -0.8560  0.3127 -0.3908
12259TIP3    H258269   1.681   6.839  11.667 -1.3808 -0.9538  0.1112
12260TIP3   OH258270   4.867   2.968   3.384 -0.3433 -0.5661 -0.4183
12260TIP3    H158271   4.804   2.930   3.322 -1.9643  2.5092 -0.8813
12260TIP3    H258272   4.919   3.028   3.330 -0.2786  0.4936  0.7905
12261TIP3   OH258273   2.845   1.471   4.180 -0.7430  0.1713 -0.0779
12261TIP3    H158274   2.907   1.401   4.202  0.2324  1.5940  2.1027
12261TIP3    H258275   2.763   1.444   4.220  0.0696  0.9622  2.3336
12262TIP3   OH258276   4.508   2.345   3.681 -0.4546  0.8969 -0.6738
12262TIP3    H158277   4.497   2.332   3.775  0.0422 -0.5041 -0.7941
12262TIP3    H258278   4.472   2.266   3.641  1.7362  0.2595 -1.5177
12263TIP3   OH258279   5.476   1.825  13.650  0.5160  0.4867  0.0004
12263TIP3    H158280   5.471   1.759  13.581  1.3103  0.2900  0.1084
12263TIP3    H258281   5.386   1.840  13.677  0.3679 -1.4893  0.8226
12264TIP3   OH258282   0.979   1.197   4.929  0.0357 -0.3483 -0.4283
12264TIP3    H158283   1.004   1.112   4.894 -1.9794 -0.8338 -0.7958
12264TIP3    H258284   1.040   1.212   5.001  0.7554 -1.8466 -0.6863
12265TIP3   OH258285   1.700   4.182  13.939  0.2818  0.1278  0.4320
12265TIP3    H158286   1.633   4.114  13.930  0.9570 -0.6927  1.3621
12265TIP3    H258287   1.764   4.145  13.999  0.9024  1.4262  0.6143
12266TIP3   OH258288   4.855   0.671  11.192  0.7833  0.7669  0.3029
12266TIP3    H158289   4.823   0.682  11.103 -0.3050  0.6281  0.6576
12266TIP3    H258290   4.913   0.595  11.187  0.5072  0.5842 -0.2328
12267TIP3   OH258291   1.099   1.744  13.025 -0.2233  0.2367 -0.2458
12267TIP3    H158292   1.151   1.669  13.055  0.9351  1.0760 -0.0805
12267TIP3    H258293   1.027   1.706  12.976 -0.7129 -1.0764  1.4130
12268TIP3   OH258294   4.120   5.335  13.003  0.6004  0.3354  0.1316
12268TIP3    H158295   4.154   5.251  12.972  0.8072  0.6221 -0.4429
12268TIP3    H258296   4.071   5.370  12.929 -0.9388 -0.0406  0.9267
12269TIP3   OH258297   4.648   0.121  15.167 -0.5236 -0.2457 -0.1456
12269TIP3    H158298   4.569   0.081  15.129 -2.3151  1.0810  1.9598
12269TIP3    H258299   4.667   0.068  15.244 -1.1373  1.0931  0.9780
12270TIP3   OH258300   1.623   4.283  12.145  0.1553 -0.1101 -0.0261
12270TIP3    H158301   1.615   4.282  12.049 -0.8767  0.9600  0.0197
12270TIP3    H258302   1.559   4.218  12.175  1.7095 -1.7383 -0.0842
12271TIP3   OH258303   3.093   3.461   6.464  0.3569  0.1741  0.0917
12271TIP3    H158304   3.072   3.402   6.536  2.7419  0.8620  1.4485
12271TIP3    H258305   3.048   3.423   6.388 -0.8750 -1.4890  1.5762
12272TIP3   OH258306   1.248   5.661   2.867 -0.4939 -0.1396  0.2706
12272TIP3    H158307   1.160   5.677   2.833 -0.7089 -1.8704 -0.0622
12272TIP3    H258308   1.234   5.611   2.948  0.1738  0.0604  0.5237
12273TIP3   OH258309   2.866   6.128   0.964 -0.5505 -0.1499  0.5370
12273TIP3    H158310   2.840   6.037   0.979  1.7696 -0.4868  3.5444
12273TIP3    H258311   2.934   6.123   0.897  0.8081 -0.9724  1.8942
12274TIP3   OH258312   6.327   3.209   3.096  0.6723 -0.6499  0.1667
12274TIP3    H158313   6.288   3.274   3.154 -1.3791 -0.7732 -0.9951
12274TIP3    H258314   6.404   3.177   3.144  0.6601  1.2620  1.5539
12275TIP3   OH258315   0.976   4.555   3.568  0.1445 -0.5284  0.1448
12275TIP3    H158316   1.042   4.566   3.501 -0.3703  0.8296 -0.1688
12275TIP3    H258317   1.001   4.474   3.613  1.8851 -0.1650 -0.0905
12276TIP3   OH258318   5.424   2.665   6.062  0.4475 -0.3407  0.6486
12276TIP3    H158319   5.502   2.624   6.099  0.8149  1.0333  1.4985
12276TIP3    H258320   5.449   2.686   5.972  0.5351 -1.2314  0.4630
12277TIP3   OH258321   5.240   1.500  15.042  0.2246 -0.6920 -0.2640
12277TIP3    H158322   5.268   1.549  14.965 -0.1807 -1.3002 -0.8146
12277TIP3    H258323   5.178   1.436  15.008 -0.5410 -0.4784  0.6863
12278TIP3   OH258324   4.929   4.396  12.564 -0.2619 -0.1051  0.5313
12278TIP3    H158325   5.014   4.437  12.550 -0.6860  0.0529 -2.1538
12278TIP3    H258326   4.949   4.303  12.574  0.2725  0.0388  0.8600
12279TIP3   OH258327   1.469   0.672   2.892 -0.4393 -0.4290  0.0719
12279TIP3    H158328   1.496   0.706   2.977 -0.6592  0.3761 -0.1746
12279TIP3    H258329   1.520   0.722   2.829 -0.2398 -1.0599 -0.2774
12280TIP3   OH258330   0.454   5.191  15.134  0.1077 -0.1192  0.2674
12280TIP3    H158331   0.429   5.283  15.124  0.0710 -0.0671  0.8171
12280TIP3    H258332   0.374   5.147  15.162  0.7039  0.1563  2.6379
12281TIP3   OH258333   3.887   6.053   0.627 -0.1935  0.8123 -0.1284
12281TIP3    H158334   3.915   6.015   0.710 -1.6242  0.4361  0.2121
12281TIP3    H258335   3.806   6.007   0.605 -0.8976  2.2621 -0.7240
12282TIP3   OH258336   1.470   0.487  13.913  0.1094  0.8698  0.0996
12282TIP3    H158337   1.464   0.582  13.923 -2.5194  0.6069  2.0634
12282TIP3    H258338   1.415   0.467  13.836 -1.5346  0.8073  1.2307
12283TIP3   OH258339   4.684   3.353  14.172 -0.2159  0.0435 -1.0452
12283TIP3    H158340   4.744   3.279  14.177 -1.0498 -0.6003 -0.2374
12283TIP3    H258341   4.602   3.321  14.211 -1.7965  0.2152 -3.9178
12284TIP3   OH258342   3.594   4.446   6.628  0.0878  0.3766 -0.6863
12284TIP3    H158343   3.601   4.351   6.614  1.0513  0.4218 -0.5589
12284TIP3    H258344   3.680   4.472   6.659 -0.2998  1.2356 -0.3037
12285TIP3   OH258345   4.977   5.615   0.311 -0.5046 -0.3195  0.5794
12285TIP3    H158346   5.030   5.628   0.390 -0.1136 -2.1601  0.6501
12285TIP3    H258347   4.908   5.681   0.318 -0.4306 -0.3806  2.4235
12286TIP3   OH258348   1.559   3.430  16.234  0.0589  0.0312 -0.2845
12286TIP3    H158349   1.650   3.415  16.259  0.0946  1.2992  0.4128
12286TIP3    H258350   1.508   3.408  16.312 -0.1330  0.3416 -0.3188
12287TIP3   OH258351   0.800   2.238   4.554 -0.2932  0.4100 -0.5116
12287TIP3    H158352   0.825   2.189   4.476 -2.1566 -1.0730 -0.2640
12287TIP3    H258353   0.833   2.186   4.627 -3.6718 -1.5806 -0.1797
12288TIP3   OH258354   5.387   6.033  15.529  0.2288  0.1215  0.1551
12288TIP3    H158355   5.420   6.106  15.581 -1.4065 -1.0027  3.0198
12288TIP3    H258356   5.404   5.956  15.584 -1.7009 -1.1393 -0.9198
12289TIP3   OH258357   0.027   4.311   5.760 -0.2751  0.1134  0.2107
12289TIP3    H158358   0.059   4.268   5.839  1.1934  0.8838  0.0588
12289TIP3    H258359   0.106   4.344   5.716 -0.9900 -0.7025 -1.8251
12290TIP3   OH258360   6.229   3.322  14.028  0.2046 -0.1769  0.3830
12290TIP3    H158361   6.274   3.395  14.071  0.7087  0.3927 -1.0322
12290TIP3    H258362   6.205   3.263  14.099  3.7896 -0.8674  1.2336
12291TIP3   OH258363   1.216   4.950  14.607  0.3049 -0.7683 -0.2494
12291TIP3    H158364   1.157   4.925  14.679 -0.4121 -0.2924 -0.6594
12291TIP3    H258365   1.250   5.035  14.633  0.8394 -1.0558  0.0000
12292TIP3   OH258366   2.027   6.166   3.690 -0.5292 -0.2644  0.1048
12292TIP3    H158367   1.973   6.232   3.735 -0.6872 -0.7547  0.6461
12292TIP3    H258368   2.060   6.211   3.613  1.2691  1.2096  1.6343
12293TIP3   OH258369   6.418   4.847  13.204  0.0822 -0.3992  0.2026
12293TIP3    H158370   6.471   4.770  13.226  2.2157  0.9666  0.1085
12293TIP3    H258371   6.328   4.813  13.196  0.5966 -2.4747  2.2745
12294TIP3   OH258372   2.997   2.724  13.939  0.0323 -0.4291 -0.0155
12294TIP3    H158373   2.956   2.701  13.856 -2.1379 -0.0052  0.8536
12294TIP3    H258374   3.023   2.640  13.977 -0.0453 -0.7253 -0.6038
12295TIP3   OH258375   6.365   0.278   4.444  0.2331  0.3697  0.2132
12295TIP3    H158376   6.287   0.321   4.481  0.4869 -0.4909  1.8397
12295TIP3    H258377   6.407   0.347   4.392  0.9917  2.4558  3.2607
12296TIP3   OH258378   5.337   1.421  11.981 -0.1552  0.0922 -0.4247
12296TIP3    H158379   5.243   1.402  11.971 -0.0696  0.2949 -1.7118
12296TIP3    H258380   5.375   1.338  12.009 -0.9017  0.3405  1.4822
12297TIP3   OH258381   0.457   5.676   1.690 -0.4330  0.1065  0.0552
12297TIP3    H158382   0.541   5.671   1.736 -0.0103  0.1295 -0.6874
12297TIP3    H258383   0.400   5.616   1.737  0.4424 -1.0801 -0.3271
12298TIP3   OH258384   5.580   3.040   3.419 -0.8319 -0.3899 -0.0586
12298TIP3    H158385   5.505   2.996   3.378 -1.2452 -0.6175  0.9092
12298TIP3    H258386   5.562   3.133   3.407 -1.0976 -0.4494 -0.1396
12299TIP3   OH258387   2.040   1.190  10.717 -0.9561 -0.2449 -0.3094
12299TIP3    H158388   2.098   1.265  10.733  0.6765 -1.6908  0.9541
12299TIP3    H258389   1.958   1.215  10.759 -0.2343  0.6027  0.6703
12300TIP3   OH258390   2.275   5.259   0.052  0.4043  0.3433  0.1648
12300TIP3    H158391   2.356   5.208   0.057  0.7587  0.9397  0.8572
12300TIP3    H258392   2.226   5.220  -0.019  0.5245 -1.1581  0.8688
12301TIP3   OH258393   4.849   5.280  16.513 -0.0642  0.0245 -0.1158
12301TIP3    H158394   4.808   5.311  16.593  1.8044 -0.2072  0.9862
12301TIP3    H258395   4.816   5.191  16.501  1.4898 -0.8972  1.8385
12302TIP3   OH258396   1.393   2.041  16.173 -0.2006 -0.0872  0.1509
12302TIP3    H158397   1.466   2.075  16.225 -0.6343  1.6391 -0.2928
12302TIP3    H258398   1.344   2.119  16.147 -0.4083 -0.9257 -2.2439
12303TIP3   OH258399   3.960   1.636  15.075 -0.2847 -0.3381  0.0063
12303TIP3    H158400   3.878   1.654  15.029  0.3761 -1.0151 -1.5280
12303TIP3    H258401   3.958   1.542  15.092 -0.2834 -0.1780  0.9259
12304TIP3   OH258402   3.273   0.804  13.802  0.6075  0.2155  0.2918
12304TIP3    H158403   3.207   0.765  13.745  1.1580 -0.4753  0.0982
12304TIP3    H258404   3.253   0.770  13.889  0.7336 -0.0419  0.2231
12305TIP3   OH258405   6.614   1.007   1.735 -0.0806  0.4192  0.0884
12305TIP3    H158406   6.569   1.030   1.816 -1.3280  2.1523 -1.0104
12305TIP3    H258407   6.699   1.050   1.741  0.9819 -1.7238  1.5852
12306TIP3   OH258408   5.114   1.129   6.144 -0.2202  0.3848  0.5499
12306TIP3    H158409   5.147   1.090   6.063  0.3385 -0.1600  1.0331
12306TIP3    H258410   5.065   1.059   6.186 -1.7324  1.0761  0.0217
12307TIP3   OH258411   2.730   6.021   4.501  0.5591  0.3475 -0.0766
12307TIP3    H158412   2.661   5.991   4.441 -1.7862  1.3278  1.9396
12307TIP3    H258413   2.710   5.977   4.584  1.5978  1.6243  0.8946
12308TIP3   OH258414   3.471   5.231  16.677  0.5377  0.1560  0.1661
12308TIP3    H158415   3.534   5.191  16.617 -0.7525 -1.6550 -0.0554
12308TIP3    H258416   3.512   5.222  16.763  0.9574 -0.2024 -0.0665
12309TIP3   OH258417   4.812   2.841  11.203  0.1829  0.1972  0.2391
12309TIP3    H158418   4.868   2.764  11.198  0.5074  0.2503  2.3809
12309TIP3    H258419   4.872   2.916  11.200 -0.0492  0.3625 -0.7210
12310TIP3   OH258420   4.042   5.694   2.819  0.7146  0.4262 -0.3069
12310TIP3    H158421   3.951   5.722   2.826  0.8466  0.8403 -0.2316
12310TIP3    H258422   4.090   5.755   2.875  1.0266  0.1509 -0.2706
12311TIP3   OH258423   4.636   5.093  13.948  0.3198  0.2294  0.4692
12311TIP3    H158424   4.683   5.016  13.982 -0.9823 -1.5094 -1.4296
12311TIP3    H258425   4.566   5.107  14.011  1.3426  0.7327  1.5347
12312TIP3   OH258426   4.038   2.127  14.901  0.3527 -0.0038  0.4595
12312TIP3    H158427   4.006   2.062  14.964  0.1099  0.4259  0.7849
12312TIP3    H258428   3.971   2.128  14.832  0.9557 -0.9709 -0.1673
12313TIP3   OH258429   2.411   0.202   3.602 -0.2597 -0.0015 -0.2671
12313TIP3    H158430   2.381   0.223   3.514  1.1841  0.6220 -0.6484
12313TIP3    H258431   2.359   0.257   3.660 -1.7945 -1.0071 -0.6312
12314TIP3   OH258432   5.594   1.821  12.249 -0.3705 -0.2585 -0.1928
12314TIP3    H158433   5.514   1.820  12.196 -0.7202 -1.2773  0.3294
12314TIP3    H258434   5.608   1.914  12.268 -0.1091  0.1622 -2.2137
12315TIP3   OH258435   1.492   3.688  14.095  0.6874  0.3559  0.0398
12315TIP3    H158436   1.530   3.698  14.182 -0.7877  0.0233  0.7526
12315TIP3    H258437   1.401   3.665  14.111  0.2519  0.7894 -1.6041
12316TIP3   OH258438   3.585   2.327   0.544 -0.0154 -0.6649 -0.2289
12316TIP3    H158439   3.562   2.361   0.457 -1.2476 -1.3258 -0.1885
12316TIP3    H258440   3.560   2.396   0.605 -0.1958 -0.6472 -0.3235
12317TIP3   OH258441   3.350   0.131  16.200  0.2101  0.2978  0.5081
12317TIP3    H158442   3.375   0.149  16.291  1.3630 -1.2115  0.5189
12317TIP3    H258443   3.433   0.119  16.154 -0.3726  0.6858 -0.6831
12318TIP3   OH258444   2.915   5.482   5.702 -0.4961 -0.5197  0.0284
12318TIP3    H158445   2.900   5.388   5.713 -0.6490 -0.6357 -1.0651
12318TIP3    H258446   2.838   5.523   5.740 -0.5442 -0.8471  0.2890
12319TIP3   OH258447   3.032   4.641  11.981 -0.4310 -0.3993 -0.0820
12319TIP3    H158448   3.022   4.736  11.981 -0.9940 -0.4488 -0.6030
12319TIP3    H258449   3.056   4.619  12.071  1.6770  0.4182 -0.4054
12320TIP3   OH258450   3.034   6.190   4.304 -0.0019  0.0682  0.1059
12320TIP3    H158451   2.982   6.244   4.244  0.5188  0.7392  0.2482
12320TIP3    H258452   3.084   6.131   4.246 -0.3968 -0.1127 -0.0591
12321TIP3   OH258453   5.085   1.402  13.785  0.0361 -0.0989 -0.6275
12321TIP3    H158454   5.065   1.490  13.817  1.0012 -0.1589  0.1677
12321TIP3    H258455   5.138   1.416  13.707  0.6137  0.0253 -0.2149
12322TIP3   OH258456   6.405   4.537  16.969 -0.0088 -0.0545 -0.2810
12322TIP3    H158457   6.451   4.618  16.992 -0.5393  0.7598 -1.9496
12322TIP3    H258458   6.314   4.554  16.993  0.2131 -1.0310  1.4361
12323TIP3   OH258459   3.619   0.701   1.512 -0.2290  0.0536 -0.1264
12323TIP3    H158460   3.654   0.622   1.554  1.4298 -0.3726 -2.1688
12323TIP3    H258461   3.545   0.670   1.460  1.3476 -0.5217 -2.1489
12324TIP3   OH258462   2.338   4.626   2.356 -0.1143 -0.0240  0.7033
12324TIP3    H158463   2.419   4.624   2.407  1.1390  0.5079 -1.1929
12324TIP3    H258464   2.313   4.719   2.355 -1.3591 -0.2907  2.1056
12325TIP3   OH258465   1.657   0.966   0.691  0.2513 -0.1748  0.4073
12325TIP3    H158466   1.575   1.014   0.706 -0.9745 -1.9297 -0.2492
12325TIP3    H258467   1.662   0.957   0.596 -0.0554 -2.0402  0.5197
12326TIP3   OH258468   2.894   3.594   1.864 -0.0715  0.6842 -0.6661
12326TIP3    H158469   2.845   3.513   1.850 -1.4277  1.0410  1.5029
12326TIP3    H258470   2.931   3.585   1.951  1.2125  1.7122 -1.0690
12327TIP3   OH258471   1.747   2.942  15.900  0.3478  0.3379  0.3062
12327TIP3    H158472   1.712   2.898  15.977  0.8317 -1.0954 -0.2549
12327TIP3    H258473   1.670   2.967  15.849  0.0544  0.0844  0.6175
12328TIP3   OH258474   0.749   1.201  13.307 -0.6176 -0.0885 -0.3014
12328TIP3    H158475   0.782   1.235  13.390 -1.0897  0.5438 -0.3571
12328TIP3    H258476   0.783   1.112  13.302  1.9986  0.8480 -0.8781
12329TIP3   OH258477   1.504   2.970   1.898 -0.3568  0.2737 -0.0412
12329TIP3    H158478   1.509   3.065   1.888 -1.3887  0.6195  2.0896
12329TIP3    H258479   1.469   2.957   1.986  1.8359 -2.0987  0.6188
12330TIP3   OH258480   2.337   3.386   3.894  0.4930  0.1989  0.2122
12330TIP3    H158481   2.403   3.422   3.835  0.6919  0.3913  0.5454
12330TIP3    H258482   2.388   3.334   3.957  0.1952 -0.8524 -0.3882
12331TIP3   OH258483   1.652   6.227   0.753 -0.1167 -0.3538 -0.2702
12331TIP3    H158484   1.601   6.163   0.803  1.2577 -0.2304  1.3638
12331TIP3    H258485   1.710   6.174   0.698 -1.1189 -0.4798 -1.2605
12332TIP3   OH258486   5.517   0.996  11.457  0.1283  0.1635 -0.6063
12332TIP3    H158487   5.507   1.070  11.516  1.6092 -1.1922  1.4661
12332TIP3    H258488   5.540   1.035  11.372 -2.8033  2.2012 -0.6140
12333TIP3   OH258489   0.666   3.759  13.404  0.4154 -0.3483 -0.1856
12333TIP3    H158490   0.654   3.693  13.472  0.7695 -0.2440 -0.0204
12333TIP3    H258491   0.721   3.716  13.338  0.4844 -0.2860 -0.1698
12334TIP3   OH258492   4.996   1.424   5.743  0.7813  0.4500  0.2013
12334TIP3    H158493   4.970   1.365   5.673  1.7010  0.0188  0.2098
12334TIP3    H258494   5.085   1.451   5.720  0.7088  1.1152  0.6696
12335TIP3   OH258495   3.856   1.017   2.053 -0.0815 -0.5037  0.3258
12335TIP3    H158496   3.819   1.040   1.968  0.3293  1.4368  0.6220
12335TIP3    H258497   3.883   0.926   2.044  1.3591  0.0769 -2.1254
12336TIP3   OH258498   3.327   3.791  17.079  0.4459 -0.0957 -0.3936
12336TIP3    H158499   3.270   3.764  17.152 -0.0473  1.6995 -0.0402
12336TIP3    H258500   3.407   3.741  17.091 -0.0309 -0.6218  0.7770
12337TIP3   OH258501   3.393   1.555  16.387 -0.3432  0.6424  0.0942
12337TIP3    H158502   3.349   1.576  16.470  0.7967  0.4404  0.7646
12337TIP3    H258503   3.398   1.640  16.341  2.3831  1.5875  1.8969
12338TIP3   OH258504   5.909   1.151  11.289 -0.4166  0.4953  0.4945
12338TIP3    H158505   5.906   1.103  11.207  0.1921  0.3924  0.5280
12338TIP3    H258506   5.942   1.087  11.353  0.0618  0.8588  0.6118
12339TIP3   OH258507   2.163   1.046  11.892 -0.3168  0.7379 -0.4948
12339TIP3    H158508   2.232   0.982  11.908 -0.0749  1.2389  0.6200
12339TIP3    H258509   2.177   1.113  11.960 -0.4849  2.0354 -1.6999
12340TIP3   OH258510   4.895   3.658   1.302 -0.3925  0.2221 -0.3174
12340TIP3    H158511   4.951   3.696   1.234  0.3798 -0.0805  0.1497
12340TIP3    H258512   4.926   3.697   1.384  0.1150 -1.0583  0.1131
12341TIP3   OH258513   1.925   5.525  10.323 -0.5368  0.0919  1.0102
12341TIP3    H158514   1.981   5.449  10.302 -2.2744 -0.7135 -1.1465
12341TIP3    H258515   1.976   5.600  10.293 -0.5485 -0.6328 -1.0406
12342TIP3   OH258516   5.351   2.376   0.160 -0.3172 -0.4719  0.2435
12342TIP3    H158517   5.397   2.339   0.084  2.3858  0.9098  1.1176
12342TIP3    H258518   5.312   2.457   0.127 -0.3415 -0.5812 -0.0023
12343TIP3   OH258519   3.497   5.370  16.135  0.3110  0.1410  0.7241
12343TIP3    H158520   3.552   5.372  16.057  1.1245 -0.0966  1.2731
12343TIP3    H258521   3.441   5.447  16.127  2.0497  1.5116  1.0730
12344TIP3   OH258522   6.067   1.964   3.386 -0.3346  0.3318 -0.2235
12344TIP3    H158523   6.107   2.013   3.458 -0.2618  0.3367 -0.2675
12344TIP3    H258524   6.004   2.025   3.347 -3.5803 -0.9424  2.4962
12345TIP3   OH258525   4.174   1.723   2.225  0.1139 -0.0042  0.4151
12345TIP3    H158526   4.234   1.797   2.216 -0.6446  0.5493 -0.1900
12345TIP3    H258527   4.169   1.685   2.138  1.8141 -1.8582  1.0424
12346TIP3   OH258528   0.272   5.507  14.062 -0.1954 -0.4005  0.0821
12346TIP3    H158529   0.295   5.451  14.136 -1.1609  0.4763  1.0663
12346TIP3    H258530   0.201   5.460  14.018 -0.2183 -0.4967  0.2222
12347TIP3   OH258531   1.391   5.686  14.328 -1.1213 -0.1004  0.2249
12347TIP3    H158532   1.408   5.773  14.291 -0.6106 -0.2354  0.1363
12347TIP3    H258533   1.334   5.702  14.403 -0.3517  0.3908  0.7080
12348TIP3   OH258534   2.412   4.059  14.640  0.4524  0.1014  0.0789
12348TIP3    H158535   2.318   4.043  14.638  0.2861  1.0101  0.4537
12348TIP3    H258536   2.449   3.977  14.675 -0.2960  0.1409  1.0111
12349TIP3   OH258537   6.044   1.135  15.094 -0.5275 -0.2927  0.0912
12349TIP3    H158538   6.060   1.057  15.040  0.6398  0.0527 -0.0840
12349TIP3    H258539   6.066   1.108  15.183  1.3939  0.2402 -0.1766
12350TIP3   OH258540   2.225   3.206  12.262 -0.7476  0.5037 -0.1930
12350TIP3    H158541   2.320   3.211  12.273 -0.6928  0.4875 -0.6422
12350TIP3    H258542   2.208   3.248  12.177 -0.9797 -0.8455 -0.8471
12351TIP3   OH258543   2.503   0.555  15.547  0.3107 -0.6694 -0.3886
12351TIP3    H158544   2.420   0.563  15.500  0.6602 -0.1879 -0.9455
12351TIP3    H258545   2.568   0.593  15.488  0.6410  0.7915  0.8357
12352TIP3   OH258546   1.695   5.813   6.541  0.2773  0.2948  0.1489
12352TIP3    H158547   1.705   5.751   6.469  0.7507 -0.5410  0.8989
12352TIP3    H258548   1.634   5.770   6.601  1.4233  0.0539  1.1814
12353TIP3   OH258549   2.414   3.894   5.394  0.0209 -0.7316  0.3383
12353TIP3    H158550   2.346   3.917   5.458 -0.2708 -2.8498  0.8638
12353TIP3    H258551   2.414   3.967   5.333 -1.3245  0.2765  1.4569
12354TIP3   OH258552   3.593   0.636   0.518 -0.2468 -0.1002 -0.1973
12354TIP3    H158553   3.646   0.556   0.514 -0.9634 -0.7821  2.2583
12354TIP3    H258554   3.503   0.605   0.518 -0.5712  0.8143 -0.6127
12355TIP3   OH258555   6.431   5.825   3.578 -0.4888 -0.1398  0.3367
12355TIP3    H158556   6.466   5.737   3.569  2.3953  0.9762 -0.4542
12355TIP3    H258557   6.455   5.869   3.497 -1.5841  1.4911  0.8418
12356TIP3   OH258558   2.063   0.413  15.153 -0.0137  0.3725  0.5179
12356TIP3    H158559   2.038   0.442  15.241 -0.8898 -0.2037  0.4702
12356TIP3    H258560   2.091   0.322  15.165 -1.8153 -0.3128 -0.0291
12357TIP3   OH258561   6.147   0.067  16.179 -0.1161 -0.5925  0.0447
12357TIP3    H158562   6.187   0.152  16.160 -0.1505 -0.7236 -0.6122
12357TIP3    H258563   6.104   0.042  16.098 -0.7942 -0.8645  0.4769
12358TIP3   OH258564   5.693   2.861  12.940 -0.2662 -0.2833 -0.3993
12358TIP3    H158565   5.714   2.774  12.906 -0.8944 -0.4037 -0.4847
12358TIP3    H258566   5.713   2.921  12.868  0.3081 -0.3381 -0.2905
12359TIP3   OH258567   6.317   2.098   2.807 -0.1213 -0.6340 -0.2723
12359TIP3    H158568   6.307   2.116   2.901 -0.6243 -0.2970 -0.3884
12359TIP3    H258569   6.409   2.071   2.798  0.6189  1.5665 -0.0242
12360TIP3   OH258570   4.312   4.695  13.113 -0.4902  0.0006 -0.2640
12360TIP3    H158571   4.356   4.611  13.120 -0.1066  0.3082  1.6562
12360TIP3    H258572   4.246   4.693  13.183 -0.4545  1.2733 -0.1720
12361TIP3   OH258573   4.745   6.593  16.936  0.5534 -0.1141  0.1969
12361TIP3    H158574   4.797   6.605  17.016  2.6267 -0.4011 -1.0288
12361TIP3    H258575   4.740   6.680  16.896 -1.8608  0.3625  1.3545
12362TIP3   OH258576   4.716   4.100   3.736  0.0030  0.4983 -0.4816
12362TIP3    H158577   4.670   4.026   3.696 -1.4161  1.4689 -0.7713
12362TIP3    H258578   4.705   4.088   3.830 -0.6751  0.5908 -0.5421
12363TIP3   OH258579   3.902   0.517   3.413 -0.1129  0.4205  0.0574
12363TIP3    H158580   3.832   0.582   3.420  1.2965  1.8901  1.7304
12363TIP3    H258581   3.906   0.477   3.500  3.5474  3.2061  1.4635
12364TIP3   OH258582   5.370   3.408  13.764  0.2175 -0.3568  0.1624
12364TIP3    H158583   5.388   3.500  13.745 -1.5755  0.2790  1.3625
12364TIP3    H258584   5.402   3.394  13.853  0.1547 -0.8127  0.1192
12365TIP3   OH258585   1.582   0.287   4.289 -0.4496  0.5198 -0.4508
12365TIP3    H158586   1.624   0.263   4.372  0.3116  0.8140 -0.7352
12365TIP3    H258587   1.652   0.332   4.240 -0.4034 -1.0402 -1.8907
12366TIP3   OH258588   1.049   0.763   3.329 -0.1559  0.0369 -0.8925
12366TIP3    H158589   1.125   0.811   3.295 -0.9174  0.5704 -1.8922
12366TIP3    H258590   1.051   0.679   3.283  1.5517 -1.2432  1.3344
12367TIP3   OH258591   5.521   3.531   0.686  0.8335  0.0693  0.2417
12367TIP3    H158592   5.569   3.590   0.629  1.2617 -1.4140 -1.0154
12367TIP3    H258593   5.577   3.520   0.763  1.1530  0.6022  0.0843
12368TIP3   OH258594   1.363   2.592  14.752  0.4623 -0.3963 -0.4915
12368TIP3    H158595   1.325   2.679  14.753  0.6761 -0.2951  0.7124
12368TIP3    H258596   1.370   2.569  14.660 -1.9831 -0.2018 -0.7825
12369TIP3   OH258597   3.743   0.795  12.987  0.1134  0.2215  0.0842
12369TIP3    H158598   3.816   0.854  13.004  1.0139 -1.5553  3.1004
12369TIP3    H258599   3.668   0.853  12.972  1.4934  2.0848  0.0422
12370TIP3   OH258600   6.667   4.227   4.359 -0.4673 -0.2140  0.8748
12370TIP3    H158601   6.646   4.268   4.275 -1.2045 -0.3548  0.9923
12370TIP3    H258602   6.695   4.139   4.336  2.9232  0.8214  0.4288
12371TIP3   OH258603   0.136   6.436  14.267  0.3085  0.1825  0.2384
12371TIP3    H158604   0.120   6.522  14.307  1.3629  1.4738 -1.9444
12371TIP3    H258605   0.214   6.403  14.311 -1.5370 -1.0221  2.9814
12372TIP3   OH258606   0.655   3.899   2.071 -0.7915  0.3548  0.0464
12372TIP3    H158607   0.704   3.818   2.059 -1.7155 -0.2477  0.2392
12372TIP3    H258608   0.658   3.915   2.165  0.3613  1.1885 -0.1055
12373TIP3   OH258609   5.628   0.358   5.111 -0.3329 -0.4653  0.3208
12373TIP3    H158610   5.647   0.268   5.084  2.2286 -0.0501  0.4954
12373TIP3    H258611   5.581   0.396   5.037  0.6973 -1.2583 -0.7761
12374TIP3   OH258612   0.311   3.196  15.798 -0.6525 -0.3064 -0.2752
12374TIP3    H158613   0.359   3.235  15.725  0.6312  1.0463  1.2254
12374TIP3    H258614   0.362   3.119  15.823 -0.8795 -0.5447 -0.5359
12375TIP3   OH258615   5.071   3.584   6.745  0.3696 -0.1086 -0.3118
12375TIP3    H158616   5.064   3.515   6.678  0.7726 -0.4417 -0.0206
12375TIP3    H258617   4.981   3.598   6.775  0.1902  0.0192 -0.8994
12376TIP3   OH258618   0.341   2.747   3.363  0.4125  0.2448  0.1132
12376TIP3    H158619   0.412   2.812   3.370  0.0774  0.4960  1.4303
12376TIP3    H258620   0.336   2.708   3.450 -1.6007  0.7935  0.2908
12377TIP3   OH258621   3.993   3.772   1.215  0.2063 -0.3588 -0.0044
12377TIP3    H158622   3.908   3.746   1.252  0.0736 -1.3471 -0.9256
12377TIP3    H258623   4.044   3.802   1.290 -0.6331 -0.6588  0.7092
12378TIP3   OH258624   4.976   3.291  11.815  0.7498 -0.1908 -0.0896
12378TIP3    H158625   4.912   3.362  11.812  1.4482  0.4629  0.0588
12378TIP3    H258626   4.930   3.215  11.779 -0.3990  0.0285  0.8364
12379TIP3   OH258627   5.866   3.115  11.282 -0.0555  0.2452 -0.1600
12379TIP3    H158628   5.936   3.150  11.226 -1.1444 -0.5663 -2.1576
12379TIP3    H258629   5.883   3.021  11.284  0.4962  0.3550  1.7222
12380TIP3   OH258630   5.605   5.539   5.524 -0.5693  0.3455 -0.2384
12380TIP3    H158631   5.631   5.506   5.438 -0.6529  0.4712 -0.3127
12380TIP3    H258632   5.517   5.575   5.510  0.2209  2.2397 -0.5781
12381TIP3   OH258633   3.583   5.506   5.030  0.5304 -0.5298 -0.1117
12381TIP3    H158634   3.626   5.421   5.015 -2.3918 -1.9374 -1.3213
12381TIP3    H258635   3.582   5.516   5.125  1.6381 -1.4372  0.0246
12382TIP3   OH258636   6.372   3.649   1.485 -0.5112  0.3744 -0.0707
12382TIP3    H158637   6.452   3.615   1.523  1.3530  1.8672 -2.3837
12382TIP3    H258638   6.338   3.710   1.551  0.6159  0.1958  0.6905
12383TIP3   OH258639   5.538   1.357   5.930 -0.8087 -0.2812 -0.1525
12383TIP3    H158640   5.527   1.437   5.981 -1.7054  0.6351 -1.7093
12383TIP3    H258641   5.626   1.365   5.891 -1.1251  0.2405 -0.7722
12384TIP3   OH258642   3.060   4.613   3.261  0.3500 -0.1189  0.1547
12384TIP3    H158643   3.121   4.687   3.259 -0.3428  0.5498 -3.0998
12384TIP3    H258644   2.975   4.652   3.240 -0.6768 -1.4400  1.6722
12385TIP3   OH258645   6.238   5.811   1.883 -0.1344  0.6654  0.4066
12385TIP3    H158646   6.235   5.880   1.949  2.1452  1.3216 -0.0995
12385TIP3    H258647   6.254   5.856   1.800 -3.2366 -0.1091 -0.7668
12386TIP3   OH258648   4.512   0.731  12.111 -0.3250  0.0833  0.4797
12386TIP3    H158649   4.493   0.666  12.043 -1.3232  1.3417 -0.5093
12386TIP3    H258650   4.554   0.682  12.180 -0.9423 -1.6042 -0.2851
12387TIP3   OH258651   2.050   4.177   0.007 -0.3448  0.3648  0.4062
12387TIP3    H158652   2.058   4.104   0.069  1.0882  0.6164  0.5589
12387TIP3    H258653   1.988   4.237   0.048 -0.7141 -0.2725  0.7902
12388TIP3   OH258654   1.732   0.311   3.914 -0.6703 -0.2938  0.0286
12388TIP3    H158655   1.751   0.379   3.849  1.1112 -1.3752 -0.6646
12388TIP3    H258656   1.778   0.341   3.993 -0.0026 -0.6006 -0.2351
12389TIP3   OH258657   3.601   2.946  16.539 -1.1312  0.5426  0.0449
12389TIP3    H158658   3.635   2.940  16.628  2.7044 -0.6096 -1.2997
12389TIP3    H258659   3.579   2.856  16.515  0.7569  0.3174 -1.0641
12390TIP3   OH258660   4.517   3.391  12.335  0.0908 -0.2249 -0.0618
12390TIP3    H158661   4.588   3.348  12.382 -0.1857 -0.1930  0.4028
12390TIP3    H258662   4.534   3.374  12.243  0.9317  0.1424  0.0142
12391TIP3   OH258663   4.930   4.216   5.833  0.2372 -0.6342  0.1423
12391TIP3    H158664   5.022   4.226   5.809  0.4460  0.8056  1.3999
12391TIP3    H258665   4.885   4.286   5.787  0.6299  2.1060  3.5474
12392TIP3   OH258666   3.922   5.119  12.870 -0.2607  0.5324 -0.1967
12392TIP3    H158667   3.911   5.102  12.777 -0.6268 -0.7504  0.0623
12392TIP3    H258668   4.015   5.140  12.880  0.1971 -1.1112 -0.6281
12393TIP3   OH258669   1.319   2.905  14.756  0.1454  0.1602 -0.2187
12393TIP3    H158670   1.347   2.919  14.846 -0.4570  0.5253 -0.0842
12393TIP3    H258671   1.261   2.979  14.737 -0.8044 -0.6349 -0.4527
12394TIP3   OH258672   5.733   4.182   0.066 -0.4177  0.5450 -0.1575
12394TIP3    H158673   5.732   4.197  -0.029 -0.5148 -1.2007 -0.4611
12394TIP3    H258674   5.650   4.137   0.084 -0.1645  0.3981  0.6736
12395TIP3   OH258675   0.673   0.223  14.177 -0.3483 -0.0811  0.0210
12395TIP3    H158676   0.733   0.227  14.252 -1.0424  1.4021  0.5277
12395TIP3    H258677   0.639   0.133  14.179  0.3673 -0.3505  0.9059
12396TIP3   OH258678   4.759   5.690   4.992 -1.1088 -0.4333  0.5448
12396TIP3    H158679   4.814   5.648   4.926  0.0304 -0.1861  1.3126
12396TIP3    H258680   4.670   5.681   4.958 -0.4665  0.8526 -1.6656
12397TIP3   OH258681   3.461   2.389  16.978 -0.0434 -0.2223 -0.0203
12397TIP3    H158682   3.416   2.473  16.978  1.2850  0.5360  0.9720
12397TIP3    H258683   3.396   2.326  17.010 -0.7704  0.5825  0.1162
12398TIP3   OH258684   3.977   2.235   2.964 -0.5665  0.7146  0.6423
12398TIP3    H158685   4.030   2.314   2.958 -0.1481  0.6581  2.7817
12398TIP3    H258686   3.886   2.266   2.957 -0.4220  1.4476  1.8335
12399TIP3   OH258687   4.868   5.484   4.361 -0.5568 -0.3187 -0.3816
12399TIP3    H158688   4.855   5.437   4.443 -1.0348  0.0807 -0.2221
12399TIP3    H258689   4.920   5.561   4.385 -0.0173 -0.6078 -0.5938
12400TIP3   OH258690   3.904   1.934  10.839  0.0675  0.0322 -0.4481
12400TIP3    H158691   3.901   1.998  10.768  0.3957  0.7966  0.2088
12400TIP3    H258692   3.985   1.954  10.886 -0.6795  0.2613  0.7957
12401TIP3   OH258693   6.024   4.533   0.513 -0.2719 -0.1396  0.0719
12401TIP3    H158694   6.059   4.605   0.460 -0.2134 -0.4326 -0.2909
12401TIP3    H258695   5.949   4.500   0.463 -0.4500 -0.1718  0.3566
12402TIP3   OH258696   6.064   2.204   4.194 -0.1511  0.2160 -0.2004
12402TIP3    H158697   6.016   2.281   4.163  2.3961  0.9827 -2.7524
12402TIP3    H258698   6.027   2.131   4.143 -0.2942  0.3475 -0.2859
12403TIP3   OH258699   1.041   1.427   0.704 -0.7939 -0.0261  0.5368
12403TIP3    H158700   1.098   1.357   0.735 -1.5900 -0.8215  0.2546
12403TIP3    H258701   1.027   1.482   0.781  1.0980  0.7428  0.3936
12404TIP3   OH258702   4.844   2.870  14.226 -0.3641  0.2825  0.1742
12404TIP3    H158703   4.870   2.825  14.306  1.9372  2.5573  0.8491
12404TIP3    H258704   4.897   2.831  14.158  0.8118  1.1286  0.5659
12405TIP3   OH258705   2.306   6.529  13.285  0.0166 -0.2671 -0.3511
12405TIP3    H158706   2.310   6.549  13.191 -0.9214  0.8138 -0.1802
12405TIP3    H258707   2.368   6.590  13.325 -1.4891  1.1105 -0.0236
12406TIP3   OH258708   1.633   2.884  13.298  0.2681  0.7839 -0.0179
12406TIP3    H158709   1.668   2.915  13.214 -0.2503 -0.4179 -0.6915
12406TIP3    H258710   1.538   2.887  13.287  0.0871  2.8964  1.3977
12407TIP3   OH258711   1.698   6.613  10.157 -0.1552 -0.3163 -0.1685
12407TIP3    H158712   1.681   6.702  10.128  0.3884 -0.6275 -1.5137
12407TIP3    H258713   1.757   6.622  10.232  0.4536  0.4364 -0.7261
12408TIP3   OH258714   1.196   2.561  14.499 -0.0407  0.2373 -0.0803
12408TIP3    H158715   1.139   2.502  14.548 -1.0430  0.3516 -1.0614
12408TIP3    H258716   1.163   2.648  14.518 -0.2599  0.3007 -0.7242
12409TIP3   OH258717   5.803   4.166  11.524  0.3523 -0.0497 -0.1249
12409TIP3    H158718   5.842   4.154  11.610 -0.1542 -2.4813 -0.1597
12409TIP3    H258719   5.717   4.123  11.530 -0.7527  1.8839 -1.1436
12410TIP3   OH258720   3.655   0.587   3.523  0.4420 -0.0509 -0.3488
12410TIP3    H158721   3.608   0.589   3.439  0.8133  0.4229 -0.5519
12410TIP3    H258722   3.587   0.574   3.589  0.0247  0.6614 -0.6373
12411TIP3   OH258723   3.992   4.094   5.198  0.3457 -0.0582 -0.3343
12411TIP3    H158724   3.925   4.026   5.188 -0.0961  0.5017 -1.3904
12411TIP3    H258725   3.966   4.143   5.276  1.2244 -1.6856  1.0466
12412TIP3   OH258726   4.829   1.921   2.020 -0.3731 -0.2438  0.2863
12412TIP3    H158727   4.780   1.916   1.938  0.9084 -1.5530 -0.4615
12412TIP3    H258728   4.920   1.929   1.993  0.1298 -1.2397  1.5580
12413TIP3   OH258729   2.436   6.208   3.049 -0.2742 -0.1371  0.4750
12413TIP3    H158730   2.392   6.162   2.977  0.2269 -1.0143  0.7151
12413TIP3    H258731   2.475   6.285   3.007 -1.2525  0.1801  0.0956
12414TIP3   OH258732   4.097   6.634  11.054 -0.2717  0.2630  0.5833
12414TIP3    H158733   4.108   6.631  10.959  0.7629  1.5547  0.6467
12414TIP3    H258734   4.002   6.639  11.067 -0.4568  5.8981 -0.6670
12415TIP3   OH258735   5.100   6.743   2.371 -0.4286  0.1542 -0.2057
12415TIP3    H158736   5.101   6.833   2.404 -0.3141  0.0411  0.1080
12415TIP3    H258737   5.024   6.703   2.413 -0.4142  0.0744 -0.2572
12416TIP3   OH258738   1.587   1.181  15.095  0.3153 -0.2548  0.6526
12416TIP3    H158739   1.585   1.212  15.004 -1.2559 -1.0103  0.3817
12416TIP3    H258740   1.637   1.099  15.091 -0.8697 -0.9907  0.1773
12417TIP3   OH258741   3.173   4.427  10.432 -0.0645  0.8694 -0.1331
12417TIP3    H158742   3.126   4.430  10.516  0.5941 -0.8856  0.3390
12417TIP3    H258743   3.165   4.516  10.398  1.2355  2.1895  2.6564
12418TIP3   OH258744   4.369   6.754   4.407 -0.2085 -0.1531  0.4099
12418TIP3    H158745   4.299   6.700   4.444  0.6518  0.3180  2.8887
12418TIP3    H258746   4.447   6.732   4.458  0.7284  1.6152 -0.1677
12419TIP3   OH258747   5.609   3.564  14.598 -0.2806  0.1799 -0.4805
12419TIP3    H158748   5.639   3.639  14.546  1.3236  1.8029  2.5327
12419TIP3    H258749   5.690   3.521  14.626 -1.1663 -2.1709 -1.3102
12420TIP3   OH258750   3.226   6.159   6.260  0.0003  0.3504 -0.5311
12420TIP3    H158751   3.276   6.077   6.251  0.6672  0.8058 -1.0634
12420TIP3    H258752   3.150   6.134   6.312  0.8638 -0.3239  0.4497
12421TIP3   OH258753   0.500   0.927  14.636 -0.3197  0.4298  0.2263
12421TIP3    H158754   0.536   1.003  14.590  0.3873 -0.8046 -1.3622
12421TIP3    H258755   0.573   0.866  14.642 -1.0431 -0.3928  0.9105
12422TIP3   OH258756   6.211   6.472   5.677  0.0865  0.0881  0.4209
12422TIP3    H158757   6.141   6.508   5.622  0.8485  2.2979  0.8240
12422TIP3    H258758   6.175   6.473   5.766 -0.4412 -1.6877  0.2703
12423TIP3   OH258759   2.994   3.521  11.506  0.1240 -0.7284 -0.7224
12423TIP3    H158760   3.007   3.431  11.478  1.5810 -0.4851 -0.8725
12423TIP3    H258761   2.902   3.524  11.534  0.8271 -3.0938  2.3352
12424TIP3   OH258762   5.956   3.283  17.024 -0.6230 -0.1563  1.3427
12424TIP3    H158763   5.888   3.329  17.073 -1.6753 -1.3884  1.0959
12424TIP3    H258764   5.925   3.286  16.933 -0.5555 -1.0312  1.2778
12425TIP3   OH258765   0.721   1.391  12.794 -0.2143  0.1527  0.4370
12425TIP3    H158766   0.699   1.318  12.852  0.4364 -0.9593 -0.6611
12425TIP3    H258767   0.786   1.441  12.842 -1.4568  0.6694  1.6624
12426TIP3   OH258768   5.013   0.176  16.826  0.1152 -0.0790  0.4988
12426TIP3    H158769   5.036   0.139  16.741  2.4936 -0.9767  1.4490
12426TIP3    H258770   5.056   0.262  16.827 -0.6315  0.3064  0.4933
12427TIP3   OH258771   3.526   0.269   0.359  0.6126  0.6208  0.0953
12427TIP3    H158772   3.519   0.184   0.317  1.6496  0.4197  0.3118
12427TIP3    H258773   3.462   0.324   0.313 -0.6156 -0.4627  0.4637
12428TIP3   OH258774   6.486   5.964  13.654 -0.0862 -0.0557  0.8927
12428TIP3    H158775   6.491   5.952  13.559  1.5575  0.6960  0.8501
12428TIP3    H258776   6.484   5.875  13.689 -0.4244 -0.3404  0.1716
12429TIP3   OH258777   2.775   6.303  14.001  0.1072  0.1226 -0.6147
12429TIP3    H158778   2.721   6.347  14.067  0.3119 -0.1075 -0.2864
12429TIP3    H258779   2.723   6.306  13.921 -1.9239 -2.9422  0.3769
12430TIP3   OH258780   6.720   4.471   0.643 -0.4337  0.0900 -0.0956
12430TIP3    H158781   6.638   4.477   0.593  0.0208 -1.9733 -1.1926
12430TIP3    H258782   6.692   4.441   0.730 -0.8837 -0.3269 -0.3758
12431TIP3   OH258783   2.108   2.721   5.957  0.2186  0.5701 -0.6348
12431TIP3    H158784   2.166   2.662   6.005 -1.3639 -0.7673 -0.2759
12431TIP3    H258785   2.122   2.699   5.865 -0.3610 -0.3991 -0.5055
12432TIP3   OH258786   4.745   6.621  15.696  0.0004  0.5049 -0.0627
12432TIP3    H158787   4.746   6.693  15.759 -0.0260 -0.4594  1.0939
12432TIP3    H258788   4.808   6.646  15.629 -0.5297  1.9058 -0.0510
12433TIP3   OH258789   3.286   3.627   3.463 -0.5113  0.2493 -0.1532
12433TIP3    H158790   3.366   3.633   3.410  0.5996  1.4270  1.5640
12433TIP3    H258791   3.247   3.714   3.457 -1.0656  0.0106 -0.0628
12434TIP3   OH258792   6.356   2.995   0.974 -0.1429  0.2496 -0.4819
12434TIP3    H158793   6.383   3.050   0.901  3.0443 -0.2929  0.1402
12434TIP3    H258794   6.403   3.030   1.050 -2.5580  0.1660  1.1817
12435TIP3   OH258795   1.584   5.297   0.328 -0.0711 -0.5855  0.0884
12435TIP3    H158796   1.582   5.297   0.424 -0.0580  0.9997  0.1112
12435TIP3    H258797   1.526   5.368   0.303  3.7193  2.5273 -0.9038
12436TIP3   OH258798   3.438   3.359   6.402 -0.3205  0.0799 -0.4218
12436TIP3    H158799   3.493   3.280   6.398  0.4269  0.5414  0.3800
12436TIP3    H258800   3.349   3.326   6.414 -0.1261 -0.6630 -0.9827
12437TIP3   OH258801   1.917   4.497  15.572 -0.2270  0.2404  0.1592
12437TIP3    H158802   1.932   4.527  15.482 -1.4766 -1.9849 -0.8834
12437TIP3    H258803   1.825   4.516  15.589 -0.6063 -1.3551  0.0665
12438TIP3   OH258804   1.590   2.362  16.063  0.5964 -0.3004  0.6447
12438TIP3    H158805   1.630   2.281  16.096  0.1552 -0.4287  0.8853
12438TIP3    H258806   1.497   2.352  16.085  0.5887  0.3995  0.9241
12439TIP3   OH258807   0.326   3.641   2.950  0.7153  0.2334 -0.0451
12439TIP3    H158808   0.380   3.691   3.011  0.8255  1.1152 -0.8429
12439TIP3    H258809   0.301   3.562   2.999  2.2646  0.0570  0.5288
12440TIP3   OH258810   1.840   1.300  14.991 -0.1244 -0.0670  0.5454
12440TIP3    H158811   1.917   1.286  14.937 -1.0916 -1.4682 -0.5414
12440TIP3    H258812   1.804   1.384  14.961 -0.7168 -0.8770 -1.1233
12441TIP3   OH258813   5.192   2.856   5.647  0.1488  0.0418 -0.8084
12441TIP3    H158814   5.169   2.777   5.598 -0.5361 -0.5156  0.3647
12441TIP3    H258815   5.266   2.829   5.701 -1.8699 -0.7543  1.7842
12442TIP3   OH258816   6.332   4.144  15.895  0.3731 -0.2863  0.2077
12442TIP3    H158817   6.282   4.101  15.826 -1.3667  1.9019 -0.0206
12442TIP3    H258818   6.348   4.076  15.960 -1.5332 -1.4474 -0.4700
12443TIP3   OH258819   0.190   2.549  14.344  0.1610 -0.0086  0.1717
12443TIP3    H158820   0.126   2.567  14.413 -0.3901  0.9925 -0.5703
12443TIP3    H258821   0.257   2.616  14.354  0.2812 -0.0971 -0.0228
12444TIP3   OH258822   5.666   5.857   3.527 -0.1965  0.0347  0.2556
12444TIP3    H158823   5.631   5.881   3.440  1.3738  2.8734  0.2838
12444TIP3    H258824   5.753   5.822   3.509  0.0208  0.3677  0.6381
12445TIP3   OH258825   4.557   5.599  15.843  0.2558  0.4227 -0.7137
12445TIP3    H158826   4.611   5.677  15.856 -0.3033  0.9133 -1.3252
12445TIP3    H258827   4.527   5.604  15.753  1.0310 -1.0325 -1.0835
12446TIP3   OH258828   1.771   5.782  12.509 -0.3750 -0.1726  0.0098
12446TIP3    H158829   1.688   5.792  12.463  0.2038  1.4710 -0.7389
12446TIP3    H258830   1.815   5.866  12.498  0.1921 -0.0047  2.8285
12447TIP3   OH258831   5.825   6.278   4.468  0.0470  0.1253  0.3081
12447TIP3    H158832   5.833   6.373   4.476 -1.1264  0.2621  0.1466
12447TIP3    H258833   5.915   6.246   4.462  0.4668  1.1980  0.6405
12448TIP3   OH258834   2.551   6.369  12.657 -0.2410  0.0928  0.0579
12448TIP3    H158835   2.605   6.297  12.689 -0.1134  0.2434  0.1795
12448TIP3    H258836   2.599   6.404  12.582 -1.1180 -1.0439 -1.0943
12449TIP3   OH258837   3.955   1.319  11.380  0.3936 -0.7401 -0.2397
12449TIP3    H158838   3.929   1.310  11.289  1.2147  2.4039 -0.8997
12449TIP3    H258839   4.048   1.295  11.381  0.3648 -0.8514 -0.2034
12450TIP3   OH258840   5.705   1.186  15.623  0.0002  0.4324  0.1676
12450TIP3    H158841   5.633   1.242  15.651 -0.5692 -0.5606  0.7150
12450TIP3    H258842   5.685   1.100  15.658  0.6090 -0.2563 -1.0879
12451TIP3   OH258843   3.663   6.003  12.875  0.5732 -0.5060 -0.0216
12451TIP3    H158844   3.681   5.910  12.863  0.8645 -0.5839  0.9154
12451TIP3    H258845   3.689   6.021  12.965 -0.1727  0.3213  0.0454
12452TIP3   OH258846   4.318   3.104  14.026  0.4226 -0.2275  0.0054
12452TIP3    H158847   4.304   3.032  14.087 -1.0028 -0.7672 -0.9244
12452TIP3    H258848   4.337   3.180  14.082  0.3394 -0.9705  1.0575
12453TIP3   OH258849   3.707   2.629  11.486  0.6391 -0.1784 -0.3053
12453TIP3    H158850   3.721   2.717  11.522  0.2067 -0.1560 -0.1860
12453TIP3    H258851   3.737   2.636  11.395  0.3719  0.1639 -0.3700
12454TIP3   OH258852   3.008   1.664   4.760 -0.4335  0.0891  0.0511
12454TIP3    H158853   3.071   1.650   4.830  1.7584  1.1126 -1.5938
12454TIP3    H258854   2.957   1.740   4.788 -1.2864 -1.0002  1.5857
12455TIP3   OH258855   4.540   2.445  13.137 -0.0482  0.0866 -0.3477
12455TIP3    H158856   4.557   2.503  13.211  0.7631  1.7872 -1.8051
12455TIP3    H258857   4.539   2.357  13.176  1.5476  0.7987  1.4945
12456TIP3   OH258858   2.276   0.766  11.372  0.4955  0.6573 -0.2824
12456TIP3    H158859   2.272   0.819  11.451  0.2014 -0.4207  0.4523
12456TIP3    H258860   2.369   0.746  11.361  0.4971  0.5046  0.0036
12457TIP3   OH258861   4.099   4.195   0.052 -0.2567  0.5222 -0.4221
12457TIP3    H158862   4.160   4.267   0.038  0.6082 -0.2036 -0.5090
12457TIP3    H258863   4.131   4.126  -0.007 -0.7955 -0.0868 -0.0088
12458TIP3   OH258864   5.551   6.481   4.533  0.1451  0.8179 -0.3127
12458TIP3    H158865   5.545   6.445   4.621 -0.9586  0.1913 -0.6277
12458TIP3    H258866   5.642   6.469   4.508  0.7030  1.8398  1.0819
12459TIP3   OH258867   2.085   2.120   0.164  0.5548  0.1909 -0.6013
12459TIP3    H158868   2.074   2.079   0.078 -0.4718 -0.7117 -0.0506
12459TIP3    H258869   2.070   2.213   0.147  0.3417  0.0235 -1.3961
12460TIP3   OH258870   4.725   2.560  12.427 -0.0047  0.3669  0.0310
12460TIP3    H158871   4.745   2.653  12.443  0.2734  0.6966 -1.9962
12460TIP3    H258872   4.655   2.561  12.362 -1.8701 -0.8754  1.8931
12461TIP3   OH258873   6.778   6.193   2.409 -0.2533  0.3445 -0.1430
12461TIP3    H158874   6.785   6.189   2.504  0.6769  0.3577 -0.2056
12461TIP3    H258875   6.828   6.118   2.378 -0.3669  0.4669 -0.6257
12462TIP3   OH258876   2.642   6.367   1.855  0.4732  0.2311  0.2030
12462TIP3    H158877   2.682   6.287   1.823  1.0583  0.3342  0.6567
12462TIP3    H258878   2.549   6.346   1.864  0.5973 -0.3421  0.1535
12463TIP3   OH258879   5.078   2.401  13.624  0.5107  0.3523 -0.0060
12463TIP3    H158880   5.121   2.339  13.683 -0.9916  0.3768  1.1508
12463TIP3    H258881   5.143   2.471  13.611  1.2548 -0.1903  0.7403
12464TIP3   OH258882   2.237   6.274   5.675 -0.0220 -0.1267  0.2201
12464TIP3    H158883   2.172   6.345   5.682  1.0684  1.1990 -1.9030
12464TIP3    H258884   2.215   6.229   5.593 -0.2924 -1.8878  1.2122
12465TIP3   OH258885   2.628   4.270   0.486 -0.4811  0.0845 -0.3902
12465TIP3    H158886   2.544   4.234   0.513  0.6847 -1.9973  0.7101
12465TIP3    H258887   2.631   4.257   0.391 -1.1595 -0.3716 -0.3563
12466TIP3   OH258888   0.307   0.368   6.224 -0.3347  0.0210  0.4349
12466TIP3    H158889   0.213   0.353   6.235 -0.3154 -2.2535 -1.5813
12466TIP3    H258890   0.349   0.306   6.283 -0.1561 -0.4470 -0.1643
12467TIP3   OH258891   0.114   6.062  16.190 -0.2202 -0.3247  0.4605
12467TIP3    H158892   0.182   5.997  16.206 -0.1084 -0.3259 -0.0020
12467TIP3    H258893   0.032   6.016  16.204 -0.1414 -0.5584  0.1583
12468TIP3   OH258894   0.821   5.022  16.529  0.1132 -0.4340 -0.1805
12468TIP3    H158895   0.746   5.035  16.587  0.2584 -2.9203  0.6550
12468TIP3    H258896   0.794   4.953  16.469  0.9176  0.2925 -1.4324
12469TIP3   OH258897   0.387   5.753   1.441  0.4662 -0.1766  0.2123
12469TIP3    H158898   0.432   5.716   1.517 -1.0454  0.0640  1.2796
12469TIP3    H258899   0.317   5.690   1.422 -0.0896  0.5040 -0.0307
12470TIP3   OH258900   6.362   5.873   0.766  0.3592 -0.2097 -0.0845
12470TIP3    H158901   6.284   5.904   0.812  0.4962  0.9160 -0.5938
12470TIP3    H258902   6.422   5.947   0.767  0.7249 -0.4640 -1.2747
12471TIP3   OH258903   0.649   5.924   4.582  0.2588 -0.0169 -0.1751
12471TIP3    H158904   0.667   5.836   4.614  1.2139  0.4452  0.5964
12471TIP3    H258905   0.669   5.982   4.655  2.1826  1.0541 -1.4644
12472TIP3   OH258906   0.804   0.599   5.601 -0.1770  0.0484 -0.1053
12472TIP3    H158907   0.787   0.610   5.508  1.2192 -0.0193 -0.3895
12472TIP3    H258908   0.811   0.688   5.635  0.9513  0.0930 -0.4075
12473TIP3   OH258909   1.571   3.885  13.678  0.0148  0.5893 -0.3769
12473TIP3    H158910   1.618   3.870  13.760 -1.7912  0.0866  0.6130
12473TIP3    H258911   1.559   3.798  13.641 -2.1261  0.4218  0.5749
12474TIP3   OH258912   2.552   6.046   3.235 -0.0333  0.1528 -0.0920
12474TIP3    H158913   2.488   6.102   3.191 -0.5121 -0.3061  0.0124
12474TIP3    H258914   2.551   6.074   3.326 -0.1871  0.0492 -0.0625
12475TIP3   OH258915   6.409   3.742  15.248 -0.0622 -0.1178 -0.4488
12475TIP3    H158916   6.410   3.805  15.176 -0.1624 -2.3550 -2.4916
12475TIP3    H258917   6.415   3.657  15.207  0.7297 -1.4962  2.2662
12476TIP3   OH258918   3.581   0.631  17.049  0.3202 -0.1281  0.4075
12476TIP3    H158919   3.645   0.591  17.108 -0.6811 -1.4853  0.6211
12476TIP3    H258920   3.524   0.683  17.106  1.5043  1.5041  0.1549
12477TIP3   OH258921   5.572   5.199  11.904  0.4096 -0.4038  0.4699
12477TIP3    H158922   5.590   5.189  11.810 -2.5678  1.9364 -0.5428
12477TIP3    H258923   5.486   5.159  11.916  0.0228  0.7528  1.7893
12478TIP3   OH258924   0.102   3.362  15.242 -0.2888 -0.2783 -0.4343
12478TIP3    H158925   0.126   3.277  15.206  0.8289  0.3951 -1.3528
12478TIP3    H258926   0.026   3.345  15.297  1.0650 -2.2337  0.9940
12479TIP3   OH258927   2.100   5.867   5.650 -0.4382  0.0161  0.5845
12479TIP3    H158928   2.110   5.855   5.555  0.2262  1.4277  0.4578
12479TIP3    H258929   2.051   5.789   5.678 -4.2704  1.3385 -1.5461
12480TIP3   OH258930   0.480   2.227  12.676 -0.0946 -0.2123  0.3854
12480TIP3    H158931   0.433   2.177  12.743 -0.6702  0.7864  0.7544
12480TIP3    H258932   0.532   2.290  12.725 -1.0996  1.0461 -0.0754
12481TIP3   OH258933   4.888   2.111  12.055  0.4649  0.5894  0.0420
12481TIP3    H158934   4.801   2.126  12.092  0.2207 -0.0137 -0.2782
12481TIP3    H258935   4.872   2.094  11.963  1.2488  4.5602 -1.0376
12482TIP3   OH258936   2.564   0.699  11.761 -0.6450 -0.3774 -0.2103
12482TIP3    H158937   2.579   0.620  11.709  1.2742  0.2928 -0.7872
12482TIP3    H258938   2.609   0.682  11.844  2.3622  1.0608 -1.3657
12483TIP3   OH258939   6.300   4.471  16.346  0.0071 -0.8140 -0.9897
12483TIP3    H158940   6.319   4.527  16.422 -2.7569  0.0443 -0.8155
12483TIP3    H258941   6.351   4.391  16.362  1.1658  0.1851  0.6487
12484TIP3   OH258942   2.046   3.879   2.364  0.8573  0.2118  0.0852
12484TIP3    H158943   2.074   3.970   2.367 -0.9840  0.7953  1.0549
12484TIP3    H258944   1.978   3.872   2.431  0.3935 -1.6762 -0.5071
12485TIP3   OH258945   1.335   2.863  12.887  0.3666 -0.1181  0.2069
12485TIP3    H158946   1.419   2.905  12.868 -0.3527  0.8554 -0.9109
12485TIP3    H258947   1.359   2.776  12.920  1.8760  0.9281  2.1181
12486TIP3   OH258948   1.529   0.052   4.686  0.0472 -0.0890  0.3669
12486TIP3    H158949   1.563   0.134   4.651 -0.0313 -0.0136  0.4668
12486TIP3    H258950   1.534  -0.009   4.612  0.3566 -0.0681  0.3693
12487TIP3   OH258951   5.128   1.550   1.624  0.5014 -0.0056  0.1115
12487TIP3    H158952   5.112   1.643   1.636  2.9439  0.4825  0.2716
12487TIP3    H258953   5.136   1.515   1.713 -0.4266 -0.3866  0.0534
12488TIP3   OH258954   5.073   0.785   1.370 -0.0465  0.2528  0.2511
12488TIP3    H158955   4.995   0.734   1.349  1.0109 -0.4661 -2.4366
12488TIP3    H258956   5.096   0.829   1.288  2.3690  0.3875  0.9088
12489TIP3   OH258957   3.842   3.517   1.249 -0.3713  0.7427 -0.1260
12489TIP3    H158958   3.850   3.512   1.345  1.2158  2.0651 -0.1376
12489TIP3    H258959   3.748   3.511   1.233 -0.6546  0.1824  1.4876
12490TIP3   OH258960   0.954   3.681  13.617  0.1861 -0.1658 -0.8127
12490TIP3    H158961   0.865   3.648  13.634  0.4629 -2.2221 -2.8465
12490TIP3    H258962   1.002   3.661  13.697 -0.5013 -1.8054 -0.7620
12491TIP3   OH258963   5.712   5.510   6.740  0.0387 -0.2664 -0.3259
12491TIP3    H158964   5.726   5.604   6.724 -0.6778  0.1692  1.3429
12491TIP3    H258965   5.752   5.467   6.665  1.3748  1.3292 -0.5967
12492TIP3   OH258966   0.253   1.502   3.386 -0.0396  0.5662 -0.1460
12492TIP3    H158967   0.188   1.540   3.328 -1.4310 -1.5071 -0.0524
12492TIP3    H258968   0.232   1.536   3.473 -1.1129 -0.1895 -0.0969
12493TIP3   OH258969   2.049   3.466  13.275  0.0880  0.0466  0.3784
12493TIP3    H158970   2.027   3.423  13.192 -1.9041  1.7299 -0.0635
12493TIP3    H258971   2.104   3.540  13.249  1.1794 -0.5788  0.8298
12494TIP3   OH258972   2.975   2.530   0.307  0.4795 -0.3105  0.1004
12494TIP3    H158973   2.961   2.574   0.223  1.5389 -1.0956 -0.5125
12494TIP3    H258974   3.006   2.600   0.366  1.4607 -0.0768 -0.6625
12495TIP3   OH258975   4.720   4.608  14.255 -0.1752 -0.1583  0.0329
12495TIP3    H158976   4.808   4.621  14.290 -0.5831 -0.4336  1.2286
12495TIP3    H258977   4.670   4.682  14.289 -0.1519  0.6471 -1.6239
12496TIP3   OH258978   1.795   2.936   4.577 -0.8203  0.6350 -0.4280
12496TIP3    H158979   1.786   2.849   4.615  0.3629 -0.1682 -1.9143
12496TIP3    H258980   1.711   2.952   4.534 -0.9505  0.1086 -0.3747
12497TIP3   OH258981   2.330   3.039   4.635 -0.2769 -0.0861  0.6728
12497TIP3    H158982   2.331   3.037   4.731 -0.4961 -3.1646  0.7209
12497TIP3    H258983   2.242   3.008   4.612 -0.0934  0.2410 -0.5126
12498TIP3   OH258984   0.773   5.219  14.693 -0.0904 -0.3108 -0.1863
12498TIP3    H158985   0.831   5.283  14.735  0.3285 -0.4512 -0.5391
12498TIP3    H258986   0.781   5.237  14.600  2.0060 -2.4619 -0.5131
12499TIP3   OH258987   0.030   5.843  11.415 -0.0068  0.3406 -0.1543
12499TIP3    H158988   0.088   5.912  11.383  1.3877  0.8183  2.9804
12499TIP3    H258989  -0.051   5.889  11.437  0.3243  0.7000  0.3499
12500TIP3   OH258990   1.196   6.802  16.258 -0.0613 -0.1401 -0.4664
12500TIP3    H158991   1.249   6.858  16.315  1.1809 -1.4968 -0.2344
12500TIP3    H258992   1.241   6.718  16.258 -0.9082 -0.6389 -2.2272
12501TIP3   OH258993   0.826   6.020   5.464 -0.3749 -0.2842 -0.6368
12501TIP3    H158994   0.833   6.011   5.559  0.2653 -0.3569 -0.6848
12501TIP3    H258995   0.917   6.031   5.434 -0.5427 -0.5373 -1.2635
12502TIP3   OH258996   1.679   2.374  11.090 -0.2403 -0.7894  0.2055
12502TIP3    H158997   1.654   2.285  11.065  0.2299 -0.6721 -0.7318
12502TIP3    H258998   1.773   2.368  11.109 -0.2437 -0.5282  0.3065
12503TIP3   OH258999   5.177   5.362  15.623  0.9094  0.1993 -0.1774
12503TIP3    H159000   5.111   5.328  15.684  1.0420 -1.1834 -0.7825
12503TIP3    H259001   5.131   5.433  15.577 -0.6426 -1.5872 -1.5285
12504TIP3   OH259002   5.514   1.434   1.371 -0.1840 -0.1737  0.1483
12504TIP3    H159003   5.433   1.413   1.324  1.3256  1.3160 -3.4231
12504TIP3    H259004   5.583   1.392   1.320  1.5155  0.5120  1.7847
12505TIP3   OH259005   5.173   4.617   3.044  0.6193  0.3347  0.3145
12505TIP3    H159006   5.240   4.684   3.059  0.0505  1.0461 -0.2214
12505TIP3    H259007   5.092   4.656   3.077  0.5299 -0.7148  1.4225
12506TIP3   OH259008   4.276   0.785   0.208  0.5516  0.4100 -0.5660
12506TIP3    H159009   4.193   0.831   0.197  0.5080  0.5020  0.0726
12506TIP3    H259010   4.254   0.692   0.199 -0.0379  0.2700  1.6982
12507TIP3   OH259011   4.942   6.109   5.323 -0.4646 -0.0244  0.3588
12507TIP3    H159012   4.865   6.058   5.347  0.5025 -1.5669  0.3149
12507TIP3    H259013   5.008   6.086   5.389  0.1247  0.8424  0.0909
12508TIP3   OH259014   1.378   2.509  12.409  0.0873  0.3730  0.4616
12508TIP3    H159015   1.374   2.598  12.374  0.8043  0.7615  1.3178
12508TIP3    H259016   1.436   2.462  12.349  0.7956  0.8567  0.7608
12509TIP3   OH259017   3.731   6.195  14.245  0.4984 -0.3544 -0.3434
12509TIP3    H159018   3.808   6.170  14.295  0.0761 -0.5583  0.2175
12509TIP3    H259019   3.674   6.119  14.248  0.5336 -0.4346 -1.2927
12510TIP3   OH259020   1.083   0.721   9.932 -0.0121  0.6660  0.1685
12510TIP3    H159021   0.994   0.686   9.926 -0.3243  1.3470  0.6574
12510TIP3    H259022   1.134   0.667   9.873 -1.2585  1.8508 -2.1368
12511TIP3   OH259023   0.857   1.188  10.826  0.2900  0.3372 -0.1908
12511TIP3    H159024   0.802   1.150  10.757 -0.1913 -0.8958  0.8264
12511TIP3    H259025   0.947   1.175  10.796  0.0717  2.5185 -1.9533
12512TIP3   OH259026   5.123   3.883   3.511 -0.4508 -0.2021  0.0151
12512TIP3    H159027   5.115   3.794   3.547 -0.8864 -0.1523  0.0462
12512TIP3    H259028   5.133   3.869   3.417  0.6944 -0.3328  0.1489
12513TIP3   OH259029   1.421   5.730  15.487  0.2961 -0.2598  0.2841
12513TIP3    H159030   1.439   5.727  15.582 -3.8513  0.1206  1.2469
12513TIP3    H259031   1.477   5.801  15.455  1.2683  0.1165  2.5723
12514TIP3   OH259032   0.305   4.510  16.699  0.0119 -0.2549 -0.1546
12514TIP3    H159033   0.361   4.587  16.703  0.9276 -0.8246 -1.2092
12514TIP3    H259034   0.222   4.542  16.663  0.4547  0.2099 -0.7849
12515TIP3   OH259035   1.160   5.779   5.099  0.2958  0.1599 -0.1098
12515TIP3    H159036   1.112   5.860   5.078 -0.5200 -0.2881 -0.0358
12515TIP3    H259037   1.193   5.748   5.015 -0.0044  0.1908 -0.2396
12516TIP3   OH259038   2.117   3.013   2.162  0.2050 -0.4682  0.1317
12516TIP3    H159039   2.087   2.952   2.094  0.3115 -0.1601 -0.1965
12516TIP3    H259040   2.193   2.970   2.201  0.6759 -0.2587 -0.5394
12517TIP3   OH259041   4.169   5.148   4.584  0.6504  0.0980 -0.0266
12517TIP3    H159042   4.109   5.074   4.590  0.0474  0.5171 -0.7841
12517TIP3    H259043   4.213   5.150   4.669  0.6514 -1.1054  0.0166
12518TIP3   OH259044   2.002   4.317  11.845 -0.1685  0.5073  0.6990
12518TIP3    H159045   2.007   4.413  11.851 -0.1837  0.5261  0.4457
12518TIP3    H259046   1.917   4.300  11.804  0.3955  0.4482 -0.4880
12519TIP3   OH259047   1.868   0.946   1.435  0.8732  0.2415  0.5231
12519TIP3    H159048   1.792   0.903   1.474  0.8074  0.4693  0.6528
12519TIP3    H259049   1.854   0.939   1.341 -1.4501  3.8447  0.4063
12520TIP3   OH259050   6.358   3.109  14.756 -0.0511  0.3656 -0.0732
12520TIP3    H159051   6.372   3.066  14.840  0.9678  0.4064 -0.2051
12520TIP3    H259052   6.368   3.202  14.774 -1.6501  0.5344  0.0944
12521TIP3   OH259053   5.291   3.303   6.503  0.1628 -0.0901  0.2748
12521TIP3    H159054   5.290   3.255   6.586 -0.5244  1.5193  1.2583
12521TIP3    H259055   5.361   3.367   6.513  0.2737 -0.0803 -0.5100
12522TIP3   OH259056   5.915   0.736  13.869  0.4873  0.4812  0.5735
12522TIP3    H159057   5.831   0.690  13.860  0.6419  0.4158 -0.7033
12522TIP3    H259058   5.952   0.703  13.950 -0.3822 -0.0592  0.7640
12523TIP3   OH259059   6.717   0.218   5.381 -0.5016 -0.2977 -0.8923
12523TIP3    H159060   6.756   0.170   5.454  0.6136  0.2256 -1.1124
12523TIP3    H259061   6.627   0.235   5.408 -0.1695 -0.3181  0.2582
12524TIP3   OH259062   3.006   2.635  17.024 -0.2588  0.2995 -0.1609
12524TIP3    H159063   3.033   2.659  16.935  0.2752 -1.3846 -0.5003
12524TIP3    H259064   2.954   2.555  17.012  0.1589 -0.1787  1.0658
12525TIP3   OH259065   6.600   0.555   4.670 -0.6734 -0.4833 -0.2315
12525TIP3    H159066   6.559   0.497   4.734  0.6544  0.8813  1.9845
12525TIP3    H259067   6.693   0.556   4.694 -0.4765  1.6973 -0.8356
12526TIP3   OH259068   0.121   2.532   1.018 -1.0937 -0.0936 -0.4571
12526TIP3    H159069   0.182   2.467   1.053 -0.3421  1.3203  0.9927
12526TIP3    H259070   0.177   2.600   0.981 -1.8251  0.4809 -0.5404
12527TIP3   OH259071   6.494   3.751   6.625  0.0211  0.3621 -0.0978
12527TIP3    H159072   6.552   3.764   6.550  0.9825  0.7066  0.6777
12527TIP3    H259073   6.413   3.798   6.601  0.3165  0.4802 -0.8994
12528TIP3   OH259074   1.897   4.386   4.715 -0.3953  0.2754  0.0946
12528TIP3    H159075   1.946   4.379   4.798 -2.8595  2.7215  1.9340
12528TIP3    H259076   1.833   4.316   4.719 -1.1717  0.9913  0.8409
12529TIP3   OH259077   4.492   5.784   3.232  0.0911  0.1919  0.3867
12529TIP3    H159078   4.544   5.833   3.295  0.8655  0.5381 -0.4924
12529TIP3    H259079   4.403   5.789   3.265  0.6215 -0.5659  2.0259
12530TIP3   OH259080   6.404   3.764  16.404 -0.1654  0.4135 -0.5466
12530TIP3    H159081   6.337   3.803  16.460 -1.4281 -2.6446  0.2846
12530TIP3    H259082   6.383   3.795  16.316 -0.6638  2.0368  0.0962
12531TIP3   OH259083   2.398   5.651   1.787  0.1082  0.5714 -0.7749
12531TIP3    H159084   2.468   5.711   1.813  0.3612  0.1334 -0.4341
12531TIP3    H259085   2.401   5.581   1.852 -0.3159  0.2907 -1.0538
12532TIP3   OH259086   3.128   6.013  14.681  0.4958 -0.4168  0.1634
12532TIP3    H159087   3.168   5.934  14.719  2.0376 -0.2783 -1.0698
12532TIP3    H259088   3.146   6.006  14.588  0.7106  1.4449  0.0396
12533TIP3   OH259089   1.235   1.364   1.833 -0.2007 -0.0206  0.0865
12533TIP3    H159090   1.225   1.456   1.807  2.2926  0.3842  0.3104
12533TIP3    H259091   1.327   1.345   1.817 -0.6210 -2.4418  0.2825
12534TIP3   OH259092   3.666   3.332   1.447 -0.0200 -0.0193  0.2127
12534TIP3    H159093   3.644   3.320   1.354 -0.1069 -0.1193  0.2467
12534TIP3    H259094   3.581   3.335   1.491  0.0516 -1.6175  0.5012
12535TIP3   OH259095   5.675   4.048  12.496  0.0875 -0.3344  0.3914
12535TIP3    H159096   5.618   4.080  12.427  0.9271  0.9163  0.2528
12535TIP3    H259097   5.662   4.109  12.569  0.7025 -0.4665  0.6199
12536TIP3   OH259098   5.676   2.363   2.764 -0.3305 -0.2594 -0.5211
12536TIP3    H159099   5.669   2.267   2.764  1.8006 -0.5288  1.9589
12536TIP3    H259100   5.750   2.382   2.707 -0.7086 -0.0820 -0.9565
12537TIP3   OH259101   6.707   3.257  13.811 -0.1521  0.5289 -0.3937
12537TIP3    H159102   6.702   3.176  13.862  0.3202  0.7826  0.0580
12537TIP3    H259103   6.703   3.227  13.720 -2.9102  0.2058 -0.2315
12538TIP3   OH259104   6.458   2.410   0.179  0.1687  0.5372  0.1062
12538TIP3    H159105   6.402   2.347   0.226  0.1685  0.5809  0.1645
12538TIP3    H259106   6.398   2.455   0.119  0.3429 -0.1958 -0.6362
12539TIP3   OH259107   6.557   2.216   5.096 -0.0434 -0.1673  0.0891
12539TIP3    H159108   6.501   2.188   5.023 -1.2898  1.4510  0.3714
12539TIP3    H259109   6.496   2.228   5.169  0.7848  0.8835  0.6268
12540TIP3   OH259110   0.521   6.720  11.955  0.1243  0.5454 -0.5569
12540TIP3    H159111   0.468   6.741  12.033 -1.2243 -0.1698 -1.2432
12540TIP3    H259112   0.492   6.632  11.930  0.1737  0.9622 -2.1583
12541TIP3   OH259113   0.496   1.563  15.851  0.4663  0.6171 -0.6147
12541TIP3    H159114   0.528   1.530  15.767  0.6432  1.7747 -1.0189
12541TIP3    H259115   0.403   1.541  15.852 -0.1242  2.7164 -2.2414
12542TIP3   OH259116   4.749   5.318   2.538 -0.3682 -0.2345  0.0574
12542TIP3    H159117   4.765   5.380   2.467 -0.2990  1.3902  1.4332
12542TIP3    H259118   4.836   5.293   2.569 -0.4049  0.7374  0.9625
12543TIP3   OH259119   6.182   4.226   1.340  0.4318  0.0541  0.1344
12543TIP3    H159120   6.111   4.195   1.396  1.0913  0.7963  1.4350
12543TIP3    H259121   6.151   4.309   1.305  0.3731  0.0287  0.1264
12544TIP3   OH259122   1.544   0.082   2.589 -0.0832  0.2011  0.2091
12544TIP3    H159123   1.525   0.099   2.497  0.3242  1.7418  0.3859
12544TIP3    H259124   1.477   0.130   2.637 -0.7068 -1.1432  0.7376
12545TIP3   OH259125   5.761   5.815   4.347 -0.1753 -0.3687 -0.1026
12545TIP3    H159126   5.745   5.878   4.277 -2.4980 -0.2385  0.4745
12545TIP3    H259127   5.745   5.864   4.428  2.0629 -0.6234  0.5641
12546TIP3   OH259128   2.070   6.751  12.592  0.9310  0.2129  0.0805
12546TIP3    H159129   2.034   6.675  12.637 -0.5697  1.1433  0.5273
12546TIP3    H259130   2.100   6.810  12.661  1.8781  0.1415 -0.2525
12547TIP3   OH259131   1.746   6.200   5.019  0.4285  0.5552  0.5549
12547TIP3    H159132   1.718   6.109   5.005  0.4146  0.2102  2.4311
12547TIP3    H259133   1.717   6.219   5.109  1.9037  1.8416  0.7956
12548TIP3   OH259134   0.359   5.215   3.149 -0.1148 -0.1749 -0.0045
12548TIP3    H159135   0.325   5.238   3.063  1.9071 -0.4138 -0.9259
12548TIP3    H259136   0.305   5.142   3.178 -1.3057  0.3981 -0.7015
12549TIP3   OH259137   0.150   5.268   3.892 -0.4662 -0.2162 -0.9881
12549TIP3    H159138   0.230   5.318   3.906 -0.6085 -0.0817 -0.6456
12549TIP3    H259139   0.081   5.334   3.886 -0.9526 -0.4184  1.4837
12550TIP3   OH259140   5.866   6.513   4.972 -0.2676 -0.3833  0.0410
12550TIP3    H159141   5.934   6.548   4.915  2.4368 -1.6295  2.2388
12550TIP3    H259142   5.862   6.420   4.951 -2.1962 -0.1412 -0.8316
12551TIP3   OH259143   5.923   4.059  13.027  0.3247  0.5650  0.6529
12551TIP3    H159144   5.992   4.039  12.963 -1.0100 -2.3170 -0.0028
12551TIP3    H259145   5.968   4.109  13.095  2.7725 -0.1100 -0.3644
12552TIP3   OH259146   6.124   6.474   4.580  0.1241 -0.2370  0.2446
12552TIP3    H159147   6.187   6.471   4.507 -0.0283 -1.0584  0.1369
12552TIP3    H259148   6.161   6.538   4.640 -0.5451  1.6568 -1.2637
12553TIP3   OH259149   4.903   2.298  15.959  0.2932  0.1592 -0.5553
12553TIP3    H159150   4.885   2.210  15.992 -1.7752  1.0449  0.8544
12553TIP3    H259151   4.899   2.290  15.864  0.3270 -1.2939 -0.4507
12554TIP3   OH259152   2.342   1.380  11.195 -0.0169  0.3642  0.5108
12554TIP3    H159153   2.307   1.320  11.129  0.8927 -1.2208  1.3869
12554TIP3    H259154   2.409   1.430  11.149 -0.9952  0.9594 -0.3101
12555TIP3   OH259155   6.351   1.050  10.949 -0.4272  0.1333  0.0428
12555TIP3    H159156   6.374   1.053  10.856 -0.5769 -1.4787 -0.0838
12555TIP3    H259157   6.268   1.097  10.956 -1.5791 -1.6083 -1.0720
12556TIP3   OH259158   2.638   5.241   5.355 -0.0720 -0.3162 -0.3470
12556TIP3    H159159   2.727   5.235   5.390 -1.2559  0.3236  3.1938
12556TIP3    H259160   2.586   5.275   5.428 -3.2697 -0.8061 -2.2162
12557TIP3   OH259161   2.483   3.603  15.504  0.3208  0.3563  0.2759
12557TIP3    H159162   2.518   3.634  15.421  0.2831  1.3780  0.6334
12557TIP3    H259163   2.545   3.536  15.533  0.5754  0.3142 -0.3462
12558TIP3   OH259164   0.144   2.206  16.032  0.1913  0.4976 -0.0570
12558TIP3    H159165   0.219   2.186  16.088  0.1475 -0.8345 -0.4399
12558TIP3    H259166   0.152   2.144  15.959 -1.7624 -0.3081  0.3557
12559TIP3   OH259167   1.810   6.304  15.437 -0.2894 -0.0566 -0.8753
12559TIP3    H159168   1.742   6.354  15.483  0.6061 -0.4142  0.9117
12559TIP3    H259169   1.829   6.231  15.496  2.5231  0.7100 -0.7154
12560TIP3   OH259170   6.292   3.847   5.735 -0.2284 -0.1416 -0.6213
12560TIP3    H159171   6.277   3.816   5.825  0.4495  1.1860 -0.0183
12560TIP3    H259172   6.204   3.861   5.700 -0.5092  0.9864  0.4614
12561TIP3   OH259173   5.539   3.452   5.704  0.4122  0.0571 -0.1484
12561TIP3    H159174   5.515   3.364   5.675  3.4057 -1.2933  1.1070
12561TIP3    H259175   5.538   3.448   5.800  2.4350  0.7508 -0.0422
12562TIP3   OH259176   5.700   1.312  14.414 -0.4395 -0.1463 -0.1488
12562TIP3    H159177   5.703   1.379  14.481 -0.9700 -1.4195  1.2104
12562TIP3    H259178   5.607   1.305  14.391 -0.2987  0.0683 -0.7895
12563TIP3   OH259179   2.564   3.538   2.761  0.0622  0.1221  0.3676
12563TIP3    H159180   2.614   3.552   2.681 -2.1903 -0.0505 -1.1595
12563TIP3    H259181   2.527   3.624   2.782  1.5302  0.4315  1.9374
12564TIP3   OH259182   4.954   3.282  16.997 -0.0924  0.2836  0.0056
12564TIP3    H159183   4.994   3.236  17.070  0.0327 -0.1783 -0.3484
12564TIP3    H259184   4.891   3.219  16.961  2.0955 -0.7483 -2.2853
12565TIP3   OH259185   3.593   6.703  16.167 -0.0835  0.4671 -0.3046
12565TIP3    H159186   3.519   6.685  16.108  0.8111 -1.8903 -0.8014
12565TIP3    H259187   3.620   6.792  16.144 -1.3877  0.5590 -1.6489
12566TIP3   OH259188   2.847   2.114   1.759  0.3318  0.0261 -0.2032
12566TIP3    H159189   2.854   2.199   1.802 -0.2360  0.3143 -0.6721
12566TIP3    H259190   2.813   2.134   1.671  0.1295 -0.6850 -0.2927
12567TIP3   OH259191   1.380   0.688  16.946  0.1074  0.0241  0.3008
12567TIP3    H159192   1.314   0.647  16.889  0.2446  1.0149 -0.6120
12567TIP3    H259193   1.461   0.641  16.926  0.4002  1.0709 -1.2039
12568TIP3   OH259194   3.093   0.032   5.230  0.6289 -0.5266  0.4292
12568TIP3    H159195   3.118   0.087   5.304  0.4481  0.9369 -0.5396
12568TIP3    H259196   3.144   0.066   5.157 -1.2282 -0.0708 -0.7242
12569TIP3   OH259197   6.051   3.845   2.758 -0.3270 -0.3347 -0.0943
12569TIP3    H159198   6.096   3.884   2.683  0.1077 -0.0162  0.3149
12569TIP3    H259199   6.001   3.918   2.796  1.3734  0.1723  1.3373
12570TIP3   OH259200   0.203   1.788   2.881  0.2429  0.3636 -0.1178
12570TIP3    H159201   0.272   1.736   2.922  0.4843  0.3937 -0.4802
12570TIP3    H259202   0.176   1.736   2.805 -1.7329 -0.7453  1.2653
12571TIP3   OH259203   1.390   6.189   1.288  0.5074 -0.8114  0.8223
12571TIP3    H159204   1.318   6.250   1.302 -0.7695 -1.4268 -2.3289
12571TIP3    H259205   1.432   6.181   1.374 -1.6824  1.4052  2.2137
12572TIP3   OH259206   4.579   2.015  15.436 -0.3764  0.5776  0.0691
12572TIP3    H159207   4.624   1.936  15.465 -2.2184  0.0288  1.7065
12572TIP3    H259208   4.512   1.984  15.375 -0.4103  1.0175 -0.1231
12573TIP3   OH259209   4.100   1.817   5.736  0.3122  0.2421 -0.1846
12573TIP3    H159210   4.031   1.754   5.755 -0.2701  0.6309 -0.9166
12573TIP3    H259211   4.080   1.893   5.791  0.8583 -0.1035  0.4978
12574TIP3   OH259212   0.245   6.580   5.818  0.1764  0.0078 -0.2276
12574TIP3    H159213   0.277   6.490   5.809  2.1663  0.6698 -0.2341
12574TIP3    H259214   0.257   6.618   5.731  0.9323  0.7493  0.1874
12575TIP3   OH259215   4.962   0.503  13.730  0.1378 -0.0430 -0.2326
12575TIP3    H159216   5.037   0.518  13.788 -1.4910 -0.7133  2.2089
12575TIP3    H259217   4.954   0.408  13.725 -0.8654  0.0145  0.0008
12576TIP3   OH259218   2.460   6.098  11.704  0.0574 -0.2430 -0.2814
12576TIP3    H159219   2.475   6.089  11.610 -0.7311 -2.7055 -0.2357
12576TIP3    H259220   2.366   6.083  11.715  0.0441  0.5203  0.8746
12577TIP3   OH259221   5.416   5.493   5.003 -0.0283  0.2919  0.4553
12577TIP3    H159222   5.432   5.468   4.912  0.6750  0.7280  0.4516
12577TIP3    H259223   5.389   5.584   4.999 -3.2777 -0.5746  0.4099
12578TIP3   OH259224   2.619   5.034   4.369  0.5037  0.2782 -0.0572
12578TIP3    H159225   2.686   5.001   4.310  0.5619 -1.9355  1.1387
12578TIP3    H259226   2.668   5.078   4.439  0.6421 -0.0199  0.0361
12579TIP3   OH259227   3.742   6.103   2.985  0.1086 -0.4746 -0.1999
12579TIP3    H159228   3.735   6.157   2.907 -0.6772  0.5008  0.5128
12579TIP3    H259229   3.836   6.090   2.997  0.2183 -0.9870 -1.5215
12580TIP3   OH259230   0.525   0.769  14.121  0.3183 -0.0177 -0.5042
12580TIP3    H159231   0.546   0.680  14.150  1.9626  1.1108  2.0930
12580TIP3    H259232   0.476   0.807  14.193  0.6950  1.5700 -1.0531
12581TIP3   OH259233   1.628   0.587   4.296  0.4387 -0.1202  0.4786
12581TIP3    H159234   1.563   0.570   4.364 -1.3010 -1.3867 -1.3617
12581TIP3    H259235   1.579   0.633   4.227  1.2192 -1.9175 -1.3638
12582TIP3   OH259236   2.319   4.828   4.691 -0.4403  0.1696  0.2571
12582TIP3    H159237   2.279   4.897   4.638 -2.5196 -0.2533  1.1532
12582TIP3    H259238   2.255   4.757   4.690  1.9692 -2.1606 -1.3200
12583TIP3   OH259239   0.434   5.103   6.021 -0.2845  0.2577 -0.4006
12583TIP3    H159240   0.498   5.076   6.086  2.4732 -1.3007 -3.4402
12583TIP3    H259241   0.355   5.053   6.042  0.9103 -1.1449  1.0008
12584TIP3   OH259242   2.038   1.909   5.091 -0.0621  0.0009 -0.4866
12584TIP3    H159243   2.113   1.869   5.134  0.0188 -0.5180 -1.0924
12584TIP3    H259244   2.069   1.995   5.062 -0.6809  1.2364  2.1961
12585TIP3   OH259245   2.116   2.157   4.215  0.3768 -0.1559  0.6480
12585TIP3    H159246   2.175   2.158   4.140 -0.9169 -0.5774 -0.4179
12585TIP3    H259247   2.100   2.250   4.234  0.1932 -0.0391 -0.0386
12586TIP3   OH259248   5.449   4.415  14.240 -0.0496 -0.3290 -0.0967
12586TIP3    H159249   5.361   4.404  14.205  0.0099  0.1018 -0.3846
12586TIP3    H259250   5.437   4.453  14.327 -0.1336  0.1437 -0.3120
12587TIP3   OH259251   0.959   2.898   1.103  0.4516  0.4889 -0.0675
12587TIP3    H159252   0.952   2.915   1.009 -1.2347 -2.9956 -0.7508
12587TIP3    H259253   0.868   2.895   1.134  0.9277  0.2967  1.3961
12588TIP3   OH259254   0.316   5.826   4.004 -0.3973 -0.0911  0.5977
12588TIP3    H159255   0.343   5.918   4.012 -0.7015 -0.0401  1.1062
12588TIP3    H259256   0.350   5.798   3.920  0.5224  0.2184  0.8536
12589TIP3   OH259257   4.750   3.020  13.703  0.0320  0.0835  0.2513
12589TIP3    H159258   4.716   3.061  13.783 -0.9425  1.9194 -1.0186
12589TIP3    H259259   4.677   2.965  13.672  0.2595 -0.3005  0.3905
12590TIP3   OH259260   4.089   5.341   5.358  0.3136  0.2391  0.1024
12590TIP3    H159261   4.025   5.275   5.384 -0.0944  0.8085  0.5939
12590TIP3    H259262   4.160   5.333   5.422 -0.4980  1.3602  1.2146
12591TIP3   OH259263   3.604   6.607   5.215  0.1191  0.3083 -0.2979
12591TIP3    H159264   3.634   6.617   5.125  0.9237 -0.6806 -0.1605
12591TIP3    H259265   3.684   6.613   5.267  0.0546 -1.7079  0.1318
12592TIP3   OH259266   2.773   2.512  16.583 -0.2527 -0.1507  0.0095
12592TIP3    H159267   2.758   2.448  16.652 -1.3867  1.2502  1.1180
12592TIP3    H259268   2.714   2.485  16.512 -0.1413 -0.7682  0.1450
12593TIP3   OH259269   0.882   2.988  12.002 -0.1138  0.7409 -0.2348
12593TIP3    H159270   0.876   2.898  12.033 -1.3220  0.8753 -0.0374
12593TIP3    H259271   0.913   3.037  12.079 -2.3203  0.9415  0.6070
12594TIP3   OH259272   4.773   0.662  15.706 -0.1970 -0.1726  0.6139
12594TIP3    H159273   4.753   0.646  15.614 -1.7143  0.1115  0.8831
12594TIP3    H259274   4.836   0.593  15.729 -1.2208 -1.3941 -0.1420
12595TIP3   OH259275   5.734   0.252  16.301 -0.4446  1.1262  0.2226
12595TIP3    H159276   5.828   0.236  16.297 -0.7534 -0.5154 -1.3182
12595TIP3    H259277   5.716   0.310  16.227 -0.9504 -0.4711 -0.9558
12596TIP3   OH259278   5.959   5.721   5.575 -0.2428 -0.5057 -0.1494
12596TIP3    H159279   5.872   5.729   5.614  0.0587 -0.2773  0.4886
12596TIP3    H259280   5.949   5.652   5.509 -1.5411  1.2489 -1.9182
12597TIP3   OH259281   1.215   6.783  14.049  0.6026  0.4042 -0.2670
12597TIP3    H159282   1.138   6.767  14.104  1.0614  0.8574  0.5226
12597TIP3    H259283   1.245   6.870  14.075  0.9802  0.5230 -1.0696
12598TIP3   OH259284   4.307   3.639   5.111 -0.3714  0.0528 -0.7832
12598TIP3    H159285   4.333   3.710   5.170 -1.2526 -0.4255  0.2074
12598TIP3    H259286   4.292   3.564   5.168  2.1205 -1.4664 -1.9404
12599TIP3   OH259287   4.586   5.891  15.852 -0.2396 -0.4158 -0.0309
12599TIP3    H159288   4.554   5.949  15.922 -1.4230  0.2557 -1.0986
12599TIP3    H259289   4.547   5.925  15.772  0.0364 -1.9695 -0.8666
12600TIP3   OH259290   2.166   0.826   5.358  0.3747 -0.1825 -0.6345
12600TIP3    H159291   2.181   0.811   5.451 -0.5220  3.2713  0.2143
12600TIP3    H259292   2.252   0.853   5.324  0.7632 -1.7001 -0.9316
12601TIP3   OH259293   5.436   0.316  11.746  0.2884  0.0752 -0.3885
12601TIP3    H159294   5.424   0.252  11.676 -0.6695  1.3265 -1.4416
12601TIP3    H259295   5.431   0.401  11.701 -1.5052  0.9621  1.3113
12602TIP3   OH259296   3.736   3.191   0.503 -0.0636 -0.2957  0.4355
12602TIP3    H159297   3.744   3.096   0.508 -1.1900 -0.4628 -0.4965
12602TIP3    H259298   3.823   3.221   0.476  0.1925 -1.0924  0.3377
12603TIP3   OH259299   2.346   1.514   4.383 -0.5459  0.3421 -0.1139
12603TIP3    H159300   2.325   1.493   4.474 -1.1944 -1.9247 -0.7172
12603TIP3    H259301   2.299   1.447   4.332  2.3661 -0.4862 -1.9265
12604TIP3   OH259302   1.441   5.077  15.818  0.0781  0.4414 -0.5609
12604TIP3    H159303   1.535   5.098  15.808 -0.1452  1.4512 -0.6782
12604TIP3    H259304   1.437   5.021  15.895  0.8657 -0.2256 -0.9901
12605TIP3   OH259305   3.690   6.287   0.079 -0.5127 -0.4116 -0.1859
12605TIP3    H159306   3.660   6.299   0.169 -1.6973  1.5145 -0.7697
12605TIP3    H259307   3.743   6.365   0.062 -0.3978 -0.7026 -1.2018
12606TIP3   OH259308   0.174   1.403   0.879  0.1933 -0.4534 -0.4086
12606TIP3    H159309   0.145   1.492   0.862  0.2976 -0.6375 -1.6180
12606TIP3    H259310   0.105   1.348   0.843  0.0758 -0.8732  0.4273
12607TIP3   OH259311   2.795   1.063  11.384 -0.0849 -0.5120  0.0388
12607TIP3    H159312   2.790   0.990  11.322  0.7679 -1.0301  0.5729
12607TIP3    H259313   2.872   1.113  11.357 -0.2554 -0.2051  0.1111
12608TIP3   OH259314   2.786   0.318  15.061 -0.1085  0.2429  0.2717
12608TIP3    H159315   2.870   0.315  15.105 -0.3277  1.4226  0.8038
12608TIP3    H259316   2.722   0.292  15.128 -0.1291 -1.3671 -0.3218
12609TIP3   OH259317   1.996   2.961   6.005  0.3301 -0.0509 -0.4214
12609TIP3    H159318   2.011   2.972   6.099  2.9382  0.3066 -0.8089
12609TIP3    H259319   2.048   2.884   5.982  0.7737  0.6413 -1.8005
12610TIP3   OH259320   3.831   3.433  16.188 -0.2535  0.0478 -0.1236
12610TIP3    H159321   3.801   3.394  16.270 -0.2231  1.1486  0.4342
12610TIP3    H259322   3.847   3.359  16.130 -1.3131 -0.7040  0.5079
12611TIP3   OH259323   0.072   6.359   1.174  0.3680 -0.0531  0.1825
12611TIP3    H159324  -0.017   6.324   1.177  0.3629  0.0169  0.9778
12611TIP3    H259325   0.060   6.453   1.167  0.3841 -0.0837 -0.2969
12612TIP3   OH259326   5.702   2.801  12.552  0.5509  0.1632 -0.3160
12612TIP3    H159327   5.748   2.725  12.589 -2.1030 -1.5510 -0.2501
12612TIP3    H259328   5.657   2.767  12.475  0.7301  2.1471 -1.3513
12613TIP3   OH259329   0.207   1.559  11.582  0.3374  0.0937  0.1767
12613TIP3    H159330   0.148   1.487  11.562 -0.1464  0.7886 -1.0233
12613TIP3    H259331   0.153   1.638  11.573  1.2849  0.7054 -0.3974
12614TIP3   OH259332   3.187   1.056  16.022  0.5059 -0.1400  0.2094
12614TIP3    H159333   3.092   1.048  16.034 -0.1092  1.7109 -2.3724
12614TIP3    H259334   3.225   1.007  16.094 -2.4162 -0.3524  1.7598
12615TIP3   OH259335   4.434   1.080   3.662  0.1464  0.5783  0.0319
12615TIP3    H159336   4.358   1.026   3.639 -0.1584  0.7340  0.6550
12615TIP3    H259337   4.496   1.066   3.591 -0.2678  0.0581 -0.2299
12616TIP3   OH259338   3.519   4.071   6.002  0.1053 -0.1313  0.1862
12616TIP3    H159339   3.518   4.026   6.086  1.3667 -0.1918  0.1774
12616TIP3    H259340   3.579   4.145   6.014 -0.8788  0.7764 -0.2112
12617TIP3   OH259341   5.937   0.914  14.580 -0.6320 -0.4507  0.1109
12617TIP3    H159342   5.940   0.903  14.485 -1.2368 -0.1585  0.0564
12617TIP3    H259343   5.844   0.924  14.600 -0.4227  0.6941  0.5928
12618TIP3   OH259344   2.793   3.073   2.823 -0.3380  0.7151 -0.4167
12618TIP3    H159345   2.760   3.150   2.869  1.3971  0.4216  1.4571
12618TIP3    H259346   2.739   3.001   2.856 -1.2700  0.9348 -1.3899
12619TIP3   OH259347   0.317   6.794   4.968 -0.6339  0.0130 -0.3892
12619TIP3    H159348   0.370   6.738   5.024 -0.1088  1.3790  0.5434
12619TIP3    H259349   0.291   6.867   5.024  0.5563  1.8474 -2.0749
12620TIP3   OH259350   1.825   6.647  13.648 -0.4019 -0.0100 -0.1826
12620TIP3    H159351   1.770   6.588  13.699  1.4763 -0.7088  1.1086
12620TIP3    H259352   1.849   6.597  13.571 -1.1565  0.1379 -0.5287
12621TIP3   OH259353   4.901   4.072  14.404 -0.4506  0.5495  0.0812
12621TIP3    H159354   4.823   4.025  14.433 -0.5220  1.0314  0.6889
12621TIP3    H259355   4.873   4.163  14.399 -0.3282  0.5376 -1.1413
12622TIP3   OH259356   3.080   2.545   2.237 -0.3755  0.0224 -0.2084
12622TIP3    H159357   3.010   2.544   2.302 -0.3318  0.1268 -0.1608
12622TIP3    H259358   3.067   2.626   2.188 -1.4841 -0.8968 -1.5027
12623TIP3   OH259359   1.396   6.462  11.256 -0.2435  0.1590  0.0725
12623TIP3    H159360   1.377   6.550  11.290 -2.0580  0.1830 -0.8413
12623TIP3    H259361   1.358   6.463  11.168  3.6376 -0.0991 -1.8014
12624TIP3   OH259362   1.829   2.442   5.374 -0.2084 -0.5588  0.2735
12624TIP3    H159363   1.863   2.380   5.438  1.9956 -0.0518 -0.3160
12624TIP3    H259364   1.780   2.389   5.312  0.5910 -1.5607  0.4654
12625TIP3   OH259365   3.046   5.624   3.789  0.2700  0.3949  0.0914
12625TIP3    H159366   3.100   5.568   3.733  0.4921  0.1005  0.5989
12625TIP3    H259367   3.079   5.609   3.877 -1.5683 -0.8790  0.6232
12626TIP3   OH259368   2.859   4.193   1.750  0.6410 -0.1322 -0.0650
12626TIP3    H159369   2.914   4.127   1.708  0.2816 -1.2738  1.1828
12626TIP3    H259370   2.921   4.254   1.789  0.9772  0.3977 -1.3796
12627TIP3   OH259371   1.593   1.321   3.697 -0.2160  0.5618 -0.0381
12627TIP3    H159372   1.619   1.237   3.735 -0.6552  0.2386 -0.4393
12627TIP3    H259373   1.498   1.318   3.695 -0.3734  1.9863  2.0069
12628TIP3   OH259374   0.346   4.760  15.810  0.7116 -0.0853  0.4752
12628TIP3    H159375   0.368   4.815  15.735  1.4285  0.9951  1.4504
12628TIP3    H259376   0.406   4.787  15.879 -2.0127  1.2655  2.5050
12629TIP3   OH259377   4.344   6.498  13.393 -0.2298 -0.2536  0.6743
12629TIP3    H159378   4.252   6.477  13.408  0.6585 -3.5060  2.5006
12629TIP3    H259379   4.367   6.449  13.315  0.2404 -0.4995  0.9637
12630TIP3   OH259380   6.337   5.217  12.255  0.2480  0.0182  0.3452
12630TIP3    H159381   6.327   5.206  12.350  3.0185 -1.0004  0.6294
12630TIP3    H259382   6.418   5.169  12.234  1.5664  2.9335 -1.9790
12631TIP3   OH259383   3.317   3.631  15.266 -0.0030 -0.2709 -0.3731
12631TIP3    H159384   3.374   3.609  15.193 -1.4468 -0.5347 -1.4713
12631TIP3    H259385   3.347   3.717  15.295  0.6012 -0.1627 -1.2780
12632TIP3   OH259386   0.356   1.095   5.259  0.1359 -0.3912  0.0758
12632TIP3    H159387   0.415   1.037   5.210  0.6804 -1.1551  1.5772
12632TIP3    H259388   0.278   1.042   5.276 -1.2108  0.7128 -2.1739
12633TIP3   OH259389   2.172   0.977  11.168 -0.3666 -0.4474  0.5670
12633TIP3    H159390   2.147   1.024  11.247 -0.4354  0.0051  0.2784
12633TIP3    H259391   2.267   0.989  11.162 -0.5790  0.9639 -0.3320
12634TIP3   OH259392   4.839   4.373   0.706 -0.4440 -0.4069  0.4788
12634TIP3    H159393   4.848   4.458   0.750  1.4500 -1.2578  1.8512
12634TIP3    H259394   4.928   4.337   0.705 -1.1180 -2.1339 -0.5786
12635TIP3   OH259395   2.267   6.478  11.721  0.3003 -0.5694 -0.6176
12635TIP3    H159396   2.218   6.541  11.773  2.7229  1.5350 -0.6981
12635TIP3    H259397   2.265   6.514  11.632 -0.3991 -1.9819 -1.1953
12636TIP3   OH259398   0.115   3.464   3.614 -0.3048  0.5680  0.6505
12636TIP3    H159399   0.133   3.501   3.700  0.6113 -0.0717  0.7476
12636TIP3    H259400   0.167   3.518   3.554  0.3481  0.0127  0.6971
12637TIP3   OH259401   2.234   4.977  10.886  0.3578 -0.4192  0.4114
12637TIP3    H159402   2.248   5.071  10.873  0.2642 -0.6192 -1.4734
12637TIP3    H259403   2.322   4.940  10.887  0.3877 -0.3323  0.9351
12638TIP3   OH259404   6.120   5.474  17.085  0.0335 -0.1341  0.1541
12638TIP3    H159405   6.156   5.558  17.114  0.4799 -0.2086 -0.1750
12638TIP3    H259406   6.065   5.496  17.009 -1.7451  0.1640  1.4663
12639TIP3   OH259407   0.725   3.578  16.018 -0.6084  0.0715  0.5220
12639TIP3    H159408   0.723   3.657  15.964 -0.8462  2.2596  3.4456
12639TIP3    H259409   0.632   3.556  16.031 -0.5655 -0.1956  0.3779
12640TIP3   OH259410   6.304   5.766   4.272 -0.2409 -0.6459  0.2914
12640TIP3    H159411   6.371   5.805   4.216 -1.4607  1.0876 -0.0127
12640TIP3    H259412   6.303   5.673   4.246  0.5117 -0.2685 -1.2290
12641TIP3   OH259413   2.803   0.051  12.632  0.6105  0.8615 -0.1392
12641TIP3    H159414   2.868   0.097  12.685  0.6025 -0.8709  1.4729
12641TIP3    H259415   2.732   0.114  12.622  1.5820  2.0168 -0.0839
12642TIP3   OH259416   5.361   2.824   2.318  0.2314 -0.6474  0.0165
12642TIP3    H159417   5.404   2.748   2.360  0.4755  0.0828  1.1520
12642TIP3    H259418   5.331   2.877   2.392  1.0477  0.9139 -0.7353
12643TIP3   OH259419   4.713   5.050   1.415  0.1766 -0.1249  0.4849
12643TIP3    H159420   4.682   5.024   1.501 -2.1254 -3.0201 -1.0237
12643TIP3    H259421   4.759   4.973   1.382  2.1800  1.3821 -0.4452
12644TIP3   OH259422   1.586   1.603   2.609  0.3578 -0.1446 -0.6024
12644TIP3    H159423   1.664   1.549   2.621 -0.4255 -2.0050 -2.8939
12644TIP3    H259424   1.518   1.557   2.659  0.5707  1.1834  0.9669
12645TIP3   OH259425   4.371   1.750   1.974 -0.2400  0.2390  0.3823
12645TIP3    H159426   4.442   1.716   1.921 -1.2119 -0.1464 -0.6957
12645TIP3    H259427   4.408   1.757   2.062  0.6905 -1.3428  0.1482
12646TIP3   OH259428   1.074   2.172  11.609  0.1790 -0.1261  0.3915
12646TIP3    H159429   1.117   2.234  11.668 -0.6249  2.5823 -1.6611
12646TIP3    H259430   0.988   2.158  11.648  0.1988  0.4312  0.6471
12647TIP3   OH259431   5.232   0.988   5.936  0.0709 -0.5237 -0.3544
12647TIP3    H159432   5.221   1.018   5.846  2.2252  0.9278 -0.2158
12647TIP3    H259433   5.321   1.015   5.960 -0.5764 -0.4639  2.3538
12648TIP3   OH259434   4.814   0.903  13.834  0.1156 -0.4318  0.4108
12648TIP3    H159435   4.893   0.935  13.789  0.6265 -1.0427  0.8621
12648TIP3    H259436   4.744   0.960  13.801  0.5925 -0.4207 -0.6317
12649TIP3   OH259437   4.901   0.860  15.321 -0.0407  0.3601 -0.2001
12649TIP3    H159438   4.805   0.853  15.317 -0.1259  1.5925 -0.7332
12649TIP3    H259439   4.917   0.922  15.392  0.2230  2.1095 -1.7082
12650TIP3   OH259440   6.762   5.577  13.073 -0.4770  0.9428 -0.4534
12650TIP3    H159441   6.738   5.631  13.148 -1.5959 -0.1893  0.0318
12650TIP3    H259442   6.789   5.493  13.111  1.4468  1.1697 -1.1785
12651TIP3   OH259443   6.323   2.631   3.124  0.7896 -0.3318 -0.3197
12651TIP3    H159444   6.321   2.666   3.035 -2.5235  0.5767  0.0055
12651TIP3    H259445   6.376   2.694   3.173  0.0966  0.8667 -1.0558
12652TIP3   OH259446   6.543   3.622   4.475  0.2764 -0.4159  0.1187
12652TIP3    H159447   6.566   3.686   4.543 -1.0218  0.9227 -0.6579
12652TIP3    H259448   6.457   3.590   4.499 -0.2836  0.2143 -0.9754
12653TIP3   OH259449   3.378   1.155  13.332  0.0964  0.0580  0.7754
12653TIP3    H159450   3.343   1.213  13.400  0.3847  1.7605 -0.4720
12653TIP3    H259451   3.357   1.200  13.250  0.0458 -1.7881 -0.2644
12654TIP3   OH259452   5.388   1.143  11.840 -0.0350 -0.9011  0.8949
12654TIP3    H159453   5.398   1.190  11.757 -0.2136 -0.8573  0.8974
12654TIP3    H259454   5.294   1.127  11.847 -0.0596 -0.5887  1.2660
12655TIP3   OH259455   0.651   0.974   3.895  0.2198 -0.1973 -0.3331
12655TIP3    H159456   0.673   0.938   3.981  0.0762 -1.0373 -0.6424
12655TIP3    H259457   0.579   1.034   3.912  0.8547  0.4183  0.2725
12656TIP3   OH259458   3.030   4.124  13.156  0.2727  0.3113  0.2138
12656TIP3    H159459   3.072   4.051  13.201 -0.6537 -0.3098  0.0965
12656TIP3    H259460   2.937   4.111  13.170 -0.0076  0.5298 -1.2223
12657TIP3   OH259461   0.232   6.314  13.146 -0.0880  0.5132  0.4776
12657TIP3    H159462   0.306   6.347  13.197 -1.7989  0.7637  2.9777
12657TIP3    H259463   0.200   6.391  13.099  0.1399  0.8210  0.8184
12658TIP3   OH259464   4.130   1.908  14.218  0.3794  0.4461 -0.3772
12658TIP3    H159465   4.106   1.948  14.134  1.6124 -0.5570 -1.2463
12658TIP3    H259466   4.109   1.816  14.207  1.6487  0.1072 -0.0250
12659TIP3   OH259467   1.666   0.868  13.133 -0.1104 -0.4020 -0.8122
12659TIP3    H159468   1.575   0.892  13.117 -0.2914  0.3720  1.1212
12659TIP3    H259469   1.661   0.777  13.164 -0.2151 -0.3509 -0.6809
12660TIP3   OH259470   1.549   2.143  11.060  0.0759 -0.0267  0.6590
12660TIP3    H159471   1.529   2.051  11.049 -1.7232  0.4147  0.0659
12660TIP3    H259472   1.532   2.183  10.975  1.2537  0.8028  0.7800
12661TIP3   OH259473   5.355   6.801  14.810 -0.0858  0.2012 -0.4195
12661TIP3    H159474   5.280   6.837  14.761  0.1043 -1.4193 -1.9860
12661TIP3    H259475   5.321   6.721  14.850 -0.0461  1.1465  1.6648
12662TIP3   OH259476   3.308   0.623   6.118  0.0212 -0.1581  0.2354
12662TIP3    H159477   3.220   0.634   6.156  0.9271  0.0319  2.4169
12662TIP3    H259478   3.294   0.569   6.040 -2.1380  0.6256  0.0110
12663TIP3   OH259479   5.666   5.487   1.654  0.1403 -0.7644 -0.3400
12663TIP3    H159480   5.627   5.485   1.742  1.1078  0.5427  0.1499
12663TIP3    H259481   5.746   5.538   1.665  0.1434 -0.3562 -2.0399
12664TIP3   OH259482   5.630   5.045   5.146 -0.4771  0.2097 -0.1787
12664TIP3    H159483   5.562   5.102   5.182 -1.7327 -0.8553 -0.7516
12664TIP3    H259484   5.680   5.016   5.221 -0.6330  1.0340  0.2579
12665TIP3   OH259485   4.854   5.987  14.274  0.2178  0.0662  0.4722
12665TIP3    H159486   4.806   6.029  14.202  2.3478  0.9038 -0.5472
12665TIP3    H259487   4.925   6.048  14.294  0.5814 -0.8881  2.2631
12666TIP3   OH259488   4.569   3.235   5.112  0.5898  0.0858  0.2536
12666TIP3    H159489   4.638   3.300   5.100 -0.3230  0.8312 -1.1784
12666TIP3    H259490   4.593   3.163   5.054 -0.5381  0.9712 -1.3894
12667TIP3   OH259491   5.474   0.475  15.537 -0.2563  0.2014  0.1351
12667TIP3    H159492   5.540   0.522  15.485  0.7605 -2.1267 -0.8059
12667TIP3    H259493   5.412   0.442  15.473 -1.5765  1.1055  0.8914
12668TIP3   OH259494   4.640   4.695   3.908 -0.1475  0.1589  0.0355
12668TIP3    H159495   4.609   4.606   3.894 -1.0730  0.4155  0.3606
12668TIP3    H259496   4.569   4.751   3.876  0.2857  0.7788  0.1232
12669TIP3   OH259497   3.869   5.672  11.210  0.5124  0.5234 -0.1253
12669TIP3    H159498   3.859   5.577  11.206  1.0814  0.4767 -0.5270
12669TIP3    H259499   3.783   5.704  11.238  0.5620 -0.1670  0.8969
12670TIP3   OH259500   3.691   1.821   4.968  0.5203 -0.1611  0.5667
12670TIP3    H159501   3.628   1.819   5.040 -0.6215  0.7211 -0.3760
12670TIP3    H259502   3.745   1.898   4.984  1.7040 -1.1665  1.6196
12671TIP3   OH259503   4.103   5.446  16.482 -0.1604  0.3346  1.0390
12671TIP3    H159504   4.196   5.457  16.500 -0.2083  0.7723  1.0300
12671TIP3    H259505   4.074   5.532  16.451 -0.1914 -0.2366 -0.6225
12672TIP3   OH259506   3.449   6.287   3.837 -0.2767 -0.1124  0.0479
12672TIP3    H159507   3.544   6.285   3.842 -0.3304  0.4883  1.4477
12672TIP3    H259508   3.426   6.203   3.798  0.7256 -1.2003  1.6864
12673TIP3   OH259509   2.035   3.244   3.955 -0.2994 -0.0499 -0.0848
12673TIP3    H159510   2.100   3.247   4.026 -1.0833 -1.6323  0.7483
12673TIP3    H259511   2.062   3.313   3.895  0.8736  0.7917  1.3450
12674TIP3   OH259512   6.098   2.601  16.320  0.8853 -0.3147  0.2194
12674TIP3    H159513   6.053   2.540  16.379 -1.1049  1.4751  0.6762
12674TIP3    H259514   6.176   2.554  16.291 -0.5783 -3.0866  0.4823
12675TIP3   OH259515   4.762   5.830  13.431 -0.1541  0.1223 -0.2655
12675TIP3    H159516   4.769   5.914  13.476  0.5801  0.2445 -0.5922
12675TIP3    H259517   4.829   5.834  13.363  0.0505 -0.8267 -0.1286
12676TIP3   OH259518   2.847   1.378  11.042 -0.0024  0.2161 -0.2821
12676TIP3    H159519   2.895   1.296  11.051 -1.4100 -0.6304 -0.2119
12676TIP3    H259520   2.874   1.430  11.118 -0.1025 -0.7114  0.4031
12677TIP3   OH259521   1.843   1.494   0.900  0.3783  0.5133  0.2096
12677TIP3    H159522   1.846   1.403   0.930  1.4224  0.4113 -0.1725
12677TIP3    H259523   1.859   1.546   0.979  1.9439  0.2843  0.0627
12678TIP3   OH259524   6.478   2.891  16.963  0.0724 -0.1040 -0.3668
12678TIP3    H159525   6.547   2.933  16.912  0.0614 -0.1603 -0.4262
12678TIP3    H259526   6.433   2.833  16.902 -0.1159  0.0338 -0.3584
12679TIP3   OH259527   2.430   5.945   0.476  0.0805 -0.5121  0.0823
12679TIP3    H159528   2.367   5.889   0.520 -0.8575  0.1360 -0.4009
12679TIP3    H259529   2.395   6.034   0.487  0.7373 -0.1720 -0.4693
12680TIP3   OH259530   2.784   3.729   5.033  0.0477 -0.0537 -0.5694
12680TIP3    H159531   2.825   3.746   5.118  0.5811 -1.5432 -0.5008
12680TIP3    H259532   2.856   3.704   4.976 -0.4667 -0.3602 -1.0955
12681TIP3   OH259533   3.453   4.360   1.298 -0.5822 -1.0299 -0.6255
12681TIP3    H159534   3.407   4.278   1.315 -0.3852 -0.9630  0.2514
12681TIP3    H259535   3.439   4.413   1.377  1.2240 -1.1075 -0.2107
12682TIP3   OH259536   3.586   0.112   2.172  0.6226 -0.1717 -0.0735
12682TIP3    H159537   3.505   0.130   2.125  0.3141 -0.4245  0.3636
12682TIP3    H259538   3.563   0.118   2.265  0.6973 -2.0073  0.0931
12683TIP3   OH259539   6.576   2.987   5.917 -0.3053 -0.4273  0.7685
12683TIP3    H159540   6.526   2.954   5.843  1.2549 -0.5658 -0.2830
12683TIP3    H259541   6.533   2.950   5.994 -1.0666 -1.5410 -0.1544
12684TIP3   OH259542   1.662   1.427  15.480  0.9138 -0.5550  0.2061
12684TIP3    H159543   1.633   1.338  15.501 -0.2210 -0.3541 -0.4875
12684TIP3    H259544   1.603   1.457  15.411 -0.1316  1.5439  1.8829
12685TIP3   OH259545   2.336   5.310  16.237  0.5733 -0.4480  0.0597
12685TIP3    H159546   2.301   5.241  16.293  2.0597 -0.7238  0.7214
12685TIP3    H259547   2.268   5.377  16.236 -0.4470 -1.4498  0.2845
12686TIP3   OH259548   3.512   4.803   5.123 -0.0297  0.0769  0.5026
12686TIP3    H159549   3.541   4.831   5.036  0.7119 -3.1930 -0.4588
12686TIP3    H259550   3.425   4.766   5.108 -0.3740  0.5175  1.3924
12687TIP3   OH259551   6.235   4.533  15.573  0.2283  0.0246 -0.4194
12687TIP3    H159552   6.165   4.598  15.567  0.0231 -0.2725 -1.7341
12687TIP3    H259553   6.237   4.493  15.485  1.6197 -0.4109 -0.2075
12688TIP3   OH259554   5.415   5.473  12.720  0.2629 -0.2588 -0.2113
12688TIP3    H159555   5.434   5.566  12.730  1.3601 -0.2849 -1.7563
12688TIP3    H259556   5.445   5.433  12.802  2.1671  0.4293 -0.5400
12689TIP3   OH259557   3.948   3.509   0.122  0.1114  0.6209  0.4806
12689TIP3    H159558   3.991   3.550   0.197  1.3807 -1.1295  0.7669
12689TIP3    H259559   4.018   3.500   0.056 -0.4626  0.1682 -0.0790
12690TIP3   OH259560   5.138   4.640   3.950  0.0518 -0.0963  0.3317
12690TIP3    H159561   5.095   4.705   4.005  0.6110 -0.5534  1.3255
12690TIP3    H259562   5.203   4.689   3.900  1.3167 -0.0442  1.9613
12691TIP3   OH259563   0.029   0.761   2.472 -0.1662  0.0475 -0.7854
12691TIP3    H159564  -0.017   0.747   2.555 -1.4594 -0.5319 -1.5655
12691TIP3    H259565   0.121   0.745   2.492 -0.2416  1.4301  0.8749
12692TIP3   OH259566   4.347   0.791  11.355  0.1845  0.2659 -0.2296
12692TIP3    H159567   4.412   0.723  11.343 -2.0080 -1.8454 -0.8817
12692TIP3    H259568   4.366   0.855  11.286  2.9997  1.0522  1.1297
12693TIP3   OH259569   3.919   3.097  16.770 -0.1272 -0.1197 -0.2085
12693TIP3    H159570   3.850   3.034  16.791  0.2691 -0.1410  1.0724
12693TIP3    H259571   3.873   3.169  16.726 -0.7854 -0.6515 -0.4135
12694TIP3   OH259572   2.812   2.216  11.266  0.4973  0.0312  0.3052
12694TIP3    H159573   2.865   2.197  11.188  2.1958 -1.3955  1.7074
12694TIP3    H259574   2.745   2.277  11.235  0.3781 -1.3378 -2.5127
12695TIP3   OH259575   1.466   2.196  13.060  0.0579 -0.4775  0.2784
12695TIP3    H159576   1.467   2.129  13.128 -3.6420  0.3598  1.4061
12695TIP3    H259577   1.423   2.154  12.985 -0.1057 -0.0523  0.1285
12696TIP3   OH259578   4.504   2.100  13.807 -0.1338 -0.8714  0.1975
12696TIP3    H159579   4.593   2.094  13.842 -0.6870  0.4928  1.9873
12696TIP3    H259580   4.447   2.079  13.881 -1.3227 -0.6565 -0.6245
12697TIP3   OH259581   5.378   6.085   4.524 -0.7683  0.5265  0.5246
12697TIP3    H159582   5.320   6.161   4.518  1.3997  2.3628  1.4904
12697TIP3    H259583   5.387   6.069   4.618 -0.0125  0.0536  0.3829
12698TIP3   OH259584   5.168   0.593   2.692 -0.1428 -0.0624 -0.2870
12698TIP3    H159585   5.228   0.659   2.658 -0.5417  1.0661  1.0982
12698TIP3    H259586   5.151   0.535   2.617  1.0387  0.7777 -1.2497
12699TIP3   OH259587   0.734   1.699  16.991  0.4466 -0.3519 -0.0894
12699TIP3    H159588   0.798   1.630  17.008  1.2434  0.2308 -0.6930
12699TIP3    H259589   0.708   1.686  16.900  0.2216 -0.1584 -0.0531
12700TIP3   OH259590   6.249   0.944   4.644  0.5858  0.7419  1.0269
12700TIP3    H159591   6.339   0.913   4.655 -0.0272 -0.5758  2.8465
12700TIP3    H259592   6.217   0.897   4.567  1.4553  1.2956  0.3017
12701TIP3   OH259593   1.258   0.176  15.858  0.1981 -0.2336 -0.0946
12701TIP3    H159594   1.234   0.095  15.812  0.9351 -0.4427 -0.1308
12701TIP3    H259595   1.174   0.215  15.883 -0.2292 -0.0966 -1.6443
12702TIP3   OH259596   3.515   0.293  10.813 -0.5413 -0.0075 -0.3157
12702TIP3    H159597   3.494   0.257  10.727  0.5510  0.1762 -0.6804
12702TIP3    H259598   3.454   0.250  10.873  0.7438 -2.5522 -0.7128
12703TIP3   OH259599   2.395   3.784  14.514  0.0255  0.1176  0.5194
12703TIP3    H159600   2.369   3.877  14.514 -0.8392 -0.0722  2.1361
12703TIP3    H259601   2.344   3.746  14.586  0.6497 -1.5391  0.1203
12704TIP3   OH259602   3.765   6.119   5.006 -0.1429  0.1255 -0.0856
12704TIP3    H159603   3.753   6.112   4.911  0.5564  0.9809 -0.2472
12704TIP3    H259604   3.690   6.169   5.036 -0.2540  0.0399 -0.2202
12705TIP3   OH259605   3.186   0.671  15.620 -0.8402  0.1144 -0.0141
12705TIP3    H159606   3.265   0.717  15.589 -0.7191 -0.6571 -0.9249
12705TIP3    H259607   3.183   0.689  15.714 -0.5079  1.5235 -0.2466
12706TIP3   OH259608   0.332   2.675  16.663 -0.5644  0.5083  0.2041
12706TIP3    H159609   0.418   2.671  16.706 -0.9550 -2.4483  0.9723
12706TIP3    H259610   0.284   2.743  16.711 -0.3619 -1.4153  3.4310
12707TIP3   OH259611   4.422   3.274   3.515  0.0335  0.2107 -0.3247
12707TIP3    H159612   4.428   3.222   3.595  0.5592  0.3905 -0.2465
12707TIP3    H259613   4.400   3.362   3.545  1.6241  0.6145 -0.2508
12708TIP3   OH259614   1.990   0.530   2.411  0.3445 -0.0378 -0.1739
12708TIP3    H159615   1.998   0.438   2.436  0.0538 -0.1312 -0.4138
12708TIP3    H259616   1.903   0.536   2.371  0.4004  0.3217 -0.2424
12709TIP3   OH259617   2.775   4.246  13.119  0.0622 -0.2575  0.0817
12709TIP3    H159618   2.746   4.273  13.032  1.1016  0.5860 -0.0265
12709TIP3    H259619   2.701   4.265  13.176 -0.1111  0.5489 -0.3911
12710TIP3   OH259620   3.766   1.366  12.733  0.3481 -0.2299 -0.3540
12710TIP3    H159621   3.758   1.313  12.654  1.4864  0.3205 -0.8600
12710TIP3    H259622   3.804   1.448  12.702 -1.4081  0.9335  0.3957
12711TIP3   OH259623   3.470   5.953  11.439  0.1638  0.3201  0.2730
12711TIP3    H159624   3.492   5.956  11.532  1.0183  0.9461  0.0645
12711TIP3    H259625   3.375   5.943  11.437 -0.5276  4.6190  1.2893
12712TIP3   OH259626   2.950   4.223  16.435 -0.0166  0.4892 -0.8525
12712TIP3    H159627   3.002   4.146  16.457 -0.1759  0.7344  0.4998
12712TIP3    H259628   2.885   4.192  16.372 -0.6381 -0.7008  0.3342
12713TIP3   OH259629   1.245   6.657  13.779  0.2672  0.4406 -0.0203
12713TIP3    H159630   1.264   6.673  13.871  0.9416 -1.0749  0.1382
12713TIP3    H259631   1.152   6.637  13.777  0.2650  0.4109  0.3357
12714TIP3   OH259632   3.646   5.773  17.190  0.1619 -0.2829  0.1540
12714TIP3    H159633   3.620   5.805  17.103  0.3426 -2.4951 -0.7935
12714TIP3    H259634   3.692   5.846  17.230  0.8631  0.5200 -1.9959
12715TIP3   OH259635   5.993   4.456  12.182  0.0091  0.3384 -0.5062
12715TIP3    H159636   5.974   4.390  12.248 -1.1125 -0.0618 -1.1871
12715TIP3    H259637   6.059   4.512  12.222 -3.5266  2.7157  2.8290
12716TIP3   OH259638   5.100   4.563  13.176 -0.2497 -0.1220  0.1646
12716TIP3    H159639   5.015   4.524  13.196 -0.6449 -0.0790 -1.3208
12716TIP3    H259640   5.163   4.493  13.191 -0.6426 -0.4148  0.4564
12717TIP3   OH259641   1.136   2.287   5.174 -0.1541  0.4325  0.0339
12717TIP3    H159642   1.070   2.254   5.114  0.6927 -0.2635 -0.5479
12717TIP3    H259643   1.144   2.218   5.240  1.7119 -0.6933 -1.2527
12718TIP3   OH259644   4.586   5.486  13.082  0.8344  0.5252  0.5182
12718TIP3    H159645   4.650   5.557  13.076  0.7254  0.5299 -1.1178
12718TIP3    H259646   4.557   5.473  12.992 -1.2284  0.2944  1.1677
12719TIP3   OH259647   1.439   6.680   1.758 -0.2327 -0.1547  0.0670
12719TIP3    H159648   1.498   6.738   1.709  1.2796 -0.1621  1.7792
12719TIP3    H259649   1.396   6.738   1.821  0.2362 -0.6545  0.8523
12720TIP3   OH259650   0.166   0.265  15.182 -0.4535  0.1982 -0.1966
12720TIP3    H159651   0.174   0.209  15.105 -1.0736  0.9236 -0.8086
12720TIP3    H259652   0.192   0.209  15.256 -0.4180 -0.6779 -0.8596
12721TIP3   OH259653   0.253   2.335  13.817  0.1227  0.8256 -0.4394
12721TIP3    H159654   0.212   2.415  13.784  0.8521  0.6729 -1.7836
12721TIP3    H259655   0.297   2.298  13.741 -0.5753 -1.1090  0.0408
12722TIP3   OH259656   4.863   2.139  13.217  0.1070 -0.5659  0.6866
12722TIP3    H159657   4.860   2.054  13.262 -0.9312 -0.3556  1.0487
12722TIP3    H259658   4.777   2.148  13.176 -0.4910  1.0966  2.1754
12723TIP3   OH259659   6.304   0.654   4.858  0.1769  0.0778 -0.0452
12723TIP3    H159660   6.225   0.676   4.907  0.6271  0.6065  0.4439
12723TIP3    H259661   6.372   0.642   4.924  0.3446 -1.1152 -0.4098
12724TIP3   OH259662   5.730   0.858  12.026 -0.3765  0.4995 -0.0147
12724TIP3    H159663   5.666   0.802  11.982 -0.2058 -1.2191  1.8068
12724TIP3    H259664   5.682   0.937  12.048 -0.9757  0.5760 -1.5077
12725TIP3   OH259665   0.762   0.937  16.376  0.2244  0.1209  0.1387
12725TIP3    H159666   0.721   0.892  16.450 -0.3413 -0.5937 -0.6024
12725TIP3    H259667   0.818   1.003  16.417  0.0848 -0.4063  1.2125
12726TIP3   OH259668   4.895   5.282  15.057 -0.0360  0.2815 -1.0138
12726TIP3    H159669   4.901   5.251  15.148  0.3917 -0.3647 -1.2549
12726TIP3    H259670   4.839   5.219  15.013 -1.5690  1.4764 -0.8455
12727TIP3   OH259671   4.057   5.375  15.694  0.2678  0.8149 -0.5107
12727TIP3    H159672   3.993   5.406  15.758  1.5714 -1.1764  1.9342
12727TIP3    H259673   4.125   5.442  15.695 -0.3195  1.4332 -0.8329
12728TIP3   OH259674   5.052   2.902  12.796 -0.0638  0.3517 -0.5301
12728TIP3    H159675   5.069   2.956  12.719  0.2284  0.5642 -0.3179
12728TIP3    H259676   5.137   2.862  12.816  0.1647  1.2894  0.4391
12729TIP3   OH259677   5.446   0.536   0.795 -0.6577 -0.2596  0.2102
12729TIP3    H159678   5.489   0.534   0.880  1.1252 -0.4180 -0.6468
12729TIP3    H259679   5.415   0.446   0.781  1.1802 -0.8554 -0.3011
12730TIP3   OH259680   4.754   5.564   5.324 -0.6758 -0.2080  0.3542
12730TIP3    H159681   4.823   5.498   5.320 -0.8718 -0.4552  0.8908
12730TIP3    H259682   4.797   5.642   5.361 -0.4374 -0.0238 -0.3096
12731TIP3   OH259683   5.242   3.767   1.556 -0.6149 -0.8808 -0.1070
12731TIP3    H159684   5.287   3.685   1.535  0.3337 -0.1826 -0.9081
12731TIP3    H259685   5.248   3.774   1.651 -1.9866 -2.4358  0.1392
12732TIP3   OH259686   6.489   6.810   5.799 -0.8888  0.0811  0.2459
12732TIP3    H159687   6.453   6.741   5.743 -0.1644  0.0428 -0.1802
12732TIP3    H259688   6.536   6.763   5.868  1.6644  0.0870 -1.3598
12733TIP3   OH259689   5.513   5.546  15.480 -0.6417  0.0822 -0.4186
12733TIP3    H159690   5.508   5.471  15.539  1.6068  1.4364  1.6659
12733TIP3    H259691   5.457   5.522  15.406 -1.8563 -2.6178  1.2338
12734TIP3   OH259692   2.327   2.089  12.408 -0.2563  0.2127  0.9589
12734TIP3    H159693   2.415   2.051  12.403 -0.2058  0.5180 -1.4224
12734TIP3    H259694   2.272   2.017  12.440  0.2875 -1.1121 -0.9420
12735TIP3   OH259695   4.167   5.837  12.957 -1.0050  0.3199 -0.1260
12735TIP3    H159696   4.213   5.885  13.026 -0.8444  1.3216 -0.9015
12735TIP3    H259697   4.144   5.753  12.997 -0.3994  0.6480  0.9508
12736TIP3   OH259698   3.756   1.617  15.963  0.4853  0.3229  0.0394
12736TIP3    H159699   3.694   1.566  15.911  0.9768 -0.8351  0.5480
12736TIP3    H259700   3.823   1.645  15.900  1.1180 -1.1349  0.0170
12737TIP3   OH259701   5.933   0.623   3.918 -0.0303  0.3478 -0.0776
12737TIP3    H159702   5.847   0.645   3.881  0.1064 -0.3137 -0.8174
12737TIP3    H259703   5.914   0.556   3.984 -0.0238 -0.2595 -0.6853
12738TIP3   OH259704   2.659   2.941  13.479 -0.1694 -0.4676  0.5760
12738TIP3    H159705   2.733   3.002  13.489 -0.9737  0.8245 -0.8047
12738TIP3    H259706   2.631   2.953  13.388 -0.8224 -2.4156  0.4810
12739TIP3   OH259707   3.555   1.330   2.777 -0.4704 -0.5278  0.0834
12739TIP3    H159708   3.479   1.323   2.720 -1.0528  3.8106  0.0168
12739TIP3    H259709   3.626   1.291   2.726 -2.3030 -3.9619 -0.1768
12740TIP3   OH259710   2.518   3.091  17.037 -0.4050 -0.4060 -0.2688
12740TIP3    H159711   2.510   3.006  17.080 -0.6559  0.1443  0.7789
12740TIP3    H259712   2.522   3.070  16.943 -0.3317 -1.5741 -0.0129
12741TIP3   OH259713   3.056   5.276  16.879  0.1113 -0.3663  0.1925
12741TIP3    H159714   2.990   5.310  16.940  0.4035 -0.7040  0.7011
12741TIP3    H259715   3.136   5.271  16.931  0.0952 -1.7740  0.1143
12742TIP3   OH259716   2.494   1.949  15.513 -1.0178 -0.6311  0.2907
12742TIP3    H159717   2.549   1.932  15.437 -1.9563 -1.9794 -0.1205
12742TIP3    H259718   2.548   2.005  15.570  0.1029 -0.5080 -0.8531
12743TIP3   OH259719   3.712   0.941  11.197 -0.1697  0.3835  1.0413
12743TIP3    H159720   3.731   0.850  11.221 -0.2469 -0.2722 -1.1726
12743TIP3    H259721   3.792   0.971  11.153 -1.4470  0.0099 -1.7844
12744TIP3   OH259722   3.316   0.915  16.235  0.1020  0.5060 -0.2331
12744TIP3    H159723   3.382   0.982  16.219  2.7132 -0.9059  3.2888
12744TIP3    H259724   3.255   0.955  16.296 -1.2322  1.1592 -1.9360
12745TIP3   OH259725   5.005   3.690   5.591 -0.1546 -0.5133 -0.6182
12745TIP3    H159726   4.973   3.766   5.542 -1.1946  0.1897  1.0715
12745TIP3    H259727   4.969   3.701   5.679  1.5062 -1.8232  0.2827
12746TIP3   OH259728   3.420   0.496  14.708  0.2969  0.7690 -0.3563
12746TIP3    H159729   3.514   0.488  14.725  0.2316  0.5276 -0.0987
12746TIP3    H259730   3.400   0.422  14.651  0.7147  2.1432 -2.4192
12747TIP3   OH259731   0.490   5.811   6.102 -0.5056 -0.0751 -0.2640
12747TIP3    H159732   0.467   5.794   6.010 -1.1746  0.5849 -0.2214
12747TIP3    H259733   0.432   5.882   6.129 -0.5990 -0.5352  0.7995
12748TIP3   OH259734   4.432   6.306   1.173  0.4929 -0.2302 -0.6744
12748TIP3    H159735   4.379   6.239   1.216  1.6570 -0.9582 -0.3136
12748TIP3    H259736   4.374   6.382   1.165 -0.5208 -0.9301 -0.1107
12749TIP3   OH259737   3.339   2.520  10.921  0.3009 -0.1940 -0.1552
12749TIP3    H159738   3.257   2.473  10.935 -0.4384  1.0847 -0.0132
12749TIP3    H259739   3.406   2.466  10.962 -0.9653  0.4920  3.0980
12750TIP3   OH259740   2.975   0.298  14.294 -0.0917 -0.1472 -0.5154
12750TIP3    H159741   3.044   0.273  14.232 -0.2137 -1.0624 -0.2918
12750TIP3    H259742   2.925   0.218  14.308  0.1614 -0.0659  1.0591
12751TIP3   OH259743   0.966   1.204   5.380 -0.7806  0.0766 -0.3348
12751TIP3    H159744   0.937   1.295   5.380 -0.9117  0.0402  0.4114
12751TIP3    H259745   0.891   1.156   5.415  0.3374  0.0441  2.1694
12752TIP3   OH259746   3.698   6.417  15.279 -0.1400  0.4368  0.3316
12752TIP3    H159747   3.734   6.345  15.332  0.1037  0.6925  0.5193
12752TIP3    H259748   3.757   6.490  15.296  0.5346  0.2427 -1.0973
12753TIP3   OH259749   5.538   1.295  16.942  0.4164 -0.3365 -0.3268
12753TIP3    H159750   5.483   1.358  16.988 -0.2687 -0.9823 -0.2546
12753TIP3    H259751   5.512   1.303  16.851 -0.6409 -1.4644 -0.1443
12754TIP3   OH259752   0.495   0.413   3.442 -0.3960 -0.1037  0.3997
12754TIP3    H159753   0.501   0.345   3.375  0.8676 -0.0457  0.4145
12754TIP3    H259754   0.438   0.479   3.404  2.0237  1.0036 -1.6702
12755TIP3   OH259755   3.937   1.702   1.186 -0.1671 -0.4286 -0.5760
12755TIP3    H159756   3.844   1.681   1.194 -0.4504 -0.4232 -3.1279
12755TIP3    H259757   3.980   1.617   1.175  0.2982 -0.5008  1.3363
12756TIP3   OH259758   4.414   5.533  16.071 -0.1891 -0.3133 -0.0739
12756TIP3    H159759   4.465   5.584  16.134 -1.6236  1.0290  0.0660
12756TIP3    H259760   4.455   5.552  15.987 -1.1237  1.7240 -0.1243
12757TIP3   OH259761   3.115   1.666  15.314 -0.8550  0.0913  0.0522
12757TIP3    H159762   3.113   1.639  15.222  1.5521 -0.4276  0.0730
12757TIP3    H259763   3.029   1.642  15.348 -0.7521 -2.6588 -1.3197
12758TIP3   OH259764   3.395   2.265   2.644  0.1831  0.6548  0.4787
12758TIP3    H159765   3.411   2.262   2.739 -0.3881 -1.3117  0.5758
12758TIP3    H259766   3.317   2.211   2.632  0.5455  0.4444 -1.1528
12759TIP3   OH259767   0.198   0.054   0.344  0.0617  0.0490  0.3778
12759TIP3    H159768   0.285   0.053   0.383  0.5907  1.4867 -0.6760
12759TIP3    H259769   0.211   0.092   0.257 -1.3405 -1.3805 -0.5252
12760TIP3   OH259770   6.109   5.805   6.196 -0.0546  0.3976  0.0817
12760TIP3    H159771   6.148   5.798   6.283 -1.6377  1.4128  0.9452
12760TIP3    H259772   6.183   5.814   6.137  1.0895 -0.8501  1.2416
12761TIP3   OH259773   1.520   1.828   3.187  0.1762 -0.3227 -0.0051
12761TIP3    H159774   1.554   1.799   3.102  1.3276 -0.7166  0.5667
12761TIP3    H259775   1.548   1.760   3.248 -2.0655 -0.9077  0.4677
12762TIP3   OH259776   3.803   4.149  14.976 -0.0484 -0.3213  0.3155
12762TIP3    H159777   3.747   4.159  14.900  0.5096 -1.4619 -0.2754
12762TIP3    H259778   3.888   4.182  14.948 -0.7505  3.0989  1.7694
12763TIP3   OH259779   1.093   5.423  13.896  0.2067 -0.6006 -0.2033
12763TIP3    H159780   1.034   5.392  13.827  0.8489 -0.9670 -0.5886
12763TIP3    H259781   1.179   5.426  13.856  0.8371 -2.1177  0.9511
12764TIP3   OH259782   4.512   2.968   4.320 -0.1702 -1.0340 -0.0580
12764TIP3    H159783   4.590   2.975   4.266 -1.0831  0.3456 -1.2616
12764TIP3    H259784   4.543   2.979   4.410  0.7790  2.0251 -0.6489
12765TIP3   OH259785   3.181   5.312   1.357  0.4034 -0.1342 -0.8468
12765TIP3    H159786   3.269   5.288   1.328  0.9026  1.0600 -0.3986
12765TIP3    H259787   3.187   5.315   1.453 -0.1739 -0.1995 -0.8027
12766TIP3   OH259788   1.704   6.742   3.917 -0.0550 -0.0866  0.4206
12766TIP3    H159789   1.760   6.676   3.958  0.0098 -1.4770 -1.7255
12766TIP3    H259790   1.706   6.720   3.823 -1.7856  1.6586 -0.0893
12767TIP3   OH259791   1.098   3.997   0.836 -0.4001  0.2951 -0.2670
12767TIP3    H159792   1.028   3.991   0.771 -0.3456  0.9280 -0.3917
12767TIP3    H259793   1.131   3.907   0.845 -1.2472 -0.0202 -0.1794
12768TIP3   OH259794   5.285   1.616   1.275  0.0511  0.3534  0.2729
12768TIP3    H159795   5.237   1.542   1.312  0.0341  0.3885  0.3210
12768TIP3    H259796   5.289   1.597   1.181  0.0395  0.2957  0.2839
12769TIP3   OH259797   1.268   6.139   4.063 -0.0155  0.6697 -0.2044
12769TIP3    H159798   1.314   6.067   4.105  1.5218  1.2068 -0.8586
12769TIP3    H259799   1.176   6.126   4.085  0.4069 -0.6280  0.9288
12770TIP3   OH259800   4.187   0.428   2.429  0.1334  0.2024 -0.2531
12770TIP3    H159801   4.227   0.365   2.489 -0.0384  0.0882 -0.2575
12770TIP3    H259802   4.099   0.393   2.413 -0.2470  0.8614  0.3711
12771TIP3   OH259803   4.710   4.617  11.330 -0.1300  0.0501  0.3809
12771TIP3    H159804   4.728   4.705  11.363 -0.4300  0.5135 -0.6661
12771TIP3    H259805   4.631   4.627  11.277  0.1972 -0.7206 -0.2681
12772TIP3   OH259806   3.039   3.248   6.649 -0.0634  0.0173  0.6886
12772TIP3    H159807   2.966   3.258   6.710  0.1064 -0.3518  0.9558
12772TIP3    H259808   3.066   3.156   6.659 -0.0567 -0.0520  0.0345
12773TIP3   OH259809   0.687   5.497  12.895 -0.6881 -0.0315  0.1688
12773TIP3    H159810   0.686   5.580  12.848 -2.0496 -1.0144 -1.6727
12773TIP3    H259811   0.766   5.453  12.864  1.1721  1.2791  2.6608
12774TIP3   OH259812   2.394   1.983   2.860 -0.2400  0.0067  0.5046
12774TIP3    H159813   2.432   1.896   2.873 -0.7563  0.0358  2.5841
12774TIP3    H259814   2.401   2.025   2.946  1.5421  2.6959 -0.8092
12775TIP3   OH259815   5.288   6.331   3.091 -0.1357 -0.1722 -0.0403
12775TIP3    H159816   5.218   6.319   3.156 -1.8773 -1.4739 -2.0137
12775TIP3    H259817   5.241   6.344   3.008  1.9473 -1.7989 -1.5765
12776TIP3   OH259818   2.898   6.007  15.702  0.2313  0.0753 -1.0041
12776TIP3    H159819   2.860   5.919  15.703 -1.3052  0.6993 -0.3364
12776TIP3    H259820   2.991   5.993  15.718 -0.2486 -1.3417  1.0142
12777TIP3   OH259821   4.038   0.447  16.313  0.4255  0.1784 -0.2625
12777TIP3    H159822   3.994   0.508  16.371 -0.8563  0.3189 -1.3243
12777TIP3    H259823   3.976   0.434  16.241  1.0673 -1.6081 -0.5471
12778TIP3   OH259824   1.512   6.021   1.708  0.7215 -0.7061 -0.3201
12778TIP3    H159825   1.502   6.077   1.631  0.2590 -1.7097 -1.0093
12778TIP3    H259826   1.515   5.932   1.672 -0.0653 -1.2259  0.8694
12779TIP3   OH259827   6.059   1.535   4.502 -0.0295 -0.2010 -0.6935
12779TIP3    H159828   6.128   1.540   4.569  1.4413 -0.4491 -2.1243
12779TIP3    H259829   6.094   1.474   4.437 -1.0702  0.6272 -2.0677
12780TIP3   OH259830   2.195   2.108   5.978  0.1313 -0.1417  0.1924
12780TIP3    H159831   2.253   2.152   6.040 -1.1153 -0.4204  1.6330
12780TIP3    H259832   2.116   2.163   5.977 -0.3112 -0.7713 -0.2496
12781TIP3   OH259833   6.491   2.332  13.132  0.5095  0.0603  0.6308
12781TIP3    H159834   6.443   2.249  13.128  1.4258 -0.6758  3.0408
12781TIP3    H259835   6.437   2.388  13.189  1.6134 -0.1641  1.9262
12782TIP3   OH259836   4.219   1.617   4.832 -0.2813  0.4818  0.4642
12782TIP3    H159837   4.143   1.567   4.803  0.1055 -0.2773  0.7255
12782TIP3    H259838   4.294   1.573   4.791  0.2031 -0.1094  1.9204
12783TIP3   OH259839   5.642   0.640  13.897  0.2062  0.2622 -0.2627
12783TIP3    H159840   5.601   0.666  13.814  1.2684 -0.2152 -0.9587
12783TIP3    H259841   5.571   0.602  13.948 -0.3221 -0.1123 -1.2570
12784TIP3   OH259842   5.793   2.779  13.310 -0.6510 -0.0026 -0.6137
12784TIP3    H159843   5.845   2.853  13.343 -1.0898  0.0266  0.0359
12784TIP3    H259844   5.728   2.764  13.378 -0.0970 -1.4751 -0.3711
12785TIP3   OH259845   4.542   0.408  13.877 -0.3336 -0.5548  0.5341
12785TIP3    H159846   4.615   0.470  13.877 -0.9501  0.1887  0.1848
12785TIP3    H259847   4.510   0.409  13.967 -2.1504  1.8583 -0.0355
12786TIP3   OH259848   1.402   4.862  15.979 -0.6273 -0.4963  0.4453
12786TIP3    H159849   1.370   4.820  15.899 -0.5169  0.4458 -0.1105
12786TIP3    H259850   1.376   4.803  16.050 -1.3552 -0.9926 -0.2240
12787TIP3   OH259851   2.412   4.272   5.739  0.2073  0.2221 -0.1547
12787TIP3    H159852   2.486   4.219   5.767 -0.2017  0.2005  0.9186
12787TIP3    H259853   2.449   4.332   5.674  1.1121  0.0638  0.1975
12788TIP3   OH259854   5.533   6.033  12.734 -0.9441 -0.0139  1.0641
12788TIP3    H159855   5.538   6.031  12.639 -3.4087 -0.3710  0.8632
12788TIP3    H259856   5.607   5.980  12.764 -0.3173 -0.1560 -0.6437
12789TIP3   OH259857   5.061   0.618  15.444  0.2799 -0.0093 -0.3624
12789TIP3    H159858   4.966   0.626  15.438 -0.0892 -2.4897  0.8450
12789TIP3    H259859   5.093   0.708  15.448 -1.6877  1.0619 -3.9920
12790TIP3   OH259860   2.905   5.637   5.220  0.4254 -0.2323 -0.2992
12790TIP3    H159861   2.980   5.695   5.230 -0.5891  1.2963 -1.2470
12790TIP3    H259862   2.837   5.674   5.277  0.3851 -1.6684  0.6505
12791TIP3   OH259863   1.902   3.164  14.391  0.2593  0.7005 -0.1151
12791TIP3    H159864   1.909   3.203  14.478  0.8126  2.6137 -0.9650
12791TIP3    H259865   1.859   3.231  14.337 -0.9315 -0.7978 -1.1299
12792TIP3   OH259866   5.837   2.172   5.303 -0.2400  0.2947  0.4690
12792TIP3    H159867   5.867   2.114   5.374  2.0467  0.1571 -0.5148
12792TIP3    H259868   5.887   2.252   5.317  0.0580  0.3483 -0.8309
12793TIP3   OH259869   0.873   2.304   3.096  0.3664 -0.0260 -0.7157
12793TIP3    H159870   0.968   2.303   3.090  0.4491 -0.8426  0.3364
12793TIP3    H259871   0.844   2.237   3.034  0.4819  0.1193 -0.9269
12794TIP3   OH259872   1.589   1.216  13.805 -0.0588  0.1944 -0.1808
12794TIP3    H159873   1.665   1.224  13.748  0.3839  0.1896  0.3966
12794TIP3    H259874   1.569   1.305  13.834  0.9559 -0.0046  1.2243
12795TIP3   OH259875   0.927   6.255  15.261 -0.1964 -0.0674  0.1131
12795TIP3    H159876   0.954   6.185  15.203 -0.8870 -0.6486  0.4747
12795TIP3    H259877   0.860   6.303  15.212  0.6220  0.6591 -0.3272
12796TIP3   OH259878   3.257   6.425  12.069  0.2484  0.4688  0.3619
12796TIP3    H159879   3.295   6.494  12.124  1.3975  1.1002 -1.1427
12796TIP3    H259880   3.324   6.356  12.069 -0.8973 -0.7186  1.8655
12797TIP3   OH259881   2.410   1.848  11.538 -0.2593  0.3790  0.3406
12797TIP3    H159882   2.373   1.761  11.549  0.7414 -0.0429  0.4308
12797TIP3    H259883   2.472   1.839  11.466 -0.7570  1.2194 -0.2140
12798TIP3   OH259884   5.494   1.141  13.038  0.4693 -0.0191 -0.5848
12798TIP3    H159885   5.554   1.216  13.037  0.9767 -0.3262  1.5250
12798TIP3    H259886   5.550   1.065  13.018  0.9125 -0.3332  1.5975
12799TIP3   OH259887   0.418   6.641  15.759 -0.2042 -0.6134  0.2470
12799TIP3    H159888   0.381   6.607  15.841 -0.8400 -0.7487 -0.0916
12799TIP3    H259889   0.395   6.734  15.759  1.2576 -0.2214  1.0175
12800TIP3   OH259890   5.952   2.497  17.188 -1.0320  0.0833 -0.1396
12800TIP3    H159891   5.921   2.582  17.159 -0.9175  0.3750  0.5587
12800TIP3    H259892   5.872   2.449  17.212 -0.9855  0.9482  1.9593
12801TIP3   OH259893   0.492   6.536   2.732 -0.1054 -0.4785  0.2024
12801TIP3    H159894   0.505   6.459   2.676  0.0767  0.0244 -0.4618
12801TIP3    H259895   0.577   6.579   2.734  0.2974 -1.2922  2.1209
12802TIP3   OH259896   5.066   1.493   2.067 -0.1282 -0.0547 -0.0456
12802TIP3    H159897   5.051   1.400   2.048 -0.3289  0.5562 -3.4536
12802TIP3    H259898   5.139   1.492   2.130  3.5775 -2.5990 -3.8152
12803TIP3   OH259899   0.526   0.694  15.302  0.9063  0.0802 -0.2833
12803TIP3    H159900   0.438   0.657  15.293  0.4819  1.2508 -1.2797
12803TIP3    H259901   0.549   0.723  15.214  3.2353 -2.1389 -0.5362
12804TIP3   OH259902   2.521   1.472   2.668 -0.5517  0.1678 -0.6766
12804TIP3    H159903   2.602   1.420   2.665 -1.1807 -0.8263 -1.3929
12804TIP3    H259904   2.461   1.423   2.611 -1.7801  0.6698  0.1717
12805TIP3   OH259905   1.612   4.505  17.080  0.2433 -0.7033 -0.8528
12805TIP3    H159906   1.543   4.546  17.133 -0.6400 -0.1554 -2.3780
12805TIP3    H259907   1.688   4.562  17.092  0.5850 -1.4561  1.0535
12806TIP3   OH259908   1.366   5.024  16.662  0.0332 -0.0058  0.7704
12806TIP3    H159909   1.274   4.998  16.658 -0.1306  0.6608 -1.0929
12806TIP3    H259910   1.413   4.942  16.678 -0.7297 -0.8606 -1.0539
12807TIP3   OH259911   2.334   4.565   5.191  0.1351  0.2994 -0.5919
12807TIP3    H159912   2.390   4.619   5.246 -0.0348 -1.6876  1.7464
12807TIP3    H259913   2.262   4.539   5.249 -0.8921 -0.7071 -2.2287
12808TIP3   OH259914   2.390   5.816   3.520  0.2795  0.0546 -0.3026
12808TIP3    H159915   2.313   5.825   3.464  1.3894 -0.0600 -1.8873
12808TIP3    H259916   2.362   5.756   3.590 -0.5466 -1.4724 -1.8697
12809TIP3   OH259917   3.630   5.468  12.476 -0.2099  0.1332  0.7512
12809TIP3    H159918   3.599   5.506  12.558 -0.7837 -0.6387  0.9049
12809TIP3    H259919   3.654   5.544  12.422 -0.1817  0.6602  1.4854
12810TIP3   OH259920   1.472   5.888  13.428  0.6227  0.1590 -0.6162
12810TIP3    H159921   1.499   5.833  13.501 -0.0891 -0.6807 -0.9712
12810TIP3    H259922   1.453   5.826  13.357 -1.2066  0.7760 -0.6994
12811TIP3   OH259923   5.023   4.789   5.181 -0.8447  0.4235 -0.4647
12811TIP3    H159924   5.054   4.861   5.127  0.3915  0.6428  0.5017
12811TIP3    H259925   5.075   4.714   5.153 -0.5677  0.4217  0.0284
12812TIP3   OH259926   1.950   2.445   0.696  0.4033 -0.0459 -0.1880
12812TIP3    H159927   2.009   2.392   0.751 -1.5198 -1.4021  0.6886
12812TIP3    H259928   1.891   2.487   0.758 -1.0488 -0.6311 -1.1249
12813TIP3   OH259929   5.501   6.054   3.838  0.3204  0.2452 -0.3150
12813TIP3    H159930   5.477   6.096   3.920  0.6854  2.1024 -1.0996
12813TIP3    H259931   5.418   6.020   3.803 -0.1248  0.9964 -0.0117
12814TIP3   OH259932   3.573   1.849   5.274 -0.5503  0.2614 -0.1639
12814TIP3    H159933   3.625   1.846   5.354 -0.4538 -0.9498 -0.2662
12814TIP3    H259934   3.520   1.929   5.283 -0.8049 -0.0440  1.2661
12815TIP3   OH259935   5.579   3.613   1.860 -0.1314 -0.2517  0.3072
12815TIP3    H159936   5.622   3.658   1.787  0.6590  0.1620  1.0180
12815TIP3    H259937   5.485   3.629   1.845  0.0797  0.7596 -0.0197
12816TIP3   OH259938   0.136   4.923  13.965 -0.2996 -0.0677 -0.0620
12816TIP3    H159939   0.158   5.013  13.990  1.1354  0.0067 -1.4036
12816TIP3    H259940   0.183   4.909  13.883 -2.0679 -1.4023 -0.9094
12817TIP3   OH259941   2.093   1.312   4.938 -0.0716 -0.1141 -0.0257
12817TIP3    H159942   1.999   1.327   4.941 -0.3742 -1.2811 -1.8845
12817TIP3    H259943   2.126   1.380   4.879  0.1897  0.0751  0.3398
12818TIP3   OH259944   5.435   4.165   2.772  0.1849  0.2531 -0.3922
12818TIP3    H159945   5.438   4.162   2.676  1.4018  0.1309 -0.3593
12818TIP3    H259946   5.358   4.218   2.791  0.5345  1.2047 -1.4578
12819TIP3   OH259947   6.747   1.890   0.886 -0.1785 -0.3878 -0.2288
12819TIP3    H159948   6.666   1.848   0.858  0.2052 -0.4355 -1.3199
12819TIP3    H259949   6.726   1.929   0.970 -1.4552 -0.0554 -0.6777
12820TIP3   OH259950   1.638   1.940   5.958  0.5981  0.1642  0.1752
12820TIP3    H159951   1.660   1.987   5.878 -2.4564 -0.5425 -1.2149
12820TIP3    H259952   1.607   2.007   6.019 -0.2440  0.3877 -0.4804
12821TIP3   OH259953   0.252   0.127   3.265  0.1166 -0.4648  0.1387
12821TIP3    H159954   0.292   0.062   3.322  2.8777  0.5686 -0.4527
12821TIP3    H259955   0.216   0.077   3.193  0.4698 -1.4821  0.6514
12822TIP3   OH259956   0.203   4.907  16.510 -0.7795 -0.6199 -0.3657
12822TIP3    H159957   0.161   4.908  16.596 -1.8874 -0.5746 -0.8867
12822TIP3    H259958   0.269   4.976  16.514 -1.9301  0.4930 -0.0799
12823TIP3   OH259959   4.221   5.124  12.877 -0.0022  0.2055 -0.7405
12823TIP3    H159960   4.281   5.131  12.803  0.7564 -1.9359 -0.3805
12823TIP3    H259961   4.278   5.119  12.954 -0.7714  1.9105  0.0092
12824TIP3   OH259962   0.671   5.975  10.984  0.3169  0.2527  0.5946
12824TIP3    H159963   0.734   5.903  10.983 -0.4394 -0.4232 -0.0442
12824TIP3    H259964   0.661   6.000  10.892 -2.1045 -1.2706  0.3461
12825TIP3   OH259965   6.536   0.059   4.430 -0.7947  0.1647 -0.2568
12825TIP3    H159966   6.581   0.089   4.509  2.6048 -1.1669 -1.5168
12825TIP3    H259967   6.467   0.124   4.417  0.2352  1.9645  2.3036
12826TIP3   OH259968   0.400   0.382  17.038  0.2908  0.4255 -0.0897
12826TIP3    H159969   0.463   0.417  16.974  1.7563  0.4049  1.2973
12826TIP3    H259970   0.387   0.454  17.100 -1.2006  0.4778 -0.4213
12827TIP3   OH259971   4.038   2.532   4.177 -0.1706  0.4799 -0.1066
12827TIP3    H159972   4.002   2.486   4.101 -0.0898  1.0890 -0.5211
12827TIP3    H259973   4.054   2.621   4.145  0.2458  0.6279  0.5119
12828TIP3   OH259974   5.694   6.327   3.312  0.0847 -0.4291 -0.2762
12828TIP3    H159975   5.729   6.395   3.370  0.2586 -1.7799  1.2625
12828TIP3    H259976   5.642   6.375   3.248  0.9008  1.2222  0.2461
12829TIP3   OH259977   0.579   0.627   5.975 -0.5657  0.0654  0.3119
12829TIP3    H159978   0.499   0.608   6.025 -1.8786  0.0884 -1.6430
12829TIP3    H259979   0.605   0.714   6.005 -0.7353 -0.2964  1.6028
12830TIP3   OH259980   5.292   2.750  11.601 -0.2936 -0.0024 -0.2558
12830TIP3    H159981   5.300   2.656  11.587  2.1451  0.3815 -2.0628
12830TIP3    H259982   5.303   2.788  11.514  0.3938  2.0049  0.6569
12831TIP3   OH259983   5.726   5.954  16.060  0.0718 -0.0680  0.3202
12831TIP3    H159984   5.728   5.862  16.035 -2.2677 -0.0311 -0.2962
12831TIP3    H259985   5.753   6.001  15.981 -0.2961 -0.1878  0.1201
12832TIP3   OH259986   3.017   2.458  14.027  0.5069 -0.6763  0.4911
12832TIP3    H159987   2.953   2.428  14.092  1.0384 -0.7104  1.0016
12832TIP3    H259988   3.096   2.476  14.077  0.7988 -0.3059 -0.0923
12833TIP3   OH259989   1.291   2.952  17.093  0.2010 -0.0744 -0.5781
12833TIP3    H159990   1.254   3.007  17.023 -1.0209 -0.5941 -0.3687
12833TIP3    H259991   1.256   2.990  17.174  1.6254  0.5350 -0.2170
12834TIP3   OH259992   4.952   6.784  15.857  0.0033 -0.5381 -0.3348
12834TIP3    H159993   4.889   6.774  15.928 -0.6518 -1.0833 -0.9763
12834TIP3    H259994   4.998   6.700  15.854  2.1226  0.4686  1.3621
12835TIP3   OH259995   5.076   3.388  12.265 -0.2327 -0.6940  0.1960
12835TIP3    H159996   5.132   3.313  12.286 -0.6514 -1.0140  0.1840
12835TIP3    H259997   4.987   3.358  12.285 -0.5666 -0.7242 -1.1944
12836TIP3   OH259998   2.211   4.182   6.563  0.3293  0.1079 -0.2596
12836TIP3    H159999   2.189   4.199   6.472 -0.0544 -0.0040 -0.1881
12836TIP3    H260000   2.307   4.181   6.564  0.3388  0.3738 -0.6085
12837TIP3   OH260001   1.409   3.964  14.626  0.0140 -0.3223 -0.1338
12837TIP3    H160002   1.500   3.991  14.626 -0.0301 -0.1694 -0.3972
12837TIP3    H260003   1.401   3.908  14.548  0.1140 -1.1253  0.4181
12838TIP3   OH260004   4.987   2.216  11.451 -0.6652 -0.0593 -0.0151
12838TIP3    H160005   4.927   2.148  11.420 -0.1313 -0.8538  0.6572
12838TIP3    H260006   5.032   2.246  11.372  1.8561 -3.1680  0.0606
12839TIP3   OH260007   0.940   1.143   3.719 -0.1552  0.0150 -0.0205
12839TIP3    H160008   0.967   1.057   3.687  1.4427 -0.1090  1.5012
12839TIP3    H260009   0.993   1.205   3.669 -0.5599  0.0827 -0.3808
12840TIP3   OH260010   6.510   0.999   4.270 -0.3409 -0.5999 -0.4244
12840TIP3    H160011   6.440   1.040   4.220  0.4543  0.7300 -0.4967
12840TIP3    H260012   6.569   1.071   4.292  0.7548 -1.6084  0.0378
12841TIP3   OH260013   2.585   1.622   4.648  0.1716  0.4275 -0.0127
12841TIP3    H160014   2.573   1.694   4.709  0.7708 -0.4333  1.1651
12841TIP3    H260015   2.503   1.573   4.652  0.2952  0.2397  0.3028
12842TIP3   OH260016   2.950   1.280   0.113 -0.5362 -0.6014 -0.5120
12842TIP3    H160017   2.966   1.253   0.203  1.3742  0.5312 -0.4502
12842TIP3    H260018   2.890   1.214   0.078 -2.7318 -0.1398  2.0563
12843TIP3   OH260019   6.173   6.199  14.534  0.2475  0.3571 -0.5734
12843TIP3    H160020   6.100   6.198  14.596 -0.5426  1.5967 -1.4277
12843TIP3    H260021   6.133   6.178  14.449  1.1703 -0.5031 -0.8271
12844TIP3   OH260022   1.659   1.588  12.068  0.0072 -0.0795 -0.1250
12844TIP3    H160023   1.695   1.527  12.133 -0.9218 -0.6217 -0.1010
12844TIP3    H260024   1.571   1.555  12.050  0.5915 -0.5854 -2.4516
12845TIP3   OH260025   0.921   3.578   3.121  0.6444 -0.0884  0.2211
12845TIP3    H160026   0.989   3.625   3.074 -2.6013  0.4313 -4.7226
12845TIP3    H260027   0.942   3.485   3.107  0.9173  0.0589 -0.4029
12846TIP3   OH260028   6.483   6.723   2.018  0.7758 -0.3598 -0.2971
12846TIP3    H160029   6.534   6.745   1.939  0.3778 -1.4651 -0.8771
12846TIP3    H260030   6.521   6.640   2.048  0.5949 -0.1915  0.3953
12847TIP3   OH260031   0.093   4.175   5.463  0.3860 -0.0821 -0.3276
12847TIP3    H160032   0.020   4.235   5.453 -0.5176 -1.0649  0.2352
12847TIP3    H260033   0.140   4.181   5.379 -1.1530 -0.4904 -1.2687
12848TIP3   OH260034   4.365   0.019  13.746  0.1257 -0.0498 -0.1456
12848TIP3    H160035   4.448  -0.004  13.705  0.9518  1.5902  0.4980
12848TIP3    H260036   4.378   0.001  13.839 -0.8735 -1.3994 -0.2259
12849TIP3   OH260037   1.571   4.700   0.345  0.1951 -0.1358 -0.0433
12849TIP3    H160038   1.591   4.750   0.266 -0.4316 -0.4824 -0.4318
12849TIP3    H260039   1.595   4.758   0.417  1.4634 -0.0982 -0.4764
12850TIP3   OH260040   3.671   4.865   0.177  0.2229  0.2779 -1.0858
12850TIP3    H160041   3.623   4.945   0.198  0.6826 -0.0182  1.4733
12850TIP3    H260042   3.653   4.807   0.251  1.1703 -1.4100 -2.1233
12851TIP3   OH260043   2.002   1.841  16.949  0.0946  0.3347 -0.5630
12851TIP3    H160044   1.964   1.886  16.873 -2.0473 -0.3285  0.0455
12851TIP3    H260045   2.050   1.767  16.911 -0.9965 -0.0310 -1.2999
12852TIP3   OH260046   0.800   0.229   3.216  0.0794 -0.1832 -0.3419
12852TIP3    H160047   0.813   0.171   3.291 -0.1199 -0.8634 -0.8147
12852TIP3    H260048   0.889   0.248   3.186  0.1892  0.7156  0.5149
12853TIP3   OH260049   1.513   0.483  16.774  0.2335 -0.0978 -0.3971
12853TIP3    H160050   1.522   0.421  16.846 -1.0410  1.2790  1.0475
12853TIP3    H260051   1.602   0.510  16.753  0.5830  0.8580  1.9952
12854TIP3   OH260052   0.248   2.850   3.785  0.0054 -0.4222  0.3196
12854TIP3    H160053   0.318   2.852   3.850 -0.0909 -0.7596  0.4329
12854TIP3    H260054   0.175   2.806   3.829 -0.3473  0.0947  0.2678
12855TIP3   OH260055   1.048   3.899   0.072 -0.1557  0.5869 -0.4797
12855TIP3    H160056   1.043   3.806   0.053  1.5535  0.2714  0.4353
12855TIP3    H260057   1.023   3.942  -0.010 -0.1187 -0.6845 -1.1733
12856TIP3   OH260058   1.623   0.626  14.736  0.2547 -0.1902  0.2517
12856TIP3    H160059   1.697   0.641  14.795  0.6603 -1.2866  0.0534
12856TIP3    H260060   1.622   0.531  14.722  0.2881  0.0486 -1.6479
12857TIP3   OH260061   1.798   3.383   3.434  0.3368  0.6384  0.5319
12857TIP3    H160062   1.799   3.353   3.343  3.2647  0.4933  0.5012
12857TIP3    H260063   1.708   3.409   3.450 -0.3246  0.4417 -2.3322
12858TIP3   OH260064   3.781   2.434  11.657  0.2772 -0.3858 -0.4770
12858TIP3    H160065   3.781   2.490  11.580  2.1897  0.0828 -0.1844
12858TIP3    H260066   3.867   2.449  11.698 -0.1733 -1.6074  1.0113
12859TIP3   OH260067   6.427   4.637   1.563  0.0752 -0.1932  0.1943
12859TIP3    H160068   6.435   4.632   1.468 -0.6686  0.6421  0.0735
12859TIP3    H260069   6.336   4.612   1.581  0.5585 -1.6322  0.8156
12860TIP3   OH260070   4.527   4.335  14.989  0.3771 -0.2801 -0.6918
12860TIP3    H160071   4.568   4.248  14.993 -1.3046 -1.0845  0.1017
12860TIP3    H260072   4.443   4.319  14.947 -0.3695  0.7956  0.3454
12861TIP3   OH260073   3.377   1.541  12.209 -0.8999  0.0511 -0.6160
12861TIP3    H160074   3.405   1.613  12.267  0.1315 -1.1961  0.5040
12861TIP3    H260075   3.282   1.544  12.211 -0.8901  1.7640 -1.0907
12862TIP3   OH260076   4.855   4.841  14.376  0.0196  0.7205 -0.5953
12862TIP3    H160077   4.946   4.811  14.381  0.6268  2.6495  1.0686
12862TIP3    H260078   4.826   4.843  14.467 -0.9837  2.1828 -0.9223
12863TIP3   OH260079   3.467   3.370  12.430  0.1393  0.2590 -0.3758
12863TIP3    H160080   3.377   3.343  12.411  0.3428 -0.0886 -0.8572
12863TIP3    H260081   3.459   3.428  12.505 -0.2086 -2.4026  1.8292
12864TIP3   OH260082   1.481   0.723  13.640  0.5001 -0.3896 -0.0232
12864TIP3    H160083   1.512   0.728  13.730  0.0461 -0.8171  0.1591
12864TIP3    H260084   1.457   0.813  13.618 -2.8611 -0.7573  1.5300
12865TIP3   OH260085   0.001   5.775  16.199  0.5449  0.2851  0.0987
12865TIP3    H160086   0.009   5.707  16.131 -0.9553  0.8571 -0.6908
12865TIP3    H260087   0.092   5.795  16.223  1.0569 -1.0447 -0.6130
12866TIP3   OH260088   6.135   5.252  15.027  0.3337  0.0312 -0.3248
12866TIP3    H160089   6.153   5.164  14.993 -0.7371 -1.0859  1.7585
12866TIP3    H260090   6.084   5.294  14.958 -0.7026 -1.6726 -0.6761
12867TIP3   OH260091   0.505   6.496   5.175  0.1789  0.4435 -0.0891
12867TIP3    H160092   0.598   6.518   5.178  0.6343 -1.3558 -0.0441
12867TIP3    H260093   0.502   6.406   5.142 -1.6260  0.8925 -1.3034
12868TIP3   OH260094   1.080   4.299   1.713  0.0190  0.0242  0.2785
12868TIP3    H160095   1.041   4.379   1.749  0.9438 -0.4287  2.4883
12868TIP3    H260096   1.114   4.325   1.627 -0.3568  1.8091  0.6305
12869TIP3   OH260097   0.694   1.691  16.688 -0.3838  0.5290  0.8669
12869TIP3    H160098   0.777   1.739  16.689 -0.5383  0.7920  1.1768
12869TIP3    H260099   0.714   1.610  16.641  0.1695  0.3871  1.3400
12870TIP3   OH260100   5.243   5.338   5.378  0.4758  0.1945  0.3261
12870TIP3    H160101   5.177   5.285   5.422  0.2328  0.0070 -0.2506
12870TIP3    H260102   5.194   5.409   5.337  0.7724  0.7274  0.8753
12871TIP3   OH260103   2.691   5.994   5.488 -0.1852 -0.3828 -0.5401
12871TIP3    H160104   2.634   6.063   5.523 -0.7809 -1.9545  1.8793
12871TIP3    H260105   2.773   6.038   5.467 -0.7044  1.1657  0.5165
12872TIP3   OH260106   6.819   1.673   5.545 -0.5444 -0.6433  0.5707
12872TIP3    H160107   6.809   1.621   5.625 -2.2631 -0.0738  0.7623
12872TIP3    H260108   6.740   1.656   5.494 -0.0108 -0.1016 -0.4865
12873TIP3   OH260109   6.051   0.177  15.918 -0.0292 -0.2935  0.3063
12873TIP3    H160110   6.115   0.166  15.847 -1.0934  0.1867 -0.7645
12873TIP3    H260111   5.971   0.136  15.884 -0.5505 -0.0823  1.2577
12874TIP3   OH260112   6.442   0.242   0.447  0.1613 -0.4445 -0.4704
12874TIP3    H160113   6.535   0.254   0.426 -0.1334  1.6546 -0.7018
12874TIP3    H260114   6.421   0.155   0.413  2.1024 -1.0924 -0.1413
12875TIP3   OH260115   2.332   5.917  10.204  0.1727  0.3580  0.0158
12875TIP3    H160116   2.367   5.927  10.292  0.8515 -1.8041  0.0499
12875TIP3    H260117   2.351   6.000  10.161 -0.6182  1.6429  2.0130
12876TIP3   OH260118   0.363   1.077   3.770 -0.1217  0.0012 -0.7017
12876TIP3    H160119   0.432   1.056   3.706 -0.0917  0.3350 -0.7844
12876TIP3    H260120   0.364   1.173   3.774  1.2117 -0.0493  1.2473
12877TIP3   OH260121   4.200   0.468  15.597 -0.2828  0.2626 -0.0756
12877TIP3    H160122   4.195   0.386  15.547 -0.1777  0.1201  0.1425
12877TIP3    H260123   4.288   0.501  15.579 -0.0225 -0.1004  0.4869
12878TIP3   OH260124   2.388   4.953   2.612 -0.0833  0.0787  0.3741
12878TIP3    H160125   2.300   4.982   2.637  0.5453  1.6187  0.9074
12878TIP3    H260126   2.384   4.944   2.517 -1.5533 -2.5771  0.5830
12879TIP3   OH260127   5.592   2.581   2.895  0.2251  0.0508 -0.2151
12879TIP3    H160128   5.629   2.515   2.836 -1.2856 -0.0531 -1.1233
12879TIP3    H260129   5.505   2.547   2.916  0.1099  0.9056  0.7514
12880TIP3   OH260130   2.951   5.395   1.553 -0.0179 -0.3631 -0.0234
12880TIP3    H160131   2.978   5.430   1.468 -1.7659  1.2351  0.0340
12880TIP3    H260132   2.863   5.361   1.538  0.1757 -1.3060  0.8604
12881TIP3   OH260133   5.310   1.486   3.241  0.5969 -0.4166 -0.2029
12881TIP3    H160134   5.380   1.442   3.194  0.4890 -0.7278 -0.0733
12881TIP3    H260135   5.250   1.416   3.266  1.0285 -0.3645  1.0490
12882TIP3   OH260136   3.144   5.888   1.020  0.1518  0.2316 -0.1975
12882TIP3    H160137   3.056   5.877   1.058  0.2710 -0.8218 -0.2082
12882TIP3    H260138   3.142   5.838   0.939  0.6315  0.5718 -0.4232
12883TIP3   OH260139   2.173   1.155   1.739  0.4406  0.6474  0.2089
12883TIP3    H160140   2.087   1.176   1.776  1.3205  2.1741  1.5238
12883TIP3    H260141   2.208   1.239   1.711  1.3923  0.0046 -0.6068
12884TIP3   OH260142   5.503   4.602  12.515  0.1461  0.0874  0.6259
12884TIP3    H160143   5.548   4.525  12.480 -0.1695  0.4887 -0.7246
12884TIP3    H260144   5.470   4.574  12.600  0.1988 -1.2187  0.2396
12885TIP3   OH260145   5.272   5.737   0.949 -0.2498  0.0349 -0.0171
12885TIP3    H160146   5.364   5.741   0.974 -0.0003 -2.7221 -0.2618
12885TIP3    H260147   5.274   5.741   0.853 -0.3463 -0.3637 -0.0370
12886TIP3   OH260148   2.961   3.181   1.103 -0.5851  0.0742 -0.2006
12886TIP3    H160149   3.027   3.248   1.089 -0.8634  0.5859  0.8565
12886TIP3    H260150   3.009   3.098   1.097  0.2732  0.4518  1.1189
12887TIP3   OH260151   3.947   0.378  16.029  0.4462 -0.0510  0.0398
12887TIP3    H160152   3.951   0.310  15.962 -0.2250  0.2561 -0.3238
12887TIP3    H260153   3.991   0.454  15.989 -1.0933  0.5523 -0.5890
12888TIP3   OH260154   4.899   4.892   6.447  0.4902 -0.2641  0.3629
12888TIP3    H160155   4.963   4.862   6.382  2.7379  0.9624  1.8773
12888TIP3    H260156   4.916   4.986   6.454 -1.2274  0.0073  1.1373
12889TIP3   OH260157   3.557   1.840  16.630 -0.0393  0.3014  0.1233
12889TIP3    H160158   3.612   1.770  16.666  0.9630  0.3254 -1.2743
12889TIP3    H260159   3.477   1.837  16.682  1.1284  0.0195  1.9871
12890TIP3   OH260160   0.345   2.566   0.763  0.1693  0.0468 -0.1957
12890TIP3    H160161   0.258   2.536   0.736  0.1416  0.2861 -0.3837
12890TIP3    H260162   0.378   2.615   0.688  1.0533 -1.2110 -0.6613
12891TIP3   OH260163   3.709   1.360   4.612  0.3963 -0.2872  0.1480
12891TIP3    H160164   3.724   1.266   4.603  0.9896 -0.3815  1.8471
12891TIP3    H260165   3.706   1.375   4.706  0.6056  1.4478 -0.0941
12892TIP3   OH260166   0.456   2.631  17.015 -0.4925 -0.0481  0.4387
12892TIP3    H160167   0.372   2.586  17.021 -0.5820  0.1663  0.8549
12892TIP3    H260168   0.499   2.593  16.938 -0.4167 -1.1047  0.9849
12893TIP3   OH260169   3.497   1.486   4.491  0.4756 -0.1954 -0.3207
12893TIP3    H160170   3.440   1.428   4.441 -0.5255 -0.8463  1.4965
12893TIP3    H260171   3.573   1.433   4.513  1.4785  0.4386 -2.0689
12894TIP3   OH260172   5.308   2.267   3.452  0.2496  0.0563  0.2452
12894TIP3    H160173   5.305   2.268   3.548  2.5800  0.0787  0.3849
12894TIP3    H260174   5.388   2.219   3.432 -0.2476 -0.0159 -1.7065
12895TIP3   OH260175   2.539   5.994  15.532  0.1916  0.1720 -0.1580
12895TIP3    H160176   2.483   6.028  15.602 -1.5691 -0.0611 -1.3955
12895TIP3    H260177   2.560   6.071  15.479  1.2468  0.2906  0.4051
12896TIP3   OH260178   2.887   2.902  15.105  0.2162  0.2084 -0.6381
12896TIP3    H160179   2.846   2.900  15.019  1.3497  0.3677 -1.1969
12896TIP3    H260180   2.889   2.811  15.133  1.0136  0.0003 -1.3553
12897TIP3   OH260181   0.831   4.399  16.738  0.4407  0.6358  0.1099
12897TIP3    H160182   0.836   4.487  16.701 -0.3035 -0.0502 -1.7863
12897TIP3    H260183   0.913   4.357  16.713 -0.1706  0.0865 -1.0817
12898TIP3   OH260184   1.620   1.552  16.086  0.3236 -0.0694 -0.5377
12898TIP3    H160185   1.640   1.489  16.016  0.2427  0.6442 -1.2197
12898TIP3    H260186   1.526   1.569  16.075  0.6798  1.4830 -1.4973
12899TIP3   OH260187   4.324   3.005   0.221  0.2536  0.5798 -0.2308
12899TIP3    H160188   4.370   2.966   0.147 -1.0563 -0.5972 -0.4816
12899TIP3    H260189   4.391   3.021   0.287  0.8695 -2.2401 -0.0742
12900TIP3   OH260190   2.899   0.977  10.790 -0.1527 -0.1999 -0.8051
12900TIP3    H160191   2.851   1.024  10.722  0.7521  0.5223 -0.9684
12900TIP3    H260192   2.833   0.922  10.833 -1.4001  1.6639 -0.1992
12901TIP3   OH260193   0.020   5.654   1.770 -0.3327 -0.3915  0.1459
12901TIP3    H160194  -0.026   5.661   1.686 -1.4339 -3.7582  0.3266
12901TIP3    H260195  -0.019   5.577   1.813  0.1072  1.2058  3.8340
12902TIP3   OH260196   2.603   2.629   2.313  0.0262  0.0989 -0.3598
12902TIP3    H160197   2.575   2.653   2.224 -0.0507  1.3373 -0.0195
12902TIP3    H260198   2.524   2.639   2.366 -0.0101 -0.9631 -0.1965
12903TIP3   OH260199   6.494   6.000   6.330  0.6661 -0.0279 -0.4208
12903TIP3    H160200   6.566   6.048   6.373 -1.2526  0.5672  2.4553
12903TIP3    H260201   6.496   5.913   6.370 -0.3012  0.0680 -0.1311
12904TIP3   OH260202   2.973   3.770   0.606  0.2362  0.3359 -0.4518
12904TIP3    H160203   2.907   3.729   0.662 -0.3255  0.4048 -1.0450
12904TIP3    H260204   2.982   3.859   0.640  0.9434 -0.0644  0.4060
12905TIP3   OH260205   5.866   2.080  16.312 -0.1436 -0.4108  0.3829
12905TIP3    H160206   5.914   2.002  16.341  1.5499  0.8847  1.2031
12905TIP3    H260207   5.818   2.109  16.389  1.5199  0.9672  0.9629
12906TIP3   OH260208   3.050   5.642   4.342 -0.2472 -0.6880 -0.5258
12906TIP3    H160209   3.053   5.707   4.413 -1.4975  1.1609 -2.0733
12906TIP3    H260210   3.132   5.593   4.352  0.7987  1.1633  0.6840
12907TIP3   OH260211   0.451   4.098   2.227  0.3643  0.1937 -0.5084
12907TIP3    H160212   0.388   4.027   2.243  0.6960  0.0725  0.2680
12907TIP3    H260213   0.410   4.150   2.157 -1.6471  1.3659  1.4260
12908TIP3   OH260214   2.457   2.591  15.954  0.2228 -0.7722 -0.5628
12908TIP3    H160215   2.479   2.599  15.861 -0.8482 -0.4591 -0.8001
12908TIP3    H260216   2.378   2.644  15.964  0.7024 -0.2511  0.6684
12909TIP3   OH260217   3.435   3.359   3.795  0.2467 -0.3860  0.2035
12909TIP3    H160218   3.470   3.373   3.706 -0.0343 -0.2521  0.1137
12909TIP3    H260219   3.346   3.393   3.791  0.8108  1.3364  1.0203
12910TIP3   OH260220   3.119   5.954   3.828 -0.5460  0.0615  0.6569
12910TIP3    H160221   3.063   6.031   3.825  1.3654  1.4912 -1.9210
12910TIP3    H260222   3.063   5.885   3.865 -2.2992  2.6188  3.1419
12911TIP3   OH260223   1.389   3.716   3.692 -0.1775 -0.3687 -0.3449
12911TIP3    H160224   1.295   3.698   3.689 -0.3399  0.3837 -0.0467
12911TIP3    H260225   1.423   3.660   3.762 -0.1931 -1.5120 -1.2270
12912TIP3   OH260226   4.040   5.946   3.266  0.3274  0.5419  0.3704
12912TIP3    H160227   3.964   5.891   3.285  0.9008  0.3040  2.2266
12912TIP3    H260228   4.013   6.034   3.293  0.1241  0.7913 -0.6260
12913TIP3   OH260229   0.835   0.421  12.842 -0.3941 -0.0795  0.1204
12913TIP3    H160230   0.769   0.475  12.884 -1.2871 -2.7427  2.4306
12913TIP3    H260231   0.794   0.393  12.760 -1.3590 -0.1078  0.6014
12914TIP3   OH260232   0.854   6.377  15.975 -0.2669  0.3706 -0.0523
12914TIP3    H160233   0.928   6.430  16.005  0.3564 -0.2368 -0.4850
12914TIP3    H260234   0.787   6.441  15.952  0.2688  0.9475 -0.0373
12915TIP3   OH260235   4.093   1.856   6.301  0.0823 -0.1633  0.6425
12915TIP3    H160236   4.113   1.763   6.314  0.9968  0.1541  1.6213
12915TIP3    H260237   4.001   1.858   6.276 -0.2782 -1.2473  1.7986
12916TIP3   OH260238   4.681   2.657  13.786 -0.5976 -0.6996  0.0987
12916TIP3    H160239   4.603   2.704  13.813 -0.3284 -0.3786  0.3351
12916TIP3    H260240   4.665   2.566  13.812 -0.8329 -0.6092  0.2685
12917TIP3   OH260241   6.274   1.627  12.536 -0.1077 -0.1031  0.0659
12917TIP3    H160242   6.199   1.678  12.567  1.2713  1.6607  0.6403
12917TIP3    H260243   6.325   1.608  12.614  1.0445  0.4168 -0.5293
12918TIP3   OH260244   4.219   4.490   0.920  0.6856  0.1958 -0.7796
12918TIP3    H160245   4.163   4.513   0.846 -1.0834  2.1322  1.0439
12918TIP3    H260246   4.252   4.574   0.952 -0.2883 -0.3348  1.8506
12919TIP3   OH260247   3.556   2.221   2.211  0.5429  0.3501 -0.3360
12919TIP3    H160248   3.473   2.262   2.233  1.1438  0.4803  1.8833
12919TIP3    H260249   3.573   2.160   2.282  2.4036  0.4215 -0.6672
12920TIP3   OH260250   4.834   2.076  17.138  0.4207  0.9038  0.0202
12920TIP3    H160251   4.818   2.075  17.044  0.3204 -0.1714  0.0346
12920TIP3    H260252   4.895   2.004  17.154  0.4993  1.1177  0.7733
12921TIP3   OH260253   4.544   0.211   3.572  0.2808 -0.2848 -0.4361
12921TIP3    H160254   4.557   0.192   3.664 -0.6523  0.2225 -0.1828
12921TIP3    H260255   4.588   0.295   3.558  0.2604 -0.2697 -0.4095
12922TIP3   OH260256   0.084   3.600  15.712 -0.1807  0.1835 -0.0891
12922TIP3    H160257   0.130   3.660  15.654  0.9837 -1.0947 -0.5481
12922TIP3    H260258   0.022   3.554  15.655  0.1249 -0.2384 -0.0810
12923TIP3   OH260259   4.560   5.226  12.502  0.7530  0.2207  0.5227
12923TIP3    H160260   4.507   5.296  12.464 -0.5560 -0.6084  0.7693
12923TIP3    H260261   4.649   5.262  12.505  0.5859  0.9547 -1.6762
12924TIP3   OH260262   2.041   3.773   4.875  0.4394 -0.0279 -0.0620
12924TIP3    H160263   1.952   3.801   4.854  1.3091  2.7536 -0.4367
12924TIP3    H260264   2.037   3.748   4.967 -0.5393  0.9718  0.1900
12925TIP3   OH260265   5.757   3.940   1.947  0.3060  0.0791 -0.0360
12925TIP3    H160266   5.672   3.957   1.906  0.3537 -0.3202 -0.3096
12925TIP3    H260267   5.738   3.874   2.014  0.1690  0.9806  0.8216
12926TIP3   OH260268   0.316   2.489  12.376 -0.7309 -0.4025  0.0553
12926TIP3    H160269   0.336   2.555  12.309 -0.5260 -0.8009 -0.2827
12926TIP3    H260270   0.222   2.475  12.368 -0.6098 -0.9053 -0.5850
12927TIP3   OH260271   0.782   2.017  15.458 -0.4110 -0.3495  0.3925
12927TIP3    H160272   0.798   1.987  15.369 -2.3892  1.6578 -0.7467
12927TIP3    H260273   0.724   1.951  15.495  0.0205 -0.9431  0.0289
12928TIP3   OH260274   6.789   0.357   3.741 -0.1213  0.3817 -0.5308
12928TIP3    H160275   6.802   0.444   3.702  1.4812 -0.4755 -2.0473
12928TIP3    H260276   6.778   0.299   3.667 -0.2592 -0.8617  0.4296
12929TIP3   OH260277   3.642   3.632  14.629  0.7979  0.5983  0.3008
12929TIP3    H160278   3.561   3.635  14.680  2.2598  0.0029  2.8186
12929TIP3    H260279   3.627   3.566  14.561 -1.4030  1.7990 -0.4560
12930TIP3   OH260280   6.021   3.920   3.376 -0.3235 -0.0496  0.2253
12930TIP3    H160281   5.982   4.006   3.364  1.9457  0.8921 -1.1509
12930TIP3    H260282   5.973   3.863   3.316 -0.9651  0.5694  0.1387
12931TIP3   OH260283   1.577   1.109   9.845  0.9233  0.1821  0.8211
12931TIP3    H160284   1.672   1.120   9.854  1.6292 -1.5912 -2.7655
12931TIP3    H260285   1.566   1.021   9.809 -2.1516  0.3035  1.1611
12932TIP3   OH260286   1.459   5.971  16.572  0.3550 -0.2195 -0.0029
12932TIP3    H160287   1.375   5.963  16.618  1.0334 -0.1604  1.3199
12932TIP3    H260288   1.444   5.930  16.487 -0.9190 -0.4941  0.3286
12933TIP3   OH260289   6.624   0.685   3.963  0.0387  0.3438  0.2777
12933TIP3    H160290   6.701   0.727   4.002  0.3086 -0.2484  0.4095
12933TIP3    H260291   6.643   0.591   3.970  0.3353  0.2173 -1.7804
12934TIP3   OH260292   1.981   6.427  11.680 -0.0057  0.1721 -0.0951
12934TIP3    H160293   1.968   6.431  11.775 -2.7092 -1.2105 -0.3209
12934TIP3    H260294   2.066   6.384  11.670  1.0155  1.6393  1.6556
12935TIP3   OH260295   2.465   1.013   1.785 -0.0460 -0.1965  0.0663
12935TIP3    H160296   2.421   1.059   1.715 -0.1855 -0.2251  0.1345
12935TIP3    H260297   2.400   1.008   1.856 -0.0947 -0.6516 -0.0054
12936TIP3   OH260298   5.405   2.215  14.921  0.0271 -0.4642 -0.3170
12936TIP3    H160299   5.349   2.196  14.845  0.8252  1.4513 -1.4548
12936TIP3    H260300   5.343   2.226  14.994 -0.8155 -1.5508 -0.8452
12937TIP3   OH260301   1.652   3.497   0.735  0.0224  0.2958 -0.1474
12937TIP3    H160302   1.650   3.441   0.657  0.6925  2.7187 -2.0158
12937TIP3    H260303   1.718   3.456   0.791  0.7404 -0.6243 -1.5948
12938TIP3   OH260304   3.888   6.771  14.504 -0.0449 -0.1907  0.2992
12938TIP3    H160305   3.881   6.680  14.474 -0.9730  0.5375 -1.8687
12938TIP3    H260306   3.798   6.803  14.507  0.3928  1.3677 -1.4389
12939TIP3   OH260307   3.267   2.560   1.590 -0.1853 -0.1511  0.2503
12939TIP3    H160308   3.230   2.576   1.503  0.1758 -1.1963 -0.1017
12939TIP3    H260309   3.217   2.486   1.625  0.4924 -0.5432  0.4188
12940TIP3   OH260310   2.582   5.123  16.498  0.1264  0.6111  0.2797
12940TIP3    H160311   2.629   5.063  16.440  0.0476  0.6551  0.1700
12940TIP3    H260312   2.613   5.210  16.471 -0.7194  0.7031 -0.4307
12941TIP3   OH260313   1.003   5.201  15.362  0.3850  0.1075 -0.2776
12941TIP3    H160314   0.992   5.295  15.380  1.8015  0.2035  0.2336
12941TIP3    H260315   0.920   5.174  15.323 -0.0067  1.6015 -0.5431
12942TIP3   OH260316   5.393   5.966  14.438 -0.6926  0.0390 -0.1023
12942TIP3    H160317   5.445   6.015  14.375 -2.0229  1.7190  0.0367
12942TIP3    H260318   5.449   5.893  14.465  1.4471  1.5765 -0.1720
12943TIP3   OH260319   4.894   5.358   5.235 -0.7574 -0.3057  0.6791
12943TIP3    H160320   4.967   5.391   5.182 -1.3494  0.8541  0.5462
12943TIP3    H260321   4.829   5.330   5.170 -2.7151  3.7907  0.5662
12944TIP3   OH260322   5.629   2.171   4.935 -0.0988  0.3708 -0.1826
12944TIP3    H160323   5.645   2.243   4.996 -0.6553  1.6408 -1.4771
12944TIP3    H260324   5.711   2.164   4.885 -0.0861  0.1848 -0.1355
12945TIP3   OH260325   4.584   2.084   3.544  0.1746  0.0808  0.3111
12945TIP3    H160326   4.635   2.156   3.508 -0.4688  0.1235 -0.5421
12945TIP3    H260327   4.595   2.012   3.482 -0.9184  0.1416  0.0155
12946TIP3   OH260328   1.219   3.328  10.933 -0.5740 -0.1355 -0.1228
12946TIP3    H160329   1.182   3.259  10.878  2.2945 -1.5783 -0.4256
12946TIP3    H260330   1.309   3.338  10.902 -0.3636  2.5555  1.0827
12947TIP3   OH260331   1.142   5.103   5.804 -0.5255 -0.0027  0.0194
12947TIP3    H160332   1.236   5.118   5.789 -0.6621  1.4522  0.4352
12947TIP3    H260333   1.115   5.049   5.730  0.7186 -0.8154  0.1152
12948TIP3   OH260334   0.505   1.352   2.424 -0.1878 -0.2081  0.4399
12948TIP3    H160335   0.541   1.298   2.494 -0.4946 -1.8275 -0.6035
12948TIP3    H260336   0.419   1.315   2.406  0.2555 -0.4336 -1.3982
12949TIP3   OH260337   5.296   0.460  12.493  0.2073  0.0603 -0.4829
12949TIP3    H160338   5.292   0.365  12.507  1.6681  0.0686  0.1657
12949TIP3    H260339   5.387   0.483  12.514 -0.1131  1.5963 -0.7070
12950TIP3   OH260340   2.453   6.662  12.702 -0.1123  0.4046  0.4385
12950TIP3    H160341   2.506   6.583  12.715  1.2578  1.1485 -0.2555
12950TIP3    H260342   2.375   6.631  12.657  0.6514 -0.5144 -0.3230
12951TIP3   OH260343   2.098   3.041  13.820  0.3527 -0.1083  0.3154
12951TIP3    H160344   2.091   3.086  13.735  1.3165 -2.0670 -0.8601
12951TIP3    H260345   2.010   3.008  13.837 -0.4382  2.2754  1.3136
12952TIP3   OH260346   1.376   2.318   4.642  0.4051  0.0038 -0.2047
12952TIP3    H160347   1.366   2.295   4.734  3.1110 -1.1885 -0.1091
12952TIP3    H260348   1.431   2.396   4.643  2.4752 -1.3715 -0.7738
12953TIP3   OH260349   1.215   1.852  15.562 -0.1825 -0.0072  0.3041
12953TIP3    H160350   1.125   1.857  15.592 -0.1945  2.2809  0.0568
12953TIP3    H260351   1.233   1.939  15.525  1.7415 -0.7879 -0.7372
12954TIP3   OH260352   4.350   5.082  10.685 -0.4182 -0.2555  0.3515
12954TIP3    H160353   4.395   5.153  10.729 -2.1782  2.1291 -1.4160
12954TIP3    H260354   4.266   5.074  10.731 -0.2753 -1.1888  0.4844
12955TIP3   OH260355   2.058   2.746  11.033 -0.5973  0.3575 -0.2420
12955TIP3    H160356   2.107   2.809  10.980 -1.6200  0.6832 -0.8291
12955TIP3    H260357   1.967   2.774  11.026 -0.7084  0.9237  2.4134
12956TIP3   OH260358   5.411   6.098   2.505  0.4631  0.5935  0.2059
12956TIP3    H160359   5.400   6.173   2.563  1.1406 -0.6363  2.0190
12956TIP3    H260360   5.504   6.096   2.485  0.4906  0.1233  0.3584
12957TIP3   OH260361   4.295   3.902  16.615  0.4066 -0.6350  0.5518
12957TIP3    H160362   4.375   3.954  16.625  0.6080 -0.8306 -0.0285
12957TIP3    H260363   4.224   3.963  16.637  0.5544  0.2426 -1.2176
12958TIP3   OH260364   2.250   5.803   0.635  0.5757 -0.1568  0.5802
12958TIP3    H160365   2.229   5.725   0.688  0.8952  0.0833  1.0645
12958TIP3    H260366   2.181   5.865   0.657  0.0379 -0.4721 -0.1807
12959TIP3   OH260367   5.262   5.975  12.531 -0.0312 -0.0690 -0.1698
12959TIP3    H160368   5.351   5.995  12.504  0.6750 -1.1168  1.2352
12959TIP3    H260369   5.272   5.921  12.609 -1.8971 -0.5787 -0.2255
12960TIP3   OH260370   4.220   2.064   4.303 -0.0536 -0.2420  0.2454
12960TIP3    H160371   4.163   2.106   4.367 -0.9960  0.5459 -1.0612
12960TIP3    H260372   4.179   1.979   4.286 -0.1217 -0.2114  0.2568
12961TIP3   OH260373   3.216   2.046   4.735 -0.4704  0.1254  0.3521
12961TIP3    H160374   3.159   2.073   4.662  0.2041 -4.4297 -2.2714
12961TIP3    H260375   3.156   2.017   4.803 -1.2042  0.3297 -0.1978
12962TIP3   OH260376   2.036   1.353  10.434  0.1212  0.0146 -0.2697
12962TIP3    H160377   2.085   1.272  10.426  1.8275  1.0740 -1.2728
12962TIP3    H260378   2.100   1.417  10.466 -1.6365  0.5912  2.3872
12963TIP3   OH260379   2.764   3.024   5.169 -0.3589 -0.6838 -0.4099
12963TIP3    H160380   2.691   3.029   5.230  2.0242 -3.2506  3.0494
12963TIP3    H260381   2.736   2.960   5.103 -2.1864  0.4573 -0.7946
12964TIP3   OH260382   3.459   2.987   3.486 -0.1112  0.2242 -0.4363
12964TIP3    H160383   3.435   2.929   3.414  0.2675 -0.6392  0.1158
12964TIP3    H260384   3.550   3.009   3.469  0.5052 -1.3281  0.6328
12965TIP3   OH260385   0.659   0.456   5.790 -0.1436 -0.1586  0.1900
12965TIP3    H160386   0.617   0.527   5.839 -2.0596 -0.5837 -0.7347
12965TIP3    H260387   0.693   0.499   5.711 -0.4767 -0.1065  0.0728
12966TIP3   OH260388   3.226   3.030   4.827 -0.1097  0.3176  0.2418
12966TIP3    H160389   3.201   3.085   4.753  0.8035 -1.1884 -1.2524
12966TIP3    H260390   3.160   3.050   4.895 -1.5652  1.0138 -1.3005
12967TIP3   OH260391   4.440   5.222   5.305 -0.6888  0.4271  0.1485
12967TIP3    H160392   4.409   5.254   5.390 -0.4229  2.2835 -0.4018
12967TIP3    H260393   4.503   5.153   5.326  0.7662  2.0888  1.5534
12968TIP3   OH260394   6.492   4.392  13.534 -0.4843  0.1761  0.0807
12968TIP3    H160395   6.479   4.456  13.463 -0.7205  0.8739  0.7393
12968TIP3    H260396   6.570   4.343  13.507 -0.3977  0.6274 -0.5222
12969TIP3   OH260397   5.057   4.496   5.398 -0.3233 -0.0273  0.5054
12969TIP3    H160398   5.069   4.497   5.493  2.5047  2.4124  0.2777
12969TIP3    H260399   5.140   4.462   5.364 -1.3088 -0.9155 -1.1025
12970TIP3   OH260400   5.009   6.420   2.622  0.5245  0.1199 -0.5933
12970TIP3    H160401   5.092   6.414   2.574  1.0509 -0.5117  0.3512
12970TIP3    H260402   4.960   6.489   2.577  1.5710  0.5241 -1.1571
12971TIP3   OH260403   3.635   5.367  11.729  0.0370 -0.6936  1.0379
12971TIP3    H160404   3.590   5.450  11.745  0.4006 -0.4059  0.5717
12971TIP3    H260405   3.632   5.322  11.813  0.6598  0.1864  1.5469
12972TIP3   OH260406   3.809   4.014   5.826 -0.7035  0.6824 -0.1100
12972TIP3    H160407   3.876   4.074   5.857 -0.5000  0.7206 -0.6072
12972TIP3    H260408   3.760   4.064   5.761  0.5216 -0.1771 -1.7839
12973TIP3   OH260409   2.243   4.130   1.427  0.2327  0.1983  0.5758
12973TIP3    H160410   2.206   4.200   1.480  0.0704 -0.5746  1.5027
12973TIP3    H260411   2.188   4.054   1.444  0.8947 -0.3775  0.2290
12974TIP3   OH260412   1.677   3.466  15.328  0.0726  0.0907  0.2169
12974TIP3    H160413   1.640   3.396  15.382  0.1056  0.6240  0.9498
12974TIP3    H260414   1.629   3.545  15.354  1.0181  0.6078  0.4587
12975TIP3   OH260415   4.530   0.077   3.080 -0.4084  0.3916  0.5459
12975TIP3    H160416   4.620   0.091   3.108 -0.7256  1.2631  1.1736
12975TIP3    H260417   4.502  -0.002   3.127  1.0545 -1.9677 -2.2082
12976TIP3   OH260418   2.507   1.627  15.409 -0.3639 -0.0281  0.2671
12976TIP3    H160419   2.460   1.660  15.485 -1.1402 -0.5433  0.0254
12976TIP3    H260420   2.525   1.705  15.356  1.8860  0.6358  1.8322
12977TIP3   OH260421   1.882   5.983   6.391  0.0349  0.0025 -0.0952
12977TIP3    H160422   1.925   5.926   6.327  0.4709  1.8139 -1.5032
12977TIP3    H260423   1.793   5.994   6.358 -0.6597 -1.3343  1.2093
12978TIP3   OH260424   1.803   1.964   5.407  0.1997 -0.4247 -0.5617
12978TIP3    H160425   1.716   1.925   5.415  0.1145 -0.1614 -0.1417
12978TIP3    H260426   1.807   1.999   5.318  0.4687 -1.8377 -1.1369
12979TIP3   OH260427   3.128   1.471  15.594  0.1732  0.5108 -0.3229
12979TIP3    H160428   3.049   1.513  15.626 -0.2795 -0.2799 -0.3852
12979TIP3    H260429   3.166   1.430  15.672 -2.0321 -3.2264 -0.9941
12980TIP3   OH260430   3.548   6.346   1.090 -0.5686  0.7351  0.0869
12980TIP3    H160431   3.629   6.383   1.054  0.8022 -1.1648  1.0456
12980TIP3    H260432   3.512   6.294   1.019  1.6755 -2.3022  0.9811
12981TIP3   OH260433   6.566   0.337   2.317  0.7654 -0.8776 -0.2072
12981TIP3    H160434   6.495   0.273   2.316  0.8465 -0.9712 -0.0600
12981TIP3    H260435   6.522   0.422   2.312  0.7014 -0.9643 -1.5711
12982TIP3   OH260436   4.628   1.541   1.101  0.2597  0.2831  0.1124
12982TIP3    H160437   4.691   1.605   1.134  1.8643 -0.5561 -1.1287
12982TIP3    H260438   4.656   1.458   1.140  0.4621 -0.2349 -1.0660
12983TIP3   OH260439   6.410   6.269  16.644  0.2275  0.8325 -0.1796
12983TIP3    H160440   6.349   6.195  16.640 -0.0418  1.0699 -0.4733
12983TIP3    H260441   6.466   6.250  16.720 -0.8546  1.1106  0.7159
12984TIP3   OH260442   3.505   5.783  13.616  0.3221 -0.4796 -0.3750
12984TIP3    H160443   3.450   5.736  13.679  1.2937 -0.8073  0.2539
12984TIP3    H260444   3.574   5.721  13.594  1.1192  0.3459 -0.2351
12985TIP3   OH260445   0.743   6.464   1.946  0.3788  0.4181  0.5862
12985TIP3    H160446   0.704   6.380   1.970 -3.2303  1.3685 -1.2448
12985TIP3    H260447   0.736   6.518   2.025 -0.2877 -0.0201  0.8255
12986TIP3   OH260448   4.766   0.247  13.958  0.6718  0.6121 -0.5388
12986TIP3    H160449   4.712   0.265  13.880  0.5031  0.4018 -0.4720
12986TIP3    H260450   4.737   0.160  13.987  0.4650  0.8570 -0.0144
12987TIP3   OH260451   5.905   2.711   4.557 -0.0796 -0.0266 -0.0178
12987TIP3    H160452   6.000   2.714   4.567 -0.0490 -0.4427 -0.1898
12987TIP3    H260453   5.874   2.788   4.605  0.4466  0.8821 -1.0726
12988TIP3   OH260454   5.749   2.309  12.243  0.4065 -0.3011 -0.1550
12988TIP3    H160455   5.736   2.400  12.268  1.2453 -0.0731 -0.5279
12988TIP3    H260456   5.697   2.298  12.163 -0.9091 -0.5736  0.6990
12989TIP3   OH260457   2.354   3.262   4.159  0.0972 -0.2260  0.5557
12989TIP3    H160458   2.403   3.194   4.114 -1.2750 -1.4074  0.7654
12989TIP3    H260459   2.339   3.227   4.247 -0.5472  0.3725  0.6940
12990TIP3   OH260460   2.321   3.117  15.408 -0.3083 -0.5022  0.3262
12990TIP3    H160461   2.276   3.164  15.478  0.3329 -1.2188  1.2561
12990TIP3    H260462   2.413   3.116  15.435 -0.4166 -3.0627  0.8619
12991TIP3   OH260463   4.282   6.507   1.696  0.1178 -0.6337 -0.1205
12991TIP3    H160464   4.334   6.530   1.773  0.3879 -0.7272 -0.2749
12991TIP3    H260465   4.343   6.512   1.623 -0.2000 -0.2904 -0.3677
12992TIP3   OH260466   0.113   6.553  13.373  0.3583  0.2872 -0.3383
12992TIP3    H160467   0.171   6.628  13.361  0.9606 -0.2791 -1.0653
12992TIP3    H260468   0.058   6.577  13.447  1.6762  0.7436  0.5274
12993TIP3   OH260469   0.498   3.266   2.073  0.5174  0.4205 -0.0317
12993TIP3    H160470   0.509   3.313   2.156 -0.3875  1.3110 -0.3942
12993TIP3    H260471   0.461   3.331   2.013  0.5295 -0.3889 -0.9519
12994TIP3   OH260472   1.906   1.373   6.017 -0.8801  0.9038  0.1174
12994TIP3    H160473   1.822   1.334   6.040 -0.3292 -0.7867 -0.6113
12994TIP3    H260474   1.971   1.322   6.065 -0.2420  2.2387  0.7421
12995TIP3   OH260475   0.417   3.042  14.462  0.7344 -0.3428  0.5706
12995TIP3    H160476   0.404   3.113  14.399  1.5678 -0.7055 -0.0249
12995TIP3    H260477   0.388   3.079  14.546  1.5665  0.8654  0.3541
12996TIP3   OH260478   0.294   2.002  10.673 -0.4102  0.0303 -0.1050
12996TIP3    H160479   0.351   2.030  10.602 -0.1153 -3.4313 -1.3841
12996TIP3    H260480   0.334   1.922  10.706 -2.2606 -0.1621  1.8703
12997TIP3   OH260481   5.143   1.560  13.150 -0.0098 -0.2168 -0.1421
12997TIP3    H160482   5.206   1.608  13.097  0.1972 -0.2013  0.1172
12997TIP3    H260483   5.196   1.509  13.211 -0.2377 -0.4902 -0.1669
12998TIP3   OH260484   4.284   0.895   3.802  0.7475 -0.1705 -0.0784
12998TIP3    H160485   4.323   0.845   3.873 -1.3714 -0.7006  0.7954
12998TIP3    H260486   4.190   0.891   3.819  0.3693  2.3246 -1.1885
12999TIP3   OH260487   3.611   5.938   1.688  0.0123  0.0716 -0.5179
12999TIP3    H160488   3.590   5.885   1.765 -2.6875 -0.1266 -1.3013
12999TIP3    H260489   3.651   5.877   1.626  0.8830 -0.0653  0.1515
13000TIP3   OH260490   1.086   0.451  12.606  0.2168 -0.0581  0.5641
13000TIP3    H160491   1.104   0.433  12.514 -1.0981 -0.1995  0.3147
13000TIP3    H260492   1.079   0.365  12.647 -2.1979 -0.1456  0.1498
13001TIP3   OH260493   3.872   0.584  13.758 -0.8311 -0.1246 -0.2146
13001TIP3    H160494   3.816   0.631  13.819 -0.1081 -0.3994  0.6692
13001TIP3    H260495   3.874   0.494  13.791  1.5634  0.2527  0.8512
13002TIP3   OH260496   6.274   0.103  10.267 -0.3325 -0.2907 -0.4931
13002TIP3    H160497   6.199   0.160  10.285 -0.4188  0.8073 -3.6319
13002TIP3    H260498   6.240   0.015  10.278 -0.8327  0.1492  2.2497
13003TIP3   OH260499   6.621   4.284   0.842  0.8043  0.3418 -0.1030
13003TIP3    H160500   6.614   4.228   0.919 -0.0726 -0.6815 -0.9046
13003TIP3    H260501   6.544   4.263   0.789  2.4257 -0.5685 -2.2788
13004TIP3   OH260502   2.753   3.084   3.562  0.1053 -0.2517 -0.1540
13004TIP3    H160503   2.706   3.149   3.510  0.1474 -0.1340 -0.0455
13004TIP3    H260504   2.845   3.111   3.558  0.0100  0.2203  0.6421
13005TIP3   OH260505   5.199   1.653   2.355 -0.1551  0.0153 -0.3639
13005TIP3    H160506   5.106   1.634   2.356  0.0188 -0.8563 -0.1509
13005TIP3    H260507   5.242   1.568   2.344  0.6306  0.3196  0.2025
13006TIP3   OH260508   4.092   3.794   3.457  0.6238  0.1633  0.3691
13006TIP3    H160509   4.054   3.864   3.404  1.6744  0.4500 -0.0354
13006TIP3    H260510   4.125   3.730   3.394 -0.1659 -0.6181  0.7329
13007TIP3   OH260511   1.246   2.905   4.576 -0.2983  0.2505 -0.1362
13007TIP3    H160512   1.316   2.865   4.627 -0.7678 -0.4587 -0.0453
13007TIP3    H260513   1.252   2.862   4.490 -0.7925 -0.0005 -0.0438
13008TIP3   OH260514   6.748   4.010  16.947  0.2141 -0.3658 -0.7133
13008TIP3    H160515   6.816   3.967  16.895  1.1676  0.8209 -0.5020
13008TIP3    H260516   6.796   4.070  17.004 -0.8957 -0.7774  0.7050
13009TIP3   OH260517   3.435   6.550   1.549  0.4250  0.1785 -0.3520
13009TIP3    H160518   3.508   6.508   1.505  0.7269 -0.0569  0.3496
13009TIP3    H260519   3.358   6.499   1.524  0.8075 -0.9427  0.6419
13010TIP3   OH260520   1.000   1.216   0.191  0.3814 -0.0806 -0.2480
13010TIP3    H160521   0.937   1.154   0.153 -1.4603  1.2059  0.5469
13010TIP3    H260522   0.991   1.203   0.285 -0.3672  1.6572 -0.0513
13011TIP3   OH260523   5.584   4.404   1.946  0.6491 -0.2840  0.3353
13011TIP3    H160524   5.593   4.488   1.992 -0.5447 -0.0709  0.2289
13011TIP3    H260525   5.501   4.412   1.898  1.5801 -0.7169 -1.4256
13012TIP3   OH260526   0.300   1.336   3.787  0.4374  0.4258 -0.0316
13012TIP3    H160527   0.269   1.328   3.697 -1.0866 -0.3330  0.5158
13012TIP3    H260528   0.374   1.396   3.782 -0.3796  1.3596 -1.6164
13013TIP3   OH260529   0.852   4.469  15.818 -0.3040 -0.3820  0.3421
13013TIP3    H160530   0.756   4.462  15.826 -0.4611  0.8814 -0.3289
13013TIP3    H260531   0.871   4.440  15.729 -0.1736  0.3743  0.1204
13014TIP3   OH260532   0.096   2.321   3.563  0.3552 -0.4121  0.6362
13014TIP3    H160533   0.071   2.406   3.526 -2.1296 -1.6653 -0.8526
13014TIP3    H260534   0.192   2.325   3.569  0.5825  1.4204 -2.2137
13015TIP3   OH260535   4.922   2.907  16.796 -0.2265 -0.6009 -0.1669
13015TIP3    H160536   4.951   2.828  16.843 -0.9477 -0.8228 -0.0684
13015TIP3    H260537   4.828   2.911  16.815 -0.3623 -0.2270 -0.9228
13016TIP3   OH260538   6.487   1.003   3.852  0.7597 -0.2787  0.0155
13016TIP3    H160539   6.560   0.985   3.912  0.8790 -0.5552 -0.2090
13016TIP3    H260540   6.526   0.997   3.765  0.5075 -0.2483 -0.0997
13017TIP3   OH260541   6.660   4.377  16.976  0.0362  0.3045  0.2228
13017TIP3    H160542   6.664   4.425  16.893  0.1071  2.4463  1.3968
13017TIP3    H260543   6.581   4.410  17.019  0.0756 -0.6821  1.0910
13018TIP3   OH260544   2.841   2.380   5.769  0.5824  0.9429  0.1596
13018TIP3    H160545   2.883   2.341   5.845  1.0498  0.7556 -0.1912
13018TIP3    H260546   2.822   2.306   5.712 -0.9761  0.9175  0.6594
13019TIP3   OH260547   0.940   2.081  11.320  0.0908 -0.4865 -0.2694
13019TIP3    H160548   0.895   2.069  11.236 -1.1800 -0.4875  0.3885
13019TIP3    H260549   0.879   2.045  11.385  1.0919 -0.5610  0.6498
13020TIP3   OH260550   2.962   6.749  11.098 -0.4138  0.0816  0.1567
13020TIP3    H160551   2.946   6.842  11.080  1.2035  0.5608  1.0156
13020TIP3    H260552   2.951   6.741  11.192 -3.1291 -1.2035 -0.1727
13021TIP3   OH260553   3.135   1.336  13.722 -0.3513 -0.0565  0.5647
13021TIP3    H160554   3.046   1.352  13.690 -0.3217 -1.4961 -0.2993
13021TIP3    H260555   3.132   1.248  13.759 -0.0465  1.0499  3.4992
13022TIP3   OH260556   3.542   2.640   1.430 -0.0465 -0.5637  0.3959
13022TIP3    H160557   3.472   2.615   1.490 -0.7065 -1.8747 -0.8485
13022TIP3    H260558   3.498   2.692   1.363  0.1912 -1.2445 -0.2997
13023TIP3   OH260559   6.656   3.480   6.267 -0.6580  0.2804  0.1588
13023TIP3    H160560   6.584   3.511   6.323  0.1678 -1.4346  2.2863
13023TIP3    H260561   6.649   3.385   6.269  0.8390  0.1206 -0.7972
13024TIP3   OH260562   3.678   5.883  14.767  0.2864 -0.0805  0.4761
13024TIP3    H160563   3.618   5.955  14.749  1.1376  1.1467  2.1805
13024TIP3    H260564   3.626   5.820  14.817 -0.3068 -0.3707 -0.5009
13025TIP3   OH260565   6.221   0.868  11.336  0.0296  0.0062 -0.5246
13025TIP3    H160566   6.289   0.932  11.357 -0.4396  0.2444  0.3024
13025TIP3    H260567   6.143   0.899  11.383 -0.3237 -0.9109 -0.4839
13026TIP3   OH260568   5.250   2.538   3.884  0.8161  0.2658  0.4860
13026TIP3    H160569   5.203   2.491   3.815  0.7595  0.5948  0.3023
13026TIP3    H260570   5.182   2.578   3.938  0.8854  1.5274 -0.3205
13027TIP3   OH260571   4.106   6.084   0.487 -0.3010 -0.2641 -0.4290
13027TIP3    H160572   4.028   6.075   0.542  0.8949  0.3925  1.4544
13027TIP3    H260573   4.145   5.997   0.487  2.1233  0.5282  3.7205
13028TIP3   OH260574   6.819   6.718  13.114 -0.1309 -0.1601 -0.4445
13028TIP3    H160575   6.793   6.801  13.076 -1.0411  0.2363  0.9394
13028TIP3    H260576   6.858   6.741  13.198 -2.0266 -1.1653  0.7914
13029TIP3   OH260577   2.942   5.292   3.256  0.1154 -0.2178  0.2820
13029TIP3    H160578   2.920   5.384   3.243  0.7501  0.1326  1.5087
13029TIP3    H260579   2.943   5.254   3.168 -2.9773  0.2522 -0.0769
13030TIP3   OH260580   5.831   4.396   0.354 -0.3140  0.0591  0.0645
13030TIP3    H160581   5.891   4.338   0.307  0.4120  0.1429  0.8766
13030TIP3    H260582   5.769   4.336   0.397  0.1476 -0.1020  0.5151
13031TIP3   OH260583   0.842   6.700   4.128 -0.3044  0.5350 -0.2806
13031TIP3    H160584   0.819   6.641   4.056 -0.8688  0.3128  0.0778
13031TIP3    H260585   0.787   6.777   4.114 -1.4447 -0.0867  0.7021
13032TIP3   OH260586   5.632   1.066   0.002  0.5507  0.6384  0.7121
13032TIP3    H160587   5.679   0.986   0.026  1.3814  0.4403 -1.3244
13032TIP3    H260588   5.651   1.127   0.073  1.2974 -0.4321  1.4759
13033TIP3   OH260589   4.786   2.306   4.176 -0.0097  0.5515 -0.0331
13033TIP3    H160590   4.881   2.294   4.178  0.4240  2.9159 -1.6835
13033TIP3    H260591   4.766   2.355   4.256 -0.3562 -2.3753  1.7896
13034TIP3   OH260592   6.565   4.136  11.030 -0.5755  0.0417 -0.1562
13034TIP3    H160593   6.614   4.067  10.984 -1.4167 -0.9290  0.3919
13034TIP3    H260594   6.497   4.162  10.968 -0.5803  0.0140 -0.1627
13035TIP3   OH260595   1.572   2.991  15.393 -0.1531 -0.3621 -0.2833
13035TIP3    H160596   1.625   2.918  15.426 -0.2604  0.2349  1.2815
13035TIP3    H260597   1.587   2.990  15.299 -0.9153 -3.0284 -0.4685
13036TIP3   OH260598   0.753   5.971  14.113  0.2290 -0.8565 -0.6713
13036TIP3    H160599   0.759   5.879  14.138 -2.3020 -0.8203  0.4286
13036TIP3    H260600   0.679   6.005  14.164 -0.3802  1.2030 -2.7348
13037TIP3   OH260601   5.552   0.248   4.693 -0.0755  0.3986  0.4625
13037TIP3    H160602   5.610   0.321   4.717  0.6276  0.0697 -0.1653
13037TIP3    H260603   5.605   0.170   4.708 -0.6583  0.0416  0.6751
13038TIP3   OH260604   1.057   3.413   4.463  0.1808  0.4137  0.7140
13038TIP3    H160605   1.111   3.421   4.542  1.0998  2.0173 -0.0308
13038TIP3    H260606   0.968   3.430   4.493  0.4090  0.2204  1.5302
13039TIP3   OH260607   0.211   0.221   5.294 -0.3009 -0.5600 -0.3245
13039TIP3    H160608   0.220   0.220   5.390 -0.0919  0.4218 -0.3179
13039TIP3    H260609   0.290   0.178   5.263 -0.8654 -1.8417 -0.0457
13040TIP3   OH260610   3.828   5.523  16.907  0.3229 -0.0807 -0.0733
13040TIP3    H160611   3.916   5.485  16.908  1.1969  1.8608  0.0794
13040TIP3    H260612   3.810   5.540  16.815  0.0479 -0.5475 -0.1123
13041TIP3   OH260613   2.002   5.413  12.643  0.3526  0.0946  0.1106
13041TIP3    H160614   2.068   5.467  12.599  0.6016 -0.7599 -0.6008
13041TIP3    H260615   2.047   5.331  12.662 -0.9574 -1.2616 -2.0991
13042TIP3   OH260616   5.278   6.633  10.461 -0.0163  0.4575 -0.0882
13042TIP3    H160617   5.189   6.660  10.437  0.2469  0.9438 -0.5536
13042TIP3    H260618   5.268   6.545  10.496 -0.6756  0.4831 -0.2000
13043TIP3   OH260619   6.511   6.750  16.398 -0.1572 -0.1150  0.6829
13043TIP3    H160620   6.517   6.668  16.446 -0.1268  1.0492  2.7572
13043TIP3    H260621   6.546   6.816  16.457 -1.7392  1.6705 -0.2397
13044TIP3   OH260622   2.746   5.996  16.169 -0.3841  0.2714  0.5066
13044TIP3    H160623   2.807   6.013  16.241  1.2833 -1.9063 -0.2882
13044TIP3    H260624   2.689   5.927  16.202 -1.5589  1.3156  0.7324
13045TIP3   OH260625   2.253   0.619  11.080  0.4175 -0.2733  0.7699
13045TIP3    H160626   2.164   0.586  11.069  0.4292 -0.5607  1.5004
13045TIP3    H260627   2.249   0.675  11.157  1.0503 -0.9870  1.3405
13046TIP3   OH260628   0.879   2.064  11.042 -0.4581  0.0134 -0.1389
13046TIP3    H160629   0.832   1.985  11.015  0.5606 -0.4448 -0.6289
13046TIP3    H260630   0.859   2.128  10.973 -1.5072  0.2897  0.4005
13047TIP3   OH260631   2.706   5.592   1.865 -0.5641 -0.1172  0.2463
13047TIP3    H160632   2.633   5.538   1.895 -0.9182  0.9025  1.2947
13047TIP3    H260633   2.739   5.634   1.944 -0.7437  1.7264 -0.5856
13048TIP3   OH260634   5.199   4.971  13.447  0.1139 -0.0381 -0.1423
13048TIP3    H160635   5.185   4.900  13.509  0.3867  1.1472  1.3418
13048TIP3    H260636   5.218   4.927  13.364 -0.6181 -1.6714  0.5084
13049TIP3   OH260637   2.450   3.362  14.066  0.7389 -0.3157  0.1530
13049TIP3    H160638   2.440   3.294  13.999  0.2017 -3.8728  3.5079
13049TIP3    H260639   2.374   3.351  14.123  1.6478  1.8779  1.9476
13050TIP3   OH260640   0.706   4.847  13.545 -0.2332  0.4128 -0.4481
13050TIP3    H160641   0.649   4.770  13.552 -1.8073  1.5754 -0.0558
13050TIP3    H260642   0.649   4.916  13.512  0.6889  1.8830  0.9006
13051TIP3   OH260643   4.038   3.189  17.026  0.1260  0.1105 -0.7803
13051TIP3    H160644   4.001   3.165  16.941 -0.7341  0.7405 -0.5907
13051TIP3    H260645   4.133   3.186  17.012 -0.0020  0.8487 -1.9477
13052TIP3   OH260646   4.179   0.297   3.088  0.1171  0.0840  0.1439
13052TIP3    H160647   4.236   0.319   3.161  1.1106  1.3111 -0.9340
13052TIP3    H260648   4.113   0.366   3.088  1.2904  1.2915 -1.2494
13053TIP3   OH260649   5.814   5.316  14.069  0.0784 -0.3339 -0.1485
13053TIP3    H160650   5.812   5.224  14.045  0.7925 -0.4179  0.1126
13053TIP3    H260651   5.742   5.326  14.133 -0.1187 -0.6624 -0.3189
13054TIP3   OH260652   1.225   3.321   3.790  0.3115 -0.1601 -0.5137
13054TIP3    H160653   1.266   3.356   3.869 -0.6732  0.8152 -0.4117
13054TIP3    H260654   1.132   3.334   3.804 -0.0628 -2.3597 -0.7332
13055TIP3   OH260655   4.810   5.196  15.552 -0.4887  0.3035 -0.2725
13055TIP3    H160656   4.850   5.112  15.575 -1.8841 -0.2192  0.3488
13055TIP3    H260657   4.731   5.201  15.606 -0.2740  2.1745 -0.0468
13056TIP3   OH260658   6.466   6.247   5.784  0.6617  0.6282  0.1613
13056TIP3    H160659   6.504   6.329   5.753  3.2473  0.7234  3.1416
13056TIP3    H260660   6.427   6.268   5.869  0.0254 -0.9448  0.2926
13057TIP3   OH260661   3.820   5.609   0.808 -0.4308  0.0023  0.4653
13057TIP3    H160662   3.737   5.657   0.816 -0.5048 -0.2635  1.3890
13057TIP3    H260663   3.799   5.520   0.835  0.4973  0.2967  2.2778
13058TIP3   OH260664   4.330   1.737   1.224 -0.7242  0.3079 -0.1129
13058TIP3    H160665   4.322   1.698   1.311  1.9815 -0.8247 -0.2587
13058TIP3    H260666   4.274   1.814   1.227 -0.7778  0.2656  2.6076
13059TIP3   OH260667   3.062   4.158  11.242 -0.3141  0.0331  0.1501
13059TIP3    H160668   3.119   4.108  11.184  0.0876  0.3649  0.2614
13059TIP3    H260669   2.976   4.153  11.201  0.1143  0.9038 -0.8735
13060TIP3   OH260670   2.055   2.697   0.638 -0.2813  0.0464  0.4256
13060TIP3    H160671   1.963   2.723   0.640 -0.2420  0.3226 -0.9104
13060TIP3    H260672   2.053   2.603   0.660 -1.0069 -0.2165 -0.6709
13061TIP3   OH260673   5.753   6.424  15.518  0.5434 -0.2355 -0.1374
13061TIP3    H160674   5.848   6.427  15.508  0.5427 -0.4910 -0.2340
13061TIP3    H260675   5.740   6.380  15.603  0.5370  1.1074  0.5787
13062TIP3   OH260676   6.802   5.774   0.980  0.3999 -0.3409  0.1310
13062TIP3    H160677   6.834   5.690   0.947 -0.2106 -0.5061 -0.0639
13062TIP3    H260678   6.707   5.762   0.987  0.3765  0.1339  0.6811
13063TIP3   OH260679   0.389   1.137  12.219 -0.0389 -0.0277 -0.2757
13063TIP3    H160680   0.482   1.115  12.214  0.5825  1.8403  1.8660
13063TIP3    H260681   0.345   1.053  12.203  2.0455 -1.4909  1.0231
13064TIP3   OH260682   2.295   2.184   4.020  0.3482  0.4842 -0.6485
13064TIP3    H160683   2.334   2.100   4.045  1.3694 -0.1260 -3.8640
13064TIP3    H260684   2.370   2.242   4.009 -0.2726  1.5241  0.4086
13065TIP3   OH260685   1.424   2.305  15.810 -0.3494 -0.2204 -0.4948
13065TIP3    H160686   1.413   2.210  15.800  1.2650 -0.5681  0.6152
13065TIP3    H260687   1.405   2.322  15.902 -0.9436  0.6023 -0.7601
13066TIP3   OH260688   4.155   4.910   3.885 -0.3028 -0.2688  0.1095
13066TIP3    H160689   4.140   4.876   3.973 -0.3878  0.1692  0.2679
13066TIP3    H260690   4.095   4.861   3.830  0.7232 -1.5346  0.0677
13067TIP3   OH260691   4.244   1.710   3.684  0.1967 -0.2437  0.1586
13067TIP3    H160692   4.162   1.705   3.635 -0.7448  1.7041  1.4368
13067TIP3    H260693   4.273   1.800   3.674  2.4924 -0.9884 -0.6421
13068TIP3   OH260694   5.620   5.694  14.078 -0.1350 -0.1421  0.0036
13068TIP3    H160695   5.609   5.611  14.031  0.2276 -0.1796 -0.0190
13068TIP3    H260696   5.710   5.721  14.057  0.1172 -0.2868  0.8807
13069TIP3   OH260697   4.390   0.410  15.017  0.7160 -0.6994 -0.1390
13069TIP3    H160698   4.439   0.339  14.976 -1.3346 -1.1032 -2.1621
13069TIP3    H260699   4.299   0.379  15.017 -0.1084  1.5000 -0.1987
13070TIP3   OH260700   3.258   0.593  11.430 -0.2134  0.3818  0.6009
13070TIP3    H160701   3.242   0.687  11.438  2.8999  1.1002 -0.4407
13070TIP3    H260702   3.312   0.584  11.352 -0.2698 -2.2801  0.7715
13071TIP3   OH260703   2.556   6.045   1.747  0.0334  0.1580  0.6181
13071TIP3    H160704   2.638   6.004   1.720 -1.2968 -1.2358 -1.6439
13071TIP3    H260705   2.541   6.012   1.836  1.3647 -0.4733  0.6291
13072TIP3   OH260706   6.663   5.059  12.975 -0.5342  0.0118  0.0308
13072TIP3    H160707   6.675   5.051  12.880 -0.3743 -1.8699  0.1753
13072TIP3    H260708   6.630   4.974  13.002  1.0871 -0.1014  1.9095
13073TIP3   OH260709   4.262   3.537  12.379  0.8816 -0.2865  0.2971
13073TIP3    H160710   4.349   3.505  12.355  0.4394 -1.4896  0.2039
13073TIP3    H260711   4.229   3.471  12.440 -0.0915 -0.0153  0.0712
13074TIP3   OH260712   5.586   0.084  10.734  0.5468 -0.4174  1.0092
13074TIP3    H160713   5.501   0.041  10.720  0.0346  0.8507  0.0026
13074TIP3    H260714   5.630   0.078  10.649 -0.0763  2.1091  0.4348
13075TIP3   OH260715   3.805   3.507   2.686 -0.3259 -0.3587  0.3045
13075TIP3    H160716   3.872   3.443   2.664  1.4238  1.3427  0.3824
13075TIP3    H260717   3.764   3.529   2.603  0.5456 -0.0323 -0.0512
13076TIP3   OH260718   2.848   1.594  15.357 -0.8045 -0.5587 -0.4694
13076TIP3    H160719   2.770   1.626  15.402  0.7313 -0.4903  2.3974
13076TIP3    H260720   2.825   1.506  15.327 -2.0103 -0.4964  0.2148
13077TIP3   OH260721   3.654   0.956   4.413  0.0119  0.2868  0.2454
13077TIP3    H160722   3.709   1.001   4.477 -1.9124 -1.3110  3.2627
13077TIP3    H260723   3.592   1.023   4.384  0.4134  0.8622  0.6834
13078TIP3   OH260724   1.021   3.034   4.697  0.0717  0.2382 -0.0104
13078TIP3    H160725   0.951   3.046   4.634 -0.5890  1.4440  0.9035
13078TIP3    H260726   1.079   2.969   4.657 -1.9972 -1.4626 -0.4071
13079TIP3   OH260727   2.001   6.290   5.197 -0.3214  0.0545  0.1677
13079TIP3    H160728   2.041   6.369   5.234  0.6344 -0.3483  0.0080
13079TIP3    H260729   1.941   6.323   5.130  0.6224  0.6166 -0.4207
13080TIP3   OH260730   2.490   6.328  13.348  0.3710  0.7991  0.8910
13080TIP3    H160731   2.420   6.384  13.316  1.8610  1.9466 -0.5150
13080TIP3    H260732   2.497   6.349  13.441 -1.5286  0.1783  1.2264
13081TIP3   OH260733   4.572   2.301   5.838  0.3747  0.2703 -0.0844
13081TIP3    H160734   4.505   2.357   5.800 -1.0014 -0.6476  0.8888
13081TIP3    H260735   4.553   2.301   5.932  1.5928 -0.2204  0.1865
13082TIP3   OH260736   2.043   6.068  15.587  0.2443  0.4525  0.0279
13082TIP3    H160737   2.110   6.102  15.645 -1.2514  2.5431  0.6396
13082TIP3    H260738   2.001   5.998  15.638  0.6413  0.4938  0.4169
13083TIP3   OH260739   4.541   2.572   1.605 -0.3527  0.0503  0.4034
13083TIP3    H160740   4.593   2.589   1.527  0.5646 -0.9688  0.7721
13083TIP3    H260741   4.477   2.644   1.607 -0.9255 -0.3296 -1.7115
13084TIP3   OH260742   1.841   3.129   5.830  0.8303 -0.1616 -0.2110
13084TIP3    H160743   1.844   3.215   5.874  0.2357  0.4901 -1.4032
13084TIP3    H260744   1.895   3.073   5.885  1.4077  1.0282  0.4870
13085TIP3   OH260745   5.096   6.423  16.064  0.0065  0.3223 -0.3193
13085TIP3    H160746   5.037   6.479  16.114  0.0131  0.4401 -0.4428
13085TIP3    H260747   5.164   6.482  16.032  0.2576  0.1651 -0.0757
13086TIP3   OH260748   4.027   4.607   5.159 -0.5635  0.0718  0.0286
13086TIP3    H160749   3.979   4.552   5.097  0.9706 -1.4674  0.1266
13086TIP3    H260750   4.058   4.681   5.106  1.1614 -1.4713 -1.2328
13087TIP3   OH260751   2.936   3.115   5.470 -0.3661  0.0907 -0.2229
13087TIP3    H160752   3.025   3.129   5.502 -0.4430 -0.4567  0.2378
13087TIP3    H260753   2.924   3.021   5.473 -0.9013  0.1493 -0.4628
13088TIP3   OH260754   3.869   0.156   0.637  0.2486  0.3812  0.0920
13088TIP3    H160755   3.844   0.168   0.729 -3.1019  0.7055 -0.7347
13088TIP3    H260756   3.860   0.062   0.621  0.8731  0.3183  0.0797
13089TIP3   OH260757   4.064   0.989   1.417 -0.1079  0.3112 -0.1086
13089TIP3    H160758   4.000   0.921   1.437 -0.6507  0.6766 -0.5737
13089TIP3    H260759   4.096   1.017   1.503  0.5733 -0.9332  0.0686
13090TIP3   OH260760   4.894   2.729  14.462 -0.9504 -0.3478 -0.5337
13090TIP3    H160761   4.947   2.659  14.501 -0.7387 -0.4674 -1.0347
13090TIP3    H260762   4.805   2.693  14.460 -0.5159 -1.4156 -2.6668
13091TIP3   OH260763   0.908   5.877   3.723 -0.0231  0.1805 -0.2787
13091TIP3    H160764   0.939   5.819   3.654 -1.5121  0.4881 -1.2479
13091TIP3    H260765   0.986   5.928   3.749  1.7562 -3.1802  1.6973
13092TIP3   OH260766   0.918   1.520  17.141  0.1791 -0.7952  0.0046
13092TIP3    H160767   0.972   1.516  17.220  0.9824 -1.4837 -0.5698
13092TIP3    H260768   0.834   1.483  17.168  0.1480 -0.2018  0.7623
13093TIP3   OH260769   4.315   6.193   2.404 -0.0031  0.3877  0.5345
13093TIP3    H160770   4.298   6.285   2.423 -0.6473  0.7106 -1.3830
13093TIP3    H260771   4.238   6.163   2.356  0.0746 -1.2475  1.3342
13094TIP3   OH260772   4.070   6.353  11.225  0.2026 -0.2376  0.0986
13094TIP3    H160773   4.088   6.260  11.209  1.1742  0.0727 -0.7797
13094TIP3    H260774   4.018   6.380  11.150 -0.2314 -0.1148  0.4435
13095TIP3   OH260775   4.442   2.474  12.391  0.4660 -0.5731  0.6841
13095TIP3    H160776   4.508   2.465  12.460 -0.0889 -1.6009  1.0955
13095TIP3    H260777   4.388   2.548  12.420  1.1872  0.0382  0.5295
13096TIP3   OH260778   5.439   4.198   5.085  0.1745  0.0884  0.8838
13096TIP3    H160779   5.453   4.180   4.992  0.8965 -0.8193  1.1583
13096TIP3    H260780   5.446   4.113   5.127 -1.1206  0.3454  1.6702
13097TIP3   OH260781   6.483   5.316  11.642  0.3516  0.7685 -0.0311
13097TIP3    H160782   6.427   5.391  11.661  0.9488  1.2381 -0.0900
13097TIP3    H260783   6.490   5.315  11.547  1.9525  1.8625  0.0379
13098TIP3   OH260784   0.026   6.777   1.752  0.3302 -0.2100 -0.1886
13098TIP3    H160785   0.008   6.837   1.824 -1.0216  1.0994 -1.5561
13098TIP3    H260786  -0.040   6.708   1.762  1.6459 -1.3441  1.1602
13099TIP3   OH260787   1.013   5.499   1.768 -0.3913 -0.1573  0.2785
13099TIP3    H160788   0.957   5.427   1.799  0.1910 -1.0922 -0.7673
13099TIP3    H260789   1.095   5.457   1.742  0.6635  1.1369  1.3475
13100TIP3   OH260790   0.261   2.418  16.302 -0.0282  0.6714 -0.9062
13100TIP3    H160791   0.331   2.472  16.265  0.2241  1.7273  0.9644
13100TIP3    H260792   0.252   2.449  16.392 -1.1938 -1.1562 -0.3304
13101TIP3   OH260793   3.105   3.762   1.419  0.0673  0.2170  0.1326
13101TIP3    H160794   3.042   3.795   1.484  1.4260  3.1463  0.1135
13101TIP3    H260795   3.099   3.667   1.427 -0.9090  0.4164  3.5164
13102TIP3   OH260796   2.036   6.343  16.132 -0.3108 -0.0802  0.2378
13102TIP3    H160797   2.123   6.369  16.104 -1.5628  1.5021 -2.7037
13102TIP3    H260798   2.022   6.257  16.093 -1.0171  0.9151 -1.8748
13103TIP3   OH260799   1.325   0.843   1.069  0.2140 -0.3057 -0.3878
13103TIP3    H160800   1.301   0.848   1.162  1.5365  2.5186 -0.0924
13103TIP3    H260801   1.387   0.770   1.065  0.1915 -0.4370  0.9483
13104TIP3   OH260802   2.499   1.791   2.061 -0.4461  0.5713  0.1537
13104TIP3    H160803   2.475   1.770   2.151 -1.5359  1.7846  0.1762
13104TIP3    H260804   2.466   1.716   2.010 -1.1371  0.5532  0.6094
13105TIP3   OH260805   2.186   4.530  13.811 -0.0632 -0.1063 -0.1798
13105TIP3    H160806   2.230   4.445  13.810 -1.0259 -0.7061  1.8053
13105TIP3    H260807   2.148   4.536  13.899 -2.6945  0.9941 -1.2862
13106TIP3   OH260808   1.216   5.266   5.196 -0.7026 -0.1994  0.1254
13106TIP3    H160809   1.186   5.351   5.166  0.6329  0.3554  0.2915
13106TIP3    H260810   1.183   5.204   5.130  0.6907  0.7911 -1.5841
13107TIP3   OH260811   6.823   5.667  13.624 -0.6253  0.0247  0.2362
13107TIP3    H160812   6.748   5.677  13.683 -0.5777  0.5601  0.2150
13107TIP3    H260813   6.812   5.580  13.587 -1.0582 -0.0338  0.4872
13108TIP3   OH260814   3.863   1.057  10.869 -0.9590 -0.0396  0.3106
13108TIP3    H160815   3.894   1.120  10.804 -1.4194 -1.3952 -1.2794
13108TIP3    H260816   3.773   1.083  10.887 -1.6182 -0.9828 -1.3811
13109TIP3   OH260817   6.795   4.145  16.186  0.4384 -0.4774  0.2827
13109TIP3    H160818   6.794   4.167  16.279 -1.5991 -1.9767  0.6865
13109TIP3    H260819   6.852   4.068  16.181  2.2703  0.8330 -0.1059
13110TIP3   OH260820   6.614   6.466   0.170 -0.0846 -0.2628  0.6646
13110TIP3    H160821   6.676   6.405   0.128  2.4998  1.3309  1.9157
13110TIP3    H260822   6.571   6.510   0.097  0.8539 -0.8549 -0.2820
13111TIP3   OH260823   4.195   3.803  12.838  0.6029 -0.3714 -0.0930
13111TIP3    H160824   4.221   3.883  12.793  0.5931 -0.9196 -1.0888
13111TIP3    H260825   4.255   3.798  12.913 -0.4384  1.4022  0.9389
13112TIP3   OH260826   4.747   3.295   0.538 -0.0281 -0.0986 -0.2167
13112TIP3    H160827   4.818   3.359   0.529 -0.8031  0.8221  0.1093
13112TIP3    H260828   4.668   3.348   0.545 -0.7921 -1.1169 -0.8710
13113TIP3   OH260829   4.555   6.400  13.553  0.3681 -0.1938 -0.3864
13113TIP3    H160830   4.583   6.338  13.486 -1.7914 -0.8157 -0.7815
13113TIP3    H260831   4.483   6.448  13.512 -1.6066 -1.1805  1.7161
13114TIP3   OH260832   3.602   2.452  11.879  0.0071  0.3017 -0.9677
13114TIP3    H160833   3.651   2.405  11.947  0.9438  1.1426 -1.0448
13114TIP3    H260834   3.655   2.440  11.799  0.4756  1.8017 -0.9070
13115TIP3   OH260835   4.181   0.987   1.710 -0.0588  0.1893 -0.4828
13115TIP3    H160836   4.199   0.893   1.721  1.7498  0.5982  0.3007
13115TIP3    H260837   4.255   1.031   1.751 -1.0432  1.9892 -0.5367
13116TIP3   OH260838   5.526   1.656  15.541  0.1084 -0.2657  0.5595
13116TIP3    H160839   5.506   1.562  15.539  0.2330 -0.2865  0.2204
13116TIP3    H260840   5.622   1.660  15.543  0.1506 -0.1418 -0.5852
13117TIP3   OH260841   0.230   0.287  13.095  0.0062 -0.3134 -0.3894
13117TIP3    H160842   0.217   0.361  13.036 -0.2182 -0.7116 -0.8417
13117TIP3    H260843   0.301   0.315  13.153 -1.1868  0.9095  0.5416
13118TIP3   OH260844   2.536   3.992   3.461  0.2614  0.0614 -0.2867
13118TIP3    H160845   2.462   3.986   3.521 -1.2281  2.0251 -1.7887
13118TIP3    H260846   2.506   3.951   3.380  1.5432 -0.8323 -0.3490
13119TIP3   OH260847   2.516   1.237  15.558  0.4981  0.5083 -0.0716
13119TIP3    H160848   2.550   1.245  15.469 -0.0859 -0.8725 -0.4480
13119TIP3    H260849   2.499   1.144  15.569  1.4711  0.5168  1.8517
13120TIP3   OH260850   5.846   5.031   1.785 -0.2241  0.2487 -0.2659
13120TIP3    H160851   5.838   5.045   1.880 -1.8375 -0.1639 -0.3077
13120TIP3    H260852   5.806   4.945   1.771  0.2369  0.1891 -1.2996
13121TIP3   OH260853   6.199   6.505  15.776  0.7116 -0.3686  0.4150
13121TIP3    H160854   6.200   6.580  15.835  0.6671 -0.6525  0.7840
13121TIP3    H260855   6.228   6.432  15.831 -0.6965 -0.9153  0.4754
13122TIP3   OH260856   5.296   5.604   2.142 -0.2523  0.2905  0.1735
13122TIP3    H160857   5.252   5.545   2.081  0.5430  0.4865 -0.6204
13122TIP3    H260858   5.298   5.688   2.097  0.9747  0.2710  0.1448
13123TIP3   OH260859   2.916   5.508   2.692  0.3591  0.3761  0.2289
13123TIP3    H160860   2.914   5.545   2.780  0.5064  1.7894 -0.3373
13123TIP3    H260861   2.998   5.541   2.654  1.7547 -2.4978  0.4904
13124TIP3   OH260862   1.249   1.598   3.827 -0.4846 -0.8832 -0.5155
13124TIP3    H160863   1.296   1.682   3.826  3.4572 -2.8134  1.1318
13124TIP3    H260864   1.231   1.582   3.920 -0.3952 -2.2169 -0.7083
13125TIP3   OH260865   3.272   1.970  12.772  0.1094 -0.3365  0.4344
13125TIP3    H160866   3.342   2.033  12.789 -1.1474  1.0953  0.5478
13125TIP3    H260867   3.313   1.885  12.782  1.5849  0.4575  1.5187
13126TIP3   OH260868   1.529   6.435   3.170 -0.1246 -0.3723  0.0811
13126TIP3    H160869   1.502   6.364   3.113 -0.4071 -0.6103  0.5078
13126TIP3    H260870   1.617   6.411   3.199 -0.4592 -0.8512  0.7092
13127TIP3   OH260871   5.055   4.063   1.196  0.2235 -0.0073 -0.3224
13127TIP3    H160872   4.967   4.033   1.173 -0.7826  1.7561  0.9380
13127TIP3    H260873   5.110   4.035   1.123 -1.1908 -1.9352 -0.7279
13128TIP3   OH260874   3.513   4.981  12.502 -0.0074  0.2707  0.4116
13128TIP3    H160875   3.602   4.950  12.485  0.0998  0.4598  0.6181
13128TIP3    H260876   3.479   5.005  12.416 -1.2110 -3.2640 -0.2908
13129TIP3   OH260877   1.800   4.176  12.353  0.2808 -0.3808 -0.1607
13129TIP3    H160878   1.741   4.187  12.279 -2.1165  0.6574  1.7790
13129TIP3    H260879   1.768   4.099  12.399 -0.1509  0.6481  1.3599
13130TIP3   OH260880   6.020   4.298   6.072 -0.4518 -0.6321 -0.1251
13130TIP3    H160881   6.113   4.272   6.070 -0.6639 -1.4441 -0.0628
13130TIP3    H260882   6.006   4.328   6.161 -0.2657 -0.5778 -0.1124
13131TIP3   OH260883   2.880   6.186   2.266  0.6196  0.0344  0.1062
13131TIP3    H160884   2.927   6.169   2.348  2.7715  1.0007 -0.8257
13131TIP3    H260885   2.796   6.221   2.293  1.5733  1.0989  1.9332
13132TIP3   OH260886   4.393   0.843  17.143 -0.1202  0.2431  0.6525
13132TIP3    H160887   4.473   0.823  17.192  0.0473 -0.7726 -0.0186
13132TIP3    H260888   4.324   0.795  17.189 -0.0892 -0.1031  0.3378
13133TIP3   OH260889   3.842   4.691  16.812 -0.5372 -0.0138  0.1828
13133TIP3    H160890   3.769   4.730  16.860 -0.4462 -0.1635  0.4451
13133TIP3    H260891   3.872   4.619  16.867  2.1926  2.2418  1.9220
13134TIP3   OH260892   0.096   6.741   2.170 -0.7165  0.1095 -0.2260
13134TIP3    H160893   0.149   6.720   2.247 -1.4067  0.1473  0.2737
13134TIP3    H260894   0.006   6.722   2.197 -0.9476 -0.1080 -1.1074
13135TIP3   OH260895   1.987   4.832   0.325 -0.1526 -0.5353  0.6508
13135TIP3    H160896   1.909   4.861   0.373  0.3506  0.1905  1.0528
13135TIP3    H260897   2.020   4.758   0.377 -0.5591 -0.8371  0.4863
13136TIP3   OH260898   0.159   5.731  14.157  0.1921 -0.2078  0.7563
13136TIP3    H160899   0.206   5.760  14.235 -0.2971  0.3692  0.8431
13136TIP3    H260900   0.197   5.646  14.136  1.7218  0.5083  0.4604
13137TIP3   OH260901   4.068   0.580   1.361  0.5607  0.1259 -0.1815
13137TIP3    H160902   3.983   0.623   1.351  0.8190  0.8052  0.4300
13137TIP3    H260903   4.049   0.499   1.408  0.1859  0.0039 -0.5336
13138TIP3   OH260904   3.820   6.636  12.432  0.2714  0.0095 -0.2608
13138TIP3    H160905   3.833   6.543  12.413  1.4730 -0.1026  0.9592
13138TIP3    H260906   3.732   6.655  12.398  0.7698 -1.0525 -2.3475
13139TIP3   OH260907   3.896   2.145   5.559  0.1565  0.0909  0.1059
13139TIP3    H160908   3.834   2.210   5.526  1.4433  0.8970 -0.8035
13139TIP3    H260909   3.854   2.061   5.539 -0.7750  0.6162 -0.2193
13140TIP3   OH260910   2.886   2.894   5.878  0.1276 -0.0920 -0.0734
13140TIP3    H160911   2.804   2.943   5.864  0.5400  0.9739  1.1068
13140TIP3    H260912   2.913   2.916   5.967  1.1687 -1.2600 -0.0700
13141TIP3   OH260913   5.719   0.897  11.613 -0.1013 -0.0956  0.4936
13141TIP3    H160914   5.726   0.905  11.517  0.0584 -0.1904  0.4980
13141TIP3    H260915   5.718   0.988  11.644  1.0804 -0.0607  0.4912
13142TIP3   OH260916   2.898   0.544  12.308 -0.2943 -0.2261 -0.1303
13142TIP3    H160917   2.835   0.488  12.263  0.4482 -1.5885  0.4891
13142TIP3    H260918   2.967   0.485  12.336  0.3678  0.9639  0.8163
13143TIP3   OH260919   2.341   0.998  15.433  0.0253  0.2829  0.1473
13143TIP3    H160920   2.371   0.975  15.345 -1.6830 -0.2658 -0.3257
13143TIP3    H260921   2.259   1.047  15.419 -1.7369 -2.0752  1.4412
13144TIP3   OH260922   5.176   6.638   3.244  0.2446 -0.5596  0.4715
13144TIP3    H160923   5.240   6.631   3.315 -1.2106  0.2231  1.9219
13144TIP3    H260924   5.126   6.557   3.249  0.2752 -0.5965  0.1934
13145TIP3   OH260925   2.489   4.939   1.466  0.4946  0.1611  0.1500
13145TIP3    H160926   2.398   4.911   1.455  0.9478 -1.3494  0.0306
13145TIP3    H260927   2.483   5.028   1.499 -1.0236  0.3070 -0.4390
13146TIP3   OH260928   5.127   0.036   6.159  0.0469 -0.5095  0.2445
13146TIP3    H160929   5.036   0.006   6.164 -0.5552  1.0130 -0.9273
13146TIP3    H260930   5.122   0.131   6.169  1.5755 -0.4428  0.6317
13147TIP3   OH260931   3.163   6.523   1.965  0.5966  0.4759 -0.0775
13147TIP3    H160932   3.083   6.572   1.981  0.7523  0.8317 -0.3812
13147TIP3    H260933   3.177   6.474   2.045  0.4955  1.0076  0.2704
13148TIP3   OH260934   5.490   3.810   1.270 -0.2126 -0.5100 -0.0577
13148TIP3    H160935   5.406   3.782   1.305 -0.7361  0.7194 -0.2953
13148TIP3    H260936   5.471   3.836   1.180  0.5122 -0.6565 -0.2584
13149TIP3   OH260937   3.439   4.114  10.740  0.4246  0.2662 -0.3273
13149TIP3    H160938   3.409   4.112  10.649  1.4320 -1.2574 -0.6587
13149TIP3    H260939   3.533   4.094  10.735  0.3949 -0.3509  1.0826
13150TIP3   OH260940   6.515   4.189   2.366  0.0749  1.1675 -0.6707
13150TIP3    H160941   6.598   4.199   2.319  0.9886 -0.0036  0.6014
13150TIP3    H260942   6.483   4.103   2.339  0.3342  0.7244  0.3515
13151TIP3   OH260943   1.686   6.231   2.896 -0.4030  0.0641  0.2261
13151TIP3    H160944   1.642   6.287   2.832  1.7668  0.9839 -0.5651
13151TIP3    H260945   1.691   6.146   2.854 -0.5414  0.2108 -0.0964
13152TIP3   OH260946   1.683   5.829   4.760 -0.2372 -0.1044 -0.4021
13152TIP3    H160947   1.628   5.776   4.817  0.7615 -0.1896  0.5218
13152TIP3    H260948   1.654   5.919   4.775 -0.7083 -0.2213 -0.5918
13153TIP3   OH260949   0.137   1.044  14.485  0.3042 -0.0226  0.4772
13153TIP3    H160950   0.087   0.985  14.429  0.8883 -0.0193 -0.0594
13153TIP3    H260951   0.178   0.987  14.550  0.8654 -0.2255 -0.0390
13154TIP3   OH260952   6.723   0.427   4.016 -0.6264 -0.2475  0.6313
13154TIP3    H160953   6.710   0.375   4.095  0.2464  0.5401  1.3115
13154TIP3    H260954   6.776   0.371   3.959 -0.2439 -0.3664  1.0948
13155TIP3   OH260955   5.389   4.050   2.029  0.4248 -0.0098 -0.7155
13155TIP3    H160956   5.335   4.103   1.971  1.5045  0.5278 -1.2540
13155TIP3    H260957   5.378   3.961   1.996 -0.4493  0.0315 -0.5575
13156TIP3   OH260958   6.630   3.366  15.240  0.1560  0.2546  0.0199
13156TIP3    H160959   6.573   3.306  15.190 -1.4655  0.4919  1.4995
13156TIP3    H260960   6.662   3.427  15.174 -0.0836 -0.7925 -1.1251
13157TIP3   OH260961   3.448   4.822  12.754  0.0805  0.2473 -0.5348
13157TIP3    H160962   3.506   4.750  12.727 -1.0429 -0.3393 -1.4690
13157TIP3    H260963   3.427   4.868  12.673 -1.3703 -0.0286 -0.3502
13158TIP3   OH260964   6.742   0.979  13.084 -0.3771  0.4479  0.6970
13158TIP3    H160965   6.661   1.026  13.104 -0.9752 -0.5076  0.5741
13158TIP3    H260966   6.796   0.992  13.162 -0.9478  0.4620  1.0983
13159TIP3   OH260967   4.746   5.853  15.061  0.7338  0.1160 -0.2956
13159TIP3    H160968   4.743   5.766  15.021  2.0463  0.7670 -1.9283
13159TIP3    H260969   4.689   5.846  15.138  0.7275 -2.1330 -0.4437
13160TIP3   OH260970   0.432   4.688   5.597 -0.3371  0.1435  0.2370
13160TIP3    H160971   0.404   4.779   5.593  1.0742  0.5316 -1.7020
13160TIP3    H260972   0.464   4.677   5.687 -1.7007  1.1453  0.8878
13161TIP3   OH260973   6.556   3.934   5.888  0.6613  0.1515 -0.3553
13161TIP3    H160974   6.611   3.982   5.826  1.3594  0.4432  0.4742
13161TIP3    H260975   6.547   3.847   5.849 -0.0343  0.7135 -1.5300
13162TIP3   OH260976   6.724   0.273  14.025 -0.3902  0.1555  0.3288
13162TIP3    H160977   6.637   0.232  14.028 -0.2418 -0.1660  0.2486
13162TIP3    H260978   6.714   0.352  14.078 -1.0176  0.6817 -0.5487
13163TIP3   OH260979   4.717   1.618  12.668 -0.2689 -0.6747  0.0418
13163TIP3    H160980   4.789   1.571  12.711 -0.1560  2.0817  3.2706
13163TIP3    H260981   4.638   1.575  12.699 -0.1095 -0.0881  1.3286
13164TIP3   OH260982   0.974   6.133  11.397 -0.6204 -0.3288  0.7855
13164TIP3    H160983   0.977   6.172  11.484  0.1520 -1.4324  1.2713
13164TIP3    H260984   1.022   6.195  11.342 -1.4329  0.5604  1.0454
13165TIP3   OH260985   1.602   5.317  11.334 -0.5294  0.1418 -0.1863
13165TIP3    H160986   1.564   5.380  11.395  0.0975  0.1003  0.2513
13165TIP3    H260987   1.576   5.232  11.368 -1.5166  0.1497 -0.8693
13166TIP3   OH260988   0.669   6.233   3.074  0.1104  0.3921  0.8637
13166TIP3    H160989   0.592   6.180   3.056  1.9458 -1.6370 -1.7899
13166TIP3    H260990   0.697   6.204   3.162 -1.5700  0.5138  1.4751
13167TIP3   OH260991   2.815   2.559   3.001  0.6656  0.2624  0.3922
13167TIP3    H160992   2.899   2.560   3.045  0.9095  1.2527 -0.0584
13167TIP3    H260993   2.825   2.622   2.929 -0.5845  0.7025  0.5801
13168TIP3   OH260994   3.349   3.729  13.310 -0.4691  0.3136 -0.0188
13168TIP3    H160995   3.329   3.664  13.242 -1.5196  1.5949 -0.9987
13168TIP3    H260996   3.351   3.678  13.392  0.4531 -1.2039 -0.9296
13169TIP3   OH260997   3.268   1.694   5.498 -0.0442 -0.3321 -0.7437
13169TIP3    H160998   3.318   1.612   5.492  0.7969  0.1421 -0.4677
13169TIP3    H260999   3.332   1.758   5.528 -0.9384  0.2132  0.0601
13170TIP3   OH261000   5.147   6.347  14.729 -0.0276 -0.0090 -0.4317
13170TIP3    H161001   5.189   6.261  14.718  0.4893  0.1552  0.1866
13170TIP3    H261002   5.142   6.383  14.641 -1.5087 -1.2536 -0.8944
13171TIP3   OH261003   4.821   6.624  12.606  0.2032 -0.1123  0.2275
13171TIP3    H161004   4.813   6.618  12.511 -0.4950  1.0385  0.2010
13171TIP3    H261005   4.915   6.618  12.622  0.4054  0.6522 -0.6102
13172TIP3   OH261006   3.859   3.437  13.566  0.4203  0.2255  0.3344
13172TIP3    H161007   3.885   3.462  13.477  1.9160 -0.8894  0.4202
13172TIP3    H261008   3.872   3.517  13.618  0.3936  0.6366 -0.2752
13173TIP3   OH261009   6.389   4.560   0.717 -0.0260  0.0990 -0.0176
13173TIP3    H161010   6.360   4.473   0.744 -1.4170  0.7253  0.6326
13173TIP3    H261011   6.440   4.545   0.637  0.7323 -1.4026  0.7089
13174TIP3   OH261012   5.998   4.121  14.926  0.4790  0.6660  0.3348
13174TIP3    H161013   5.937   4.175  14.877  1.7769  1.0866 -0.8929
13174TIP3    H261014   6.055   4.184  14.971 -1.0172  0.3152  2.9465
13175TIP3   OH261015   4.413   1.513  14.887  0.1928 -0.0196  0.1817
13175TIP3    H161016   4.321   1.519  14.913  0.2137 -2.5232  1.0896
13175TIP3    H261017   4.414   1.542  14.796 -1.7089 -0.9274 -0.1823
13176TIP3   OH261018   4.202   5.981  14.797 -0.2860 -0.7782  0.0342
13176TIP3    H161019   4.190   5.915  14.865 -2.4567 -1.4225 -0.8900
13176TIP3    H261020   4.285   6.024  14.819  0.0538 -2.2903  1.9252
13177TIP3   OH261021   5.797   3.653  13.205 -0.3120  0.2572 -0.2023
13177TIP3    H161022   5.776   3.572  13.253 -0.0472 -0.1778 -0.8061
13177TIP3    H261023   5.881   3.634  13.164  0.0195  1.0473  0.0970
13178TIP3   OH261024   4.418   5.983  11.103 -0.5698  0.0429  0.0357
13178TIP3    H161025   4.414   5.931  11.183 -1.0918  0.1570  0.0862
13178TIP3    H261026   4.477   5.934  11.045  1.6177  1.0471  1.2757
13179TIP3   OH261027   5.018   1.662   1.060 -0.5690 -0.4219 -0.6276
13179TIP3    H161028   5.009   1.641   0.967 -2.1867  1.2175 -0.9004
13179TIP3    H261029   5.059   1.749   1.061  0.4975 -0.9141  0.2469
13180TIP3   OH261030   2.925   4.383  13.332  0.2287 -0.4101 -0.4156
13180TIP3    H161031   2.898   4.343  13.249 -0.2572  0.4551 -0.6887
13180TIP3    H261032   3.008   4.426  13.312  0.5186 -0.8767 -0.2384
13181TIP3   OH261033   5.595   1.906  11.861  0.7752  0.0294  0.3180
13181TIP3    H161034   5.508   1.913  11.900  0.3181 -1.4781 -0.3554
13181TIP3    H261035   5.655   1.939  11.928 -0.3707  1.9727  0.4341
13182TIP3   OH261036   4.971   1.904   3.379  0.1788 -0.3517  0.6742
13182TIP3    H161037   4.914   1.897   3.302 -0.3280 -1.1361  1.1081
13182TIP3    H261038   4.915   1.883   3.453  0.5350  0.9079  1.3305
13183TIP3   OH261039   1.511   6.016   3.344 -0.1958 -0.4119 -0.0511
13183TIP3    H161040   1.544   6.038   3.257  1.6332 -2.3303  0.0982
13183TIP3    H261041   1.455   5.940   3.330 -0.0343 -0.6189  0.4299
13184TIP3   OH261042   2.477   5.520  12.116 -0.4877  0.1227 -0.6696
13184TIP3    H161043   2.519   5.440  12.085  1.9593  1.2921 -0.6536
13184TIP3    H261044   2.394   5.491  12.154  0.1974 -2.3541 -0.8836
13185TIP3   OH261045   3.213   6.123   4.643 -0.0555 -0.4730  0.0218
13185TIP3    H161046   3.140   6.163   4.596  1.4031  0.3105 -1.7253
13185TIP3    H261047   3.198   6.029   4.637 -2.2802 -0.3363  2.0670
13186TIP3   OH261048   1.498   1.775  11.622  0.0079 -0.2152  0.2553
13186TIP3    H161049   1.411   1.756  11.659  0.4531 -0.3630  1.2599
13186TIP3    H261050   1.559   1.746  11.689  0.8276  0.4498 -0.1911
13187TIP3   OH261051   4.587   0.940   3.875 -0.1042 -0.8743 -0.4628
13187TIP3    H161052   4.583   0.988   3.792 -1.2554 -0.0255  0.0587
13187TIP3    H261053   4.523   0.870   3.866  0.9242 -1.7972 -0.8745
13188TIP3   OH261054   0.791   3.362   6.075 -0.3737 -0.1421 -0.3763
13188TIP3    H161055   0.762   3.432   6.133 -2.8886 -1.4830  0.1583
13188TIP3    H261056   0.825   3.406   5.998  0.4463  1.6500  0.9484
13189TIP3   OH261057   4.684   3.541  11.500  0.2568  0.1504  0.3070
13189TIP3    H161058   4.760   3.597  11.489  0.8183 -0.2198  2.0098
13189TIP3    H261059   4.693   3.505  11.588 -1.2088 -0.9307  0.0572
13190TIP3   OH261060   1.695   4.617  16.796  0.4884 -0.2682  1.1201
13190TIP3    H161061   1.756   4.547  16.822  1.7047 -0.5991 -2.1466
13190TIP3    H261062   1.609   4.575  16.795  1.2068 -1.8574 -0.8684
13191TIP3   OH261063   2.062   0.812  13.700 -0.4589 -0.0540 -0.4340
13191TIP3    H161064   2.051   0.874  13.628  1.8701  0.4636 -0.4343
13191TIP3    H261065   2.113   0.740  13.663 -0.2830 -0.3628  0.3795
13192TIP3   OH261066   6.670   5.998  15.968  0.3269  0.3075 -0.7206
13192TIP3    H161067   6.668   5.990  16.063  0.5727  0.2403 -0.7201
13192TIP3    H261068   6.580   5.980  15.940  0.6844 -1.8536 -0.6604
13193TIP3   OH261069   3.233   1.990   2.303  0.4975  0.3220  0.2334
13193TIP3    H161070   3.164   1.927   2.282 -0.5777  1.4395  0.2436
13193TIP3    H261071   3.233   2.050   2.228  1.5719  0.2542  0.1707
13194TIP3   OH261072   2.203   0.256   1.318  0.1143 -0.1471  0.4140
13194TIP3    H161073   2.220   0.164   1.298 -0.3598 -0.1004 -0.2516
13194TIP3    H261074   2.124   0.277   1.268  0.4446  0.7318  0.2427
13195TIP3   OH261075   6.296   5.822  16.788 -0.3532 -0.1149  0.1198
13195TIP3    H161076   6.388   5.799  16.784  0.0397  1.2820  0.4357
13195TIP3    H261077   6.275   5.851  16.699 -0.0890  0.8795  0.3603
13196TIP3   OH261078   0.099   4.473   2.287  0.2561 -1.0436 -0.2642
13196TIP3    H161079   0.148   4.555   2.290 -1.7418  0.1708  1.2854
13196TIP3    H261080   0.101   4.441   2.377  0.3877 -2.3691 -0.7075
13197TIP3   OH261081   6.006   4.634  14.498 -0.1840 -0.0370  1.1350
13197TIP3    H161082   5.961   4.552  14.519  1.2644 -0.6436  2.0121
13197TIP3    H261083   6.037   4.623  14.408  1.0692 -0.9823  1.6608
13198TIP3   OH261084   0.769   3.893   4.358  0.7786  0.0123  0.1029
13198TIP3    H161085   0.788   3.914   4.266 -1.0154  1.3690 -0.0204
13198TIP3    H261086   0.715   3.814   4.354  0.1634  0.4373 -0.0633
13199TIP3   OH261087   2.733   6.567  11.835 -0.3078  0.1841 -0.0386
13199TIP3    H161088   2.782   6.499  11.789 -0.4059  1.3510 -1.9497
13199TIP3    H261089   2.648   6.526  11.854  0.1199 -0.6668  0.0843
13200TIP3   OH261090   0.995   0.716  11.934  0.2499  0.2180 -0.6625
13200TIP3    H161091   0.928   0.714  12.002  0.4510  3.7909 -0.1751
13200TIP3    H261092   0.978   0.638  11.882 -1.5763 -1.2508  1.9055
13201TIP3   OH261093   2.480   2.119   3.716 -0.7374  0.3099  0.5672
13201TIP3    H161094   2.412   2.059   3.746 -0.9037 -0.4666 -1.2710
13201TIP3    H261095   2.533   2.135   3.795 -1.3567 -1.3391  1.3716
13202TIP3   OH261096   4.130   2.458  14.967  0.2313  0.1311 -0.3393
13202TIP3    H161097   4.069   2.395  15.005  0.0902  1.1519  1.2249
13202TIP3    H261098   4.168   2.503  15.043  1.4036  0.9355 -1.3599
13203TIP3   OH261099   6.299   2.262   0.802  0.4277  0.3153 -0.2422
13203TIP3    H161100   6.259   2.175   0.810  1.2952 -0.0023  0.9668
13203TIP3    H261101   6.230   2.317   0.767 -0.5214 -0.6027  0.1409
13204TIP3   OH261102   1.147   2.200   0.452 -0.1993  0.3538 -0.2423
13204TIP3    H161103   1.120   2.136   0.386 -0.8469 -0.1944  0.5363
13204TIP3    H261104   1.145   2.284   0.406 -0.6042 -0.0214 -0.9294
13205TIP3   OH261105   3.355   3.421   2.272  0.3510 -0.4111  0.2381
13205TIP3    H161106   3.421   3.412   2.341  1.2746  1.5629 -0.3151
13205TIP3    H261107   3.277   3.380   2.308  0.9243  0.2223  2.3180
13206TIP3   OH261108   4.107   1.821   4.256 -0.5094 -0.0188  0.2885
13206TIP3    H161109   4.072   1.788   4.173 -0.3728  1.9560 -0.6137
13206TIP3    H261110   4.029   1.841   4.308 -0.6118 -0.4500  0.3055
13207TIP3   OH261111   2.150   4.163   6.252  0.0046  0.5390  0.6369
13207TIP3    H161112   2.128   4.253   6.275 -1.3475  0.6042 -0.7842
13207TIP3    H261113   2.076   4.132   6.199  0.3236 -1.4879  1.2772
13208TIP3   OH261114   5.664   6.602  11.657  0.7605 -0.0731  0.0021
13208TIP3    H161115   5.602   6.584  11.728  0.7906  1.4147  0.4501
13208TIP3    H261116   5.727   6.663  11.696  0.9186  0.5691 -1.2204
13209TIP3   OH261117   6.789   1.377   0.376 -0.1497 -0.0059 -0.0623
13209TIP3    H161118   6.845   1.454   0.393  0.4498  0.0421 -1.9807
13209TIP3    H261119   6.843   1.302   0.401  0.2220  0.1133 -0.4796
13210TIP3   OH261120   0.499   6.080  14.478 -0.3027 -0.0541 -0.4648
13210TIP3    H161121   0.578   6.061  14.528 -0.4616  1.7373  0.5565
13210TIP3    H261122   0.515   6.040  14.392  2.6252  1.9100 -0.9916
13211TIP3   OH261123   2.206   0.735   5.631  0.5720 -0.1362  0.3559
13211TIP3    H161124   2.258   0.752   5.709  1.7673 -0.3518 -0.3750
13211TIP3    H261125   2.139   0.672   5.660  0.7826  0.0518  1.2750
13212TIP3   OH261126   5.149   5.867   3.880 -0.7447 -0.1519 -0.3620
13212TIP3    H161127   5.173   5.952   3.843 -1.9083  0.3090 -0.1103
13212TIP3    H261128   5.155   5.806   3.806 -0.4162  0.2373 -0.6652
13213TIP3   OH261129   1.057   2.589  16.666 -0.0151 -0.4754 -0.0039
13213TIP3    H161130   1.105   2.593  16.749  1.8310 -0.5910 -1.0039
13213TIP3    H261131   1.014   2.504  16.666 -1.0980  0.0376  1.3554
13214TIP3   OH261132   4.201   6.789   5.009 -0.2591 -0.4557  0.0038
13214TIP3    H161133   4.106   6.787   4.996 -0.1339 -1.4451 -0.8948
13214TIP3    H261134   4.222   6.703   5.044  0.2903 -0.1730  0.3866
13215TIP3   OH261135   6.578   1.040  11.097 -0.3958  0.7613  0.5627
13215TIP3    H161136   6.539   1.117  11.056 -2.9416 -0.5853  0.2499
13215TIP3    H261137   6.505   0.978  11.107  1.4651 -1.5073  1.0763
13216TIP3   OH261138   2.233   4.815  12.039  0.2126  0.2137  0.3293
13216TIP3    H161139   2.273   4.732  12.065  1.1372  0.7105  0.5505
13216TIP3    H261140   2.139   4.795  12.032  0.4852 -0.9829 -0.2065
13217TIP3   OH261141   3.147   0.304  13.677  0.2469 -0.4721  0.3984
13217TIP3    H161142   3.225   0.355  13.656 -1.7661  2.5464 -0.3607
13217TIP3    H261143   3.149   0.230  13.617  2.3173 -0.2923  0.1855
13218TIP3   OH261144   4.288   1.761   3.165 -0.0911  0.1541 -0.3568
13218TIP3    H161145   4.357   1.704   3.129  0.0884  0.2190 -0.1219
13218TIP3    H261146   4.253   1.712   3.239 -1.3706 -0.5659 -1.3970
13219TIP3   OH261147   1.683   6.801   4.257 -0.3431 -0.2996 -0.2947
13219TIP3    H161148   1.653   6.728   4.311  2.1829 -0.7449  0.6552
13219TIP3    H261149   1.638   6.790   4.173 -1.8467 -1.5133  0.6287
13220TIP3   OH261150   6.440   4.212  16.399 -0.3403  0.3855  0.2322
13220TIP3    H161151   6.499   4.182  16.468 -0.6216 -0.0585  0.2806
13220TIP3    H261152   6.498   4.251  16.333  0.1688 -1.3685 -0.4121
13221TIP3   OH261153   4.027   3.979  12.176 -0.3602  0.3630 -0.4845
13221TIP3    H161154   4.104   4.032  12.196 -0.8045  1.4105 -1.4686
13221TIP3    H261155   4.022   3.979  12.081 -1.6932  0.4785 -0.4290
13222TIP3   OH261156   2.097   6.645   0.202  0.4451 -0.2005 -1.0160
13222TIP3    H161157   2.131   6.556   0.194  0.9759  0.1213 -2.6913
13222TIP3    H261158   2.149   6.684   0.272  0.9528 -0.8637 -1.0123
13223TIP3   OH261159   1.725   4.339  11.758  0.1695  0.1444  0.6425
13223TIP3    H161160   1.631   4.347  11.772  0.0351 -1.4198  0.9180
13223TIP3    H261161   1.741   4.384  11.676 -0.6371  1.3217  1.1031
13224TIP3   OH261162   3.674   0.122   2.961 -0.4241  0.0327  0.2129
13224TIP3    H161163   3.756   0.081   2.933  0.3448  0.8880  1.1285
13224TIP3    H261164   3.620   0.123   2.883  0.8562  0.4398 -0.7060
13225TIP3   OH261165   5.433   5.245   1.009 -0.2737 -0.2346  0.1833
13225TIP3    H161166   5.472   5.315   0.956 -0.7507  0.4826  0.7615
13225TIP3    H261167   5.508   5.199   1.047  0.3897 -3.4676 -4.2958
13226TIP3   OH261168   5.908   5.092  13.025 -0.5765  0.9677  0.1610
13226TIP3    H161169   5.991   5.076  13.070  0.0989  0.5082 -1.1750
13226TIP3    H261170   5.931   5.089  12.932 -2.4187 -1.0591 -0.2927
13227TIP3   OH261171   3.435   0.470  16.864 -0.0335 -0.6502  0.2629
13227TIP3    H161172   3.436   0.505  16.775 -1.6698 -1.4746 -0.1088
13227TIP3    H261173   3.482   0.536  16.916  0.4852  0.0932 -1.0978
13228TIP3   OH261174   6.317   0.463  14.028 -0.3697  0.6853  0.0177
13228TIP3    H161175   6.268   0.544  14.012  0.0164  0.6974 -1.2911
13228TIP3    H261176   6.408   0.486  14.007 -0.1277  0.1295  0.4353
13229TIP3   OH261177   1.698   5.948   5.437 -0.1290 -0.2783  0.4588
13229TIP3    H161178   1.709   5.903   5.354  0.6795 -0.8783  0.8702
13229TIP3    H261179   1.758   5.903   5.497  2.0945  2.4106  0.4761
13230TIP3   OH261180   1.281   3.287   2.190 -0.2333 -0.2500 -0.1271
13230TIP3    H161181   1.276   3.298   2.285 -0.5104  0.1946 -0.1889
13230TIP3    H261182   1.275   3.376   2.155 -1.0810 -0.4749 -0.5958
13231TIP3   OH261183   4.660   5.939   5.718  0.2793  0.0286 -0.0268
13231TIP3    H161184   4.719   5.882   5.669 -0.6348 -0.2409 -0.8564
13231TIP3    H261185   4.697   5.943   5.806  0.9092 -1.0302 -0.2303
13232TIP3   OH261186   3.657   4.536   3.956 -0.0229  0.7537  0.5061
13232TIP3    H161187   3.645   4.586   3.875  0.7646  1.2696  0.6891
13232TIP3    H261188   3.738   4.571   3.994 -0.3475  0.4764  1.4883
13233TIP3   OH261189   0.505   2.818  12.665 -0.3656  0.1669  0.1943
13233TIP3    H161190   0.560   2.894  12.684 -0.8003  0.5610 -0.0695
13233TIP3    H261191   0.429   2.855  12.619 -0.4645 -0.4591 -0.1626
13234TIP3   OH261192   4.341   1.841  15.892  0.6128  0.4840 -0.1656
13234TIP3    H161193   4.337   1.867  15.800  1.2578 -1.3169 -0.7439
13234TIP3    H261194   4.390   1.912  15.934  1.1892  0.8654 -1.4027
13235TIP3   OH261195   2.350   2.475   0.707 -0.3025 -0.0511 -0.6236
13235TIP3    H161196   2.277   2.415   0.691 -0.6805 -0.2473  1.5088
13235TIP3    H261197   2.324   2.523   0.786  2.4723 -1.1349  1.0957
13236TIP3   OH261198   1.379   4.697   3.399  0.7144  0.3730  0.5386
13236TIP3    H161199   1.399   4.723   3.489  1.3236 -3.1782  1.6029
13236TIP3    H261200   1.447   4.738   3.346  0.6014  2.1751  1.6888
13237TIP3   OH261201   5.687   0.982  14.545 -0.2527 -0.1574 -0.5312
13237TIP3    H161202   5.659   1.008  14.458 -2.3731  2.0081  0.6658
13237TIP3    H261203   5.624   1.024  14.604  2.3409  0.2947  2.1669
13238TIP3   OH261204   1.576   3.311  12.786 -0.3240  0.0633  0.6405
13238TIP3    H161205   1.616   3.386  12.830 -1.0838  0.7472  0.1983
13238TIP3    H261206   1.491   3.301  12.827 -0.3615 -0.3622  0.4705
13239TIP3   OH261207   2.177   0.073  15.296 -0.0027  0.1298 -0.2445
13239TIP3    H161208   2.147  -0.015  15.320  0.0556  0.1419 -0.1256
13239TIP3    H261209   2.231   0.101  15.370  0.5760 -0.0227 -0.6051
13240TIP3   OH261210   5.096   3.314  12.743 -0.3455 -0.0513 -0.3658
13240TIP3    H161211   5.150   3.379  12.789 -0.7589  1.5030 -1.9850
13240TIP3    H261212   5.148   3.233  12.748  0.4162  0.4726  1.2685
13241TIP3   OH261213   1.849   5.382   1.847  0.1875 -0.3166 -0.4447
13241TIP3    H161214   1.893   5.467   1.838  1.0468 -0.5088  1.4022
13241TIP3    H261215   1.875   5.333   1.770  0.6145  0.7068 -0.9709
13242TIP3   OH261216   1.638   2.060   0.366 -0.3264 -0.4594 -0.4518
13242TIP3    H161217   1.716   2.011   0.338 -0.1798 -0.1995 -0.5099
13242TIP3    H261218   1.589   1.999   0.420 -1.2909 -1.4510 -2.3491
13243TIP3   OH261219   1.636   5.128   0.086  0.0545 -0.5796  0.3952
13243TIP3    H161220   1.561   5.185   0.074  1.3518  0.9441 -1.1241
13243TIP3    H261221   1.712   5.187   0.085  1.4213 -2.2409 -0.6041
13244TIP3   OH261222   6.114   0.419   0.044  0.4131 -0.0353 -0.4656
13244TIP3    H161223   6.158   0.485   0.098  0.2143 -1.3054  1.3542
13244TIP3    H261224   6.037   0.463   0.009 -0.9684  0.1900  2.5314
13245TIP3   OH261225   3.754   5.314  12.672 -0.3227 -0.1445 -0.0971
13245TIP3    H161226   3.794   5.233  12.640  0.7467  0.9513 -1.6727
13245TIP3    H261227   3.696   5.341  12.602  0.6591  1.3540 -0.3764
13246TIP3   OH261228   0.315   5.235   5.206  0.2105 -0.3817  0.1291
13246TIP3    H161229   0.243   5.298   5.213 -0.1393 -0.9229  3.2260
13246TIP3    H261230   0.385   5.274   5.259  1.2466 -1.0537 -0.7232
13247TIP3   OH261231   4.186   6.245  12.018 -0.2667  0.3172  0.1800
13247TIP3    H161232   4.278   6.227  11.996 -0.5739  0.0464 -0.9366
13247TIP3    H261233   4.190   6.322  12.074  0.6469  0.3216  0.1293
13248TIP3   OH261234   6.325   1.281   1.775 -0.8587 -0.0324  0.5752
13248TIP3    H161235   6.398   1.293   1.835  0.0777  0.3145 -0.5978
13248TIP3    H261236   6.252   1.326   1.817  0.5434  2.9599  0.1017
13249TIP3   OH261237   4.970   6.399  13.073 -0.0387 -0.1184  0.0350
13249TIP3    H161238   4.928   6.439  13.149  0.1157 -1.2210  0.7173
13249TIP3    H261239   4.925   6.438  12.998 -1.7990 -0.7030  0.7212
13250TIP3   OH261240   1.810   1.902   2.466 -0.1953  0.4970  0.5219
13250TIP3    H161241   1.857   1.976   2.503  0.4755  0.3692 -0.0547
13250TIP3    H261242   1.739   1.941   2.415  1.2032  0.8504 -1.2400
13251TIP3   OH261243   6.446   3.539  15.076  0.7244  0.3144 -0.2889
13251TIP3    H161244   6.536   3.514  15.055  0.8322  0.0294  0.5132
13251TIP3    H261245   6.414   3.581  14.995  1.5095  0.2585 -0.6391
13252TIP3   OH261246   1.281   4.714   6.458  0.0764  0.2293  0.2951
13252TIP3    H161247   1.218   4.743   6.524 -0.7483 -1.1006  0.1258
13252TIP3    H261248   1.352   4.674   6.509  0.6488  1.4017  0.4662
13253TIP3   OH261249   3.183   5.250   1.634  0.4349 -0.3927  0.5513
13253TIP3    H161250   3.097   5.283   1.608  1.5293  0.7386 -1.9354
13253TIP3    H261251   3.171   5.225   1.726 -1.5548  3.4561  1.5900
13254TIP3   OH261252   6.545   5.944   3.820 -0.5994 -0.4226 -0.0239
13254TIP3    H161253   6.491   5.903   3.752 -1.5000 -0.2730  0.5818
13254TIP3    H261254   6.602   6.004   3.772 -1.0999 -0.4517 -0.6686
13255TIP3   OH261255   4.263   4.449   3.228  0.0656 -0.6625  0.6927
13255TIP3    H161256   4.243   4.427   3.319  1.0180  2.4111  1.7558
13255TIP3    H261257   4.353   4.419   3.215  0.2971 -0.1749  1.1310
13256TIP3   OH261258   4.216   4.783  10.972  0.4339  0.4102 -0.1074
13256TIP3    H161259   4.239   4.691  10.985  0.2596 -0.0007 -2.2741
13256TIP3    H261260   4.171   4.784  10.888 -2.2312  2.0776  1.2227
13257TIP3   OH261261   3.474   0.280  14.161  0.4378 -0.8728  0.4177
13257TIP3    H161262   3.435   0.193  14.157 -0.6251 -0.3800 -0.9726
13257TIP3    H261263   3.513   0.286  14.249 -1.1344 -2.0467  1.2412
13258TIP3   OH261264   0.603   3.939  13.664  0.0987  0.4163  0.6576
13258TIP3    H161265   0.600   3.858  13.715 -0.8052 -0.3481 -0.5561
13258TIP3    H261266   0.671   3.924  13.599 -2.4240 -0.9029 -1.9086
13259TIP3   OH261267   5.687   5.174  12.153  0.1865  0.5194 -0.2268
13259TIP3    H161268   5.692   5.079  12.149 -0.4113  0.4487  0.4740
13259TIP3    H261269   5.650   5.200  12.068  0.8177  0.1690 -0.6144
13260TIP3   OH261270   4.836   4.717   3.720 -0.1581  0.5053 -0.0643
13260TIP3    H161271   4.781   4.795   3.706  0.3560  0.8832 -0.0131
13260TIP3    H261272   4.793   4.669   3.790  0.4775  1.6701  1.1615
13261TIP3   OH261273   3.748   5.422   0.293 -0.1806  0.2643 -0.7238
13261TIP3    H161274   3.728   5.331   0.314  2.3292 -0.4338 -1.0589
13261TIP3    H261275   3.720   5.471   0.370  0.2258 -1.0420  0.2972
13262TIP3   OH261276   1.332   3.742  11.489 -0.7049 -0.1273  0.0738
13262TIP3    H161277   1.259   3.692  11.452 -0.4624  0.6126 -1.4891
13262TIP3    H261278   1.405   3.680  11.491 -1.0832 -0.5673  0.6473
13263TIP3   OH261279   6.156   4.558   2.356  0.0835 -0.3505 -0.2531
13263TIP3    H161280   6.221   4.520   2.415 -0.0333  0.3083  0.3203
13263TIP3    H261281   6.130   4.486   2.299  0.7642 -0.8096 -0.0021
13264TIP3   OH261282   0.482   2.330   1.614  0.0677 -0.6969  0.4267
13264TIP3    H161283   0.512   2.240   1.598  0.5938 -0.6339  1.0326
13264TIP3    H261284   0.560   2.377   1.642 -0.4031 -0.2881  1.0868
13265TIP3   OH261285   2.507   4.537   2.572 -0.1324 -0.1275 -0.1978
13265TIP3    H161286   2.546   4.451   2.586 -0.1499 -0.0538  0.3069
13265TIP3    H261287   2.533   4.589   2.648  0.4751  0.5323 -0.8419
13266TIP3   OH261288   4.551   1.914  13.332 -0.0601 -0.4901 -0.2732
13266TIP3    H161289   4.500   1.891  13.254 -3.4692 -0.3726  1.7321
13266TIP3    H261290   4.508   1.993  13.366  4.0630  2.1629 -0.5213
13267TIP3   OH261291   1.540   2.149   1.769 -0.1399  0.1825 -0.7223
13267TIP3    H161292   1.622   2.183   1.735 -0.4935  1.5445 -0.2529
13267TIP3    H261293   1.491   2.122   1.691  1.4212 -2.3712 -0.9441
13268TIP3   OH261294   5.288   5.620   2.431  1.1023 -0.1434 -0.2712
13268TIP3    H161295   5.196   5.616   2.458  0.9467  3.7239  0.2775
13268TIP3    H261296   5.286   5.600   2.338  0.0497 -2.1106  0.1153
13269TIP3   OH261297   2.451   0.659   3.908 -0.1189 -1.0751  0.6330
13269TIP3    H161298   2.410   0.578   3.938  1.1871 -2.1961 -0.4120
13269TIP3    H261299   2.545   0.638   3.904  0.1876  0.2845 -0.2501
13270TIP3   OH261300   3.696   0.916   1.735  0.1138 -0.1131 -0.2836
13270TIP3    H161301   3.768   0.977   1.748 -1.1179  1.6873 -1.4729
13270TIP3    H261302   3.733   0.847   1.680  1.0512  0.5489 -0.5184
13271TIP3   OH261303   0.073   3.437   0.941  0.3554  0.0213  0.0649
13271TIP3    H161304   0.011   3.448   1.013 -1.7614 -1.9746 -1.3325
13271TIP3    H261305   0.092   3.526   0.912 -1.0735  0.7397  1.1858
13272TIP3   OH261306   0.885   3.937  11.265  0.3355  0.1111  0.0031
13272TIP3    H161307   0.849   3.850  11.282 -1.1872  0.6054 -0.4784
13272TIP3    H261308   0.866   3.953  11.172 -1.5864  1.8586  0.6147
13273TIP3   OH261309   2.069   2.458   5.054 -0.4475  0.5757  0.7921
13273TIP3    H161310   2.050   2.376   5.099  0.4941 -0.5302 -0.7256
13273TIP3    H261311   2.165   2.466   5.059 -0.4391  1.0479  0.0180
13274TIP3   OH261312   3.225   4.703   5.591  0.1535 -0.3455  0.0128
13274TIP3    H161313   3.210   4.754   5.512 -0.6944  1.0960  1.0467
13274TIP3    H261314   3.312   4.666   5.580  0.3442  0.4330 -1.2643
13275TIP3   OH261315   2.724   2.250   2.690  0.7550 -0.2890  1.1031
13275TIP3    H161316   2.696   2.322   2.634 -0.3631  0.2561  2.3147
13275TIP3    H261317   2.778   2.291   2.757 -1.5558 -0.1729  3.0200
13276TIP3   OH261318   1.330   2.850  16.436 -0.1024 -0.1967 -0.3652
13276TIP3    H161319   1.345   2.936  16.397  1.4285 -0.6278 -0.7893
13276TIP3    H261320   1.239   2.853  16.465  0.2648  2.0464  0.8383
13277TIP3   OH261321   3.352   3.995   3.631  0.3931  0.4865  0.3606
13277TIP3    H161322   3.309   4.072   3.596  0.6548  0.8898  0.9069
13277TIP3    H261323   3.282   3.931   3.642  0.3516  0.2400 -1.1514
13278TIP3   OH261324   6.248   1.509   5.828  0.6886  0.2559 -1.2358
13278TIP3    H161325   6.324   1.468   5.869  0.2436 -0.1647 -0.8072
13278TIP3    H261326   6.236   1.591   5.876  0.1568 -0.2438 -0.4869
13279TIP3   OH261327   2.813   6.052  13.667  0.0818 -0.3056 -0.0840
13279TIP3    H161328   2.887   6.052  13.728 -0.2035  1.5644  0.3357
13279TIP3    H261329   2.757   5.981  13.698  0.8419 -0.5925  0.6830
13280TIP3   OH261330   4.728   0.850   2.909  0.6530  0.6066 -0.7511
13280TIP3    H161331   4.683   0.877   2.830  0.2729 -0.9798 -1.0975
13280TIP3    H261332   4.805   0.802   2.878  0.6886  0.2746 -0.1661
13281TIP3   OH261333   2.029   5.117   0.986 -0.1202 -0.3646 -0.0578
13281TIP3    H161334   2.041   5.151   0.898  1.0608 -1.3697 -0.3119
13281TIP3    H261335   1.947   5.157   1.016  1.0709  2.5762 -0.3659
13282TIP3   OH261336   3.859   2.842  16.195 -0.0757 -0.0049 -0.2877
13282TIP3    H161337   3.904   2.814  16.275  0.5372  1.1857 -0.1806
13282TIP3    H261338   3.830   2.931  16.215  2.9014  1.6287 -2.4229
13283TIP3   OH261339   0.863   4.133  14.824  0.0900  0.4949  0.5733
13283TIP3    H161340   0.792   4.098  14.771  1.2399  0.7744 -1.2844
13283TIP3    H261341   0.830   4.134  14.913 -2.0212  0.1430 -0.1618
13284TIP3   OH261342   4.834   1.987   5.501 -0.4708 -0.0854  0.0284
13284TIP3    H161343   4.745   2.002   5.469  0.0775  1.9107 -0.7035
13284TIP3    H261344   4.833   2.017   5.592 -0.3098  0.9663 -0.3029
13285TIP3   OH261345   1.519   0.546  13.225  0.1129  0.0751 -0.0847
13285TIP3    H161346   1.600   0.496  13.228 -0.4345 -0.8186  0.2040
13285TIP3    H261347   1.539   0.627  13.272  0.8438 -0.1147 -0.0602
13286TIP3   OH261348   1.786   1.082   0.387  0.8526  0.6770 -0.0442
13286TIP3    H161349   1.823   1.165   0.357  2.7077  0.7334  2.0624
13286TIP3    H261350   1.863   1.029   0.408 -0.3091 -1.3451 -0.6938
13287TIP3   OH261351   0.750   3.888   5.029 -0.5617  0.6344 -0.0977
13287TIP3    H161352   0.688   3.954   4.999 -2.3160 -0.1847  1.4690
13287TIP3    H261353   0.812   3.936   5.084 -1.3262  1.1225  0.3566
13288TIP3   OH261354   0.994   6.077  16.849  0.7034  0.4761 -0.2342
13288TIP3    H161355   0.958   6.034  16.927 -0.4270  0.3731 -0.7847
13288TIP3    H261356   1.023   6.163  16.880 -2.0749  1.4729 -0.1269
13289TIP3   OH261357   3.237   6.185   0.946 -0.1209  0.0413 -0.1363
13289TIP3    H161358   3.186   6.175   0.865  1.2270  1.9861 -1.3334
13289TIP3    H261359   3.211   6.111   1.001 -2.3560 -0.3850 -1.6562
13290TIP3   OH261360   6.591   4.068   3.623  0.1763 -0.4160  0.2795
13290TIP3    H161361   6.534   4.076   3.547  0.8685 -0.4306 -0.2509
13290TIP3    H261362   6.541   4.107   3.694 -0.2261  0.1788 -0.3164
13291TIP3   OH261363   0.894   3.297  11.923 -0.0645  0.3327  0.0597
13291TIP3    H161364   0.838   3.272  11.996  1.4414 -0.2098  1.0637
13291TIP3    H261365   0.865   3.385  11.899 -0.0153  0.8703  1.8842
13292TIP3   OH261366   5.169   6.606  15.809 -0.1296  0.3663  0.0069
13292TIP3    H161367   5.254   6.616  15.767 -0.4633  0.2645 -0.7096
13292TIP3    H261368   5.121   6.547  15.751 -1.0686  1.2990 -0.1978
13293TIP3   OH261369   4.361   3.941  13.345  0.2929 -0.0538  0.0909
13293TIP3    H161370   4.379   3.894  13.427 -1.1011  1.9823  1.6749
13293TIP3    H261371   4.266   3.949  13.343 -0.0386 -2.6659 -3.3670
13294TIP3   OH261372   0.720   5.294   1.934 -0.6096  0.4173  0.0418
13294TIP3    H161373   0.671   5.272   1.854 -1.4288  0.4065  0.5340
13294TIP3    H261374   0.671   5.252   2.004 -2.0427  3.3685  1.0002
13295TIP3   OH261375   6.368   3.181   4.607 -0.3116 -0.5830 -0.5225
13295TIP3    H161376   6.415   3.227   4.676 -0.4718 -2.1665  0.7045
13295TIP3    H261377   6.304   3.126   4.654 -3.0327  1.0284 -2.0751
13296TIP3   OH261378   4.972   0.971   5.058  0.6218 -0.3488  0.4798
13296TIP3    H161379   4.917   1.049   5.053  0.6966 -0.3155  0.1271
13296TIP3    H261380   4.960   0.938   5.147  0.3004 -0.1461  0.5120
13297TIP3   OH261381   1.556   5.182  13.227 -0.6228  0.3073  0.1943
13297TIP3    H161382   1.571   5.266  13.269  0.6660 -0.2311  0.8588
13297TIP3    H261383   1.589   5.118  13.289 -0.8162 -0.6536 -0.6626
13298TIP3   OH261384   0.318   5.899  15.478 -0.1411 -0.3180  0.2543
13298TIP3    H161385   0.240   5.955  15.477 -1.3975 -2.0024 -0.6362
13298TIP3    H261386   0.386   5.952  15.436 -0.5644  1.4508  1.6724
13299TIP3   OH261387   5.923   0.535  11.981 -1.2813  1.1357 -0.5799
13299TIP3    H161388   5.951   0.455  12.025  1.4430  1.3256 -1.7583
13299TIP3    H261389   5.834   0.517  11.952 -0.7762 -1.4525 -0.7297
13300TIP3   OH261390   6.453   1.240   0.733 -0.1499  0.3852 -0.7704
13300TIP3    H161391   6.486   1.150   0.737 -1.2993 -0.0166  0.3459
13300TIP3    H261392   6.358   1.231   0.727 -0.2650  1.5300 -0.9064
13301TIP3   OH261393   5.887   3.827  13.947 -0.1063 -0.2632  0.1878
13301TIP3    H161394   5.919   3.916  13.934 -1.6231  0.1979 -0.6191
13301TIP3    H261395   5.818   3.835  14.012 -1.4718 -0.5312 -1.1752
13302TIP3   OH261396   5.135   4.209   5.652  0.4146  0.4994  0.2614
13302TIP3    H161397   5.162   4.189   5.563  2.4182  2.3452  0.3809
13302TIP3    H261398   5.093   4.295   5.646  0.3343  0.5251  1.0693
13303TIP3   OH261399   6.719   1.032  11.968 -0.5633 -0.0558 -0.1089
13303TIP3    H161400   6.705   1.033  12.062 -0.0434  2.6824  0.0164
13303TIP3    H261401   6.773   0.955  11.952 -0.8949 -0.7126  1.7722
13304TIP3   OH261402   5.458   5.580  14.688  0.4738 -0.1723 -0.6163
13304TIP3    H161403   5.487   5.653  14.633  0.8554  0.9725  1.0196
13304TIP3    H261404   5.479   5.608  14.777  0.2467 -2.1240  0.0968
13305TIP3   OH261405   0.509   6.228   5.034  0.4827  0.0448  0.1705
13305TIP3    H161406   0.557   6.189   5.107 -1.3664 -0.3069  1.2725
13305TIP3    H261407   0.480   6.153   4.982  0.4363  0.2101 -0.0417
13306TIP3   OH261408   1.730   1.739  11.209  0.3038  0.1288 -0.2835
13306TIP3    H161409   1.700   1.829  11.218 -2.1614 -0.5948 -0.4213
13306TIP3    H261410   1.808   1.734  11.264  1.3200  2.6543 -1.3443
13307TIP3   OH261411   0.894   4.399   5.085 -0.2837  0.2839  0.3782
13307TIP3    H161412   0.896   4.407   4.990 -0.8686 -0.2373  0.3200
13307TIP3    H261413   0.808   4.363   5.105  0.4162 -1.1408  0.9711
13308TIP3   OH261414   3.710   2.227  14.743  0.3403  0.6110  0.6329
13308TIP3    H161415   3.710   2.317  14.708 -1.6679  0.0783 -0.9659
13308TIP3    H261416   3.621   2.215  14.776  0.0184 -1.3240 -0.7885
13309TIP3   OH261417   1.015   1.812   1.368 -0.4627  0.4965  0.0422
13309TIP3    H161418   1.072   1.739   1.343 -0.6063  0.0617  0.9280
13309TIP3    H261419   1.032   1.880   1.303  0.3468  0.0107 -0.2659
13310TIP3   OH261420   6.564   6.001   5.166  0.5557 -0.3511  0.0869
13310TIP3    H161421   6.552   6.092   5.194 -0.1825 -0.8418  1.4873
13310TIP3    H261422   6.581   6.007   5.072  1.1148  1.2656  0.2589
13311TIP3   OH261423   6.117   0.887  11.761  0.3637 -0.1593  0.3213
13311TIP3    H161424   6.154   0.959  11.710 -0.6385 -0.3327 -0.6950
13311TIP3    H261425   6.100   0.925  11.847  0.3192  0.6839 -0.0529
13312TIP3   OH261426   2.626   4.412  15.027  0.4218  0.1028  0.0578
13312TIP3    H161427   2.648   4.372  15.111  0.8816 -0.8783 -0.5197
13312TIP3    H261428   2.703   4.397  14.972 -0.1624  0.0770 -0.7745
13313TIP3   OH261429   2.902   0.038   2.920  0.2653  0.0690 -0.0731
13313TIP3    H161430   2.830  -0.004   2.872  0.1852 -0.1739  0.2504
13313TIP3    H261431   2.867   0.123   2.947  0.7932  0.8244 -1.6701
13314TIP3   OH261432   6.013   2.807  13.633  0.2412 -0.3550  0.1829
13314TIP3    H161433   6.103   2.825  13.660  0.6628  0.9558 -1.8822
13314TIP3    H261434   5.959   2.845  13.702  1.2722  2.4927 -0.4478
13315TIP3   OH261435   1.147   0.372  12.047  0.7611  0.3521  0.1774
13315TIP3    H161436   1.117   0.373  11.956 -0.8999  0.8383  0.6866
13315TIP3    H261437   1.231   0.417  12.046  0.4954  0.8377 -1.0326
13316TIP3   OH261438   1.624   5.728  13.238 -0.2531  0.2137 -0.1192
13316TIP3    H161439   1.625   5.794  13.168  2.1848 -1.9665 -2.3652
13316TIP3    H261440   1.687   5.761  13.302 -0.1444  0.7536 -0.4927
13317TIP3   OH261441   5.963   1.508   0.533  0.4035  0.1838 -0.0184
13317TIP3    H161442   5.993   1.442   0.471  0.6238 -0.6829  0.9766
13317TIP3    H261443   5.869   1.514   0.518  0.4060 -0.2496 -0.2313
13318TIP3   OH261444   3.882   4.192   0.971 -0.4087 -0.0283 -0.4933
13318TIP3    H161445   3.978   4.184   0.970 -0.5318 -2.2949  0.2818
13318TIP3    H261446   3.865   4.274   0.924  1.9457  1.0261  0.3012
13319TIP3   OH261447   1.739   3.425  13.032  0.2500  0.0757  0.3879
13319TIP3    H161448   1.823   3.421  12.987  0.8450 -0.3566  1.4946
13319TIP3    H261449   1.737   3.513  13.071 -0.3562  0.5280 -0.6081
13320TIP3   OH261450   5.277   1.431   5.713  0.6094 -0.2952 -0.1505
13320TIP3    H161451   5.329   1.433   5.793  1.0198 -0.0396 -0.4214
13320TIP3    H261452   5.340   1.415   5.643  1.0316  3.8976 -0.9937
13321TIP3   OH261453   0.709   5.130  12.294 -0.0334 -0.0288  0.6937
13321TIP3    H161454   0.622   5.155  12.327  0.0167  2.6561 -0.9210
13321TIP3    H261455   0.769   5.188  12.341  0.3328  1.5843 -1.5868
13322TIP3   OH261456   0.145   2.637   1.323  0.2174 -0.0845 -0.4684
13322TIP3    H161457   0.239   2.653   1.316  0.5287 -1.2593  0.7237
13322TIP3    H261458   0.138   2.544   1.345 -1.2399 -0.0787 -0.8149
13323TIP3   OH261459   0.400   4.701  13.815  0.2055 -0.0402 -0.2458
13323TIP3    H161460   0.362   4.787  13.799  1.4260  0.6438  0.3278
13323TIP3    H261461   0.482   4.720  13.862 -0.0184 -1.5667  0.8304
13324TIP3   OH261462   3.585   4.384  12.831 -0.3683  0.1247 -0.0262
13324TIP3    H161463   3.624   4.329  12.763  0.8323  0.5940  0.2587
13324TIP3    H261464   3.502   4.415  12.793 -0.4734 -0.8802 -0.6486
13325TIP3   OH261465   0.702   0.739  14.622 -0.1217 -0.0624 -0.2303
13325TIP3    H161466   0.668   0.658  14.584  0.5939 -0.0337 -0.9508
13325TIP3    H261467   0.766   0.771  14.559 -0.6010  1.2334 -0.1124
13326TIP3   OH261468   5.474   2.433  12.756  0.0219  0.0118  0.1095
13326TIP3    H161469   5.441   2.384  12.831  0.0471 -0.4033 -0.1475
13326TIP3    H261470   5.472   2.525  12.784 -3.7592  0.3539 -0.7659
13327TIP3   OH261471   3.664   2.631  14.038  0.7918  0.7338  0.2727
13327TIP3    H161472   3.745   2.649  13.989  0.3765 -1.9527 -1.6362
13327TIP3    H261473   3.596   2.680  13.991  0.7847  0.1323 -0.3599
13328TIP3   OH261474   3.729   5.396  11.204  0.7725 -0.4628  0.6742
13328TIP3    H161475   3.654   5.410  11.146  0.6724  0.0424  0.9249
13328TIP3    H261476   3.767   5.313  11.174  0.9874  0.0098 -0.4004
13329TIP3   OH261477   4.376   1.194   2.323  0.2009  0.8494 -0.2967
13329TIP3    H161478   4.455   1.186   2.376 -0.5082 -1.2056  0.5478
13329TIP3    H261479   4.389   1.274   2.272  2.2986  1.1729  0.6538
13330TIP3   OH261480   2.331   3.480  11.166 -0.3018 -0.2791  0.4591
13330TIP3    H161481   2.420   3.444  11.156 -0.0992 -0.1308  1.5792
13330TIP3    H261482   2.278   3.428  11.106  0.3602 -1.0762  0.5358
13331TIP3   OH261483   2.302   3.524   4.225 -0.4869 -0.5237  0.3706
13331TIP3    H161484   2.211   3.523   4.195 -0.1299 -1.7396 -0.7592
13331TIP3    H261485   2.337   3.439   4.200  1.1971  0.2091  0.0922
13332TIP3   OH261486   1.758   5.085  14.087  0.2135 -0.0402  0.1280
13332TIP3    H161487   1.738   5.040  14.005  1.0133  0.0321 -0.1108
13332TIP3    H261488   1.845   5.121  14.074  0.1528  0.3772  0.8408
13333TIP3   OH261489   3.382   0.891   4.766  0.1598  0.7592 -0.3330
13333TIP3    H161490   3.300   0.851   4.795 -0.2680  1.0037 -1.1636
13333TIP3    H261491   3.385   0.873   4.672  0.9323  0.9914 -0.3601
13334TIP3   OH261492   0.545   2.382  15.804  0.0774 -0.0600  0.1412
13334TIP3    H161493   0.587   2.300  15.777 -1.4535 -0.6500 -0.5722
13334TIP3    H261494   0.540   2.376  15.899  0.4072 -0.5751  0.1300
13335TIP3   OH261495   3.295   0.868  11.426 -0.1779 -0.3159  0.0729
13335TIP3    H161496   3.225   0.932  11.434  0.5820  0.3644  1.7761
13335TIP3    H261497   3.301   0.850  11.332 -1.4007  0.9812 -0.2808
13336TIP3   OH261498   4.679   0.154   1.446  0.2797  0.1505  0.2200
13336TIP3    H161499   4.762   0.185   1.483  0.1039  0.2571  0.5270
13336TIP3    H261500   4.688   0.168   1.351  0.5324  0.3467  0.2724
13337TIP3   OH261501   2.443   5.744  10.910  0.2140  0.4078 -0.0379
13337TIP3    H161502   2.440   5.658  10.869  0.7775  0.7779 -0.9025
13337TIP3    H261503   2.443   5.727  11.004  1.3025 -0.5789 -0.1965
13338TIP3   OH261504   1.346   5.501  13.654  0.2653  0.4410  0.2508
13338TIP3    H161505   1.285   5.547  13.596 -1.6170 -2.4555 -0.3014
13338TIP3    H261506   1.326   5.535  13.741 -0.4810  1.2359 -0.2064
13339TIP3   OH261507   6.587   6.474  13.710  0.0296 -0.3500  0.2572
13339TIP3    H161508   6.637   6.393  13.726  1.4369  0.8795  2.5978
13339TIP3    H261509   6.645   6.526  13.655  0.0495 -0.0770  0.5389
13340TIP3   OH261510   4.949   0.921   2.707  0.4678  0.2598  0.1152
13340TIP3    H161511   4.894   0.984   2.660 -2.1457 -1.6588  0.3826
13340TIP3    H261512   4.942   0.840   2.656  1.6044 -0.5275  1.1540
13341TIP3   OH261513   0.174   1.279   3.540 -0.3961  0.1450  0.3268
13341TIP3    H161514   0.187   1.372   3.523 -0.9650  0.0282 -0.8540
13341TIP3    H261515   0.224   1.235   3.471  1.1532 -0.4756  1.7877
13342TIP3   OH261516   4.054   1.560   0.364  0.1483  0.2684  0.0089
13342TIP3    H161517   4.133   1.530   0.409 -0.0970 -1.8158 -0.8258
13342TIP3    H261518   4.022   1.632   0.417  0.7694 -1.0104  2.2393
13343TIP3   OH261519   4.573   3.729  11.954 -0.3127 -0.1475 -0.4992
13343TIP3    H161520   4.498   3.778  11.988 -0.4673 -1.0156  0.4653
13343TIP3    H261521   4.634   3.796  11.924 -0.1036  0.6942  1.6719
13344TIP3   OH261522   4.794   5.228  13.780  0.3332 -0.1368 -0.3574
13344TIP3    H161523   4.788   5.197  13.690  0.1556 -1.7532  0.1901
13344TIP3    H261524   4.739   5.168  13.830 -1.4352  2.0662  0.5351
13345TIP3   OH261525   2.281   6.463  16.090 -0.0466  0.1115 -0.7044
13345TIP3    H161526   2.340   6.525  16.132 -0.1302  0.2521 -0.7970
13345TIP3    H261527   2.270   6.496  16.001 -0.9240  0.5434 -0.4476
13346TIP3   OH261528   3.787   1.882   5.481  0.1662 -0.1555 -0.2856
13346TIP3    H161529   3.820   1.796   5.455  0.4154  0.5971 -2.6885
13346TIP3    H261530   3.770   1.874   5.575  0.6740 -2.6499 -0.3473
13347TIP3   OH261531   1.207   0.251  11.154 -0.3511  0.5387 -0.2926
13347TIP3    H161532   1.224   0.157  11.151 -2.5983 -0.0341  1.8086
13347TIP3    H261533   1.245   0.279  11.238 -0.3676  1.3558 -0.5486
13348TIP3   OH261534   2.872   1.351  11.746  0.0630  0.0040 -0.5189
13348TIP3    H161535   2.882   1.256  11.740 -0.7252 -0.0184 -1.9250
13348TIP3    H261536   2.951   1.386  11.706  0.7357 -0.0402  0.7459
13349TIP3   OH261537   5.726   5.885   3.819 -0.3592  0.2837 -0.9855
13349TIP3    H161538   5.724   5.853   3.729 -4.3689 -0.2413 -0.9070
13349TIP3    H261539   5.651   5.944   3.825 -0.7902 -0.3919  2.1718
13350TIP3   OH261540   6.660   6.540   4.585  0.7308  0.5148 -0.2080
13350TIP3    H161541   6.651   6.609   4.651  2.0353  0.1213  0.3991
13350TIP3    H261542   6.581   6.486   4.596  0.7983  0.6140  0.8308
13351TIP3   OH261543   2.045   0.973  17.140  0.7367  0.1289  0.5779
13351TIP3    H161544   2.128   0.985  17.093 -0.0349 -0.3471 -0.9598
13351TIP3    H261545   2.033   1.055  17.187  1.3415  0.8119 -0.4043
13352TIP3   OH261546   5.467   4.838   2.862 -0.3936 -0.0976  0.5239
13352TIP3    H161547   5.509   4.762   2.823 -0.8888 -0.0918 -0.0438
13352TIP3    H261548   5.375   4.831   2.835 -0.2169  1.3532 -0.5872
13353TIP3   OH261549   5.721   4.709  16.145 -0.1085  0.6621  0.0086
13353TIP3    H161550   5.651   4.644  16.143  0.2896  0.2275  0.0767
13353TIP3    H261551   5.789   4.674  16.088 -0.8310  2.1263 -1.8746
13354TIP3   OH261552   0.179   4.940  10.690  0.2254  0.4724  0.4866
13354TIP3    H161553   0.196   4.946  10.596  0.5921 -0.2270  0.5036
13354TIP3    H261554   0.258   4.901  10.726 -0.1398  0.2008  1.0062
13355TIP3   OH261555   3.762   0.913  15.684 -0.5173 -0.7931 -0.3007
13355TIP3    H161556   3.769   0.869  15.599  0.2847 -0.5658 -0.3596
13355TIP3    H261557   3.760   0.842  15.748 -1.7111 -0.9850 -0.5375
13356TIP3   OH261558   4.533   1.182   0.562 -0.3303  0.1423  0.1159
13356TIP3    H161559   4.544   1.249   0.495 -1.1526 -0.7665 -0.9802
13356TIP3    H261560   4.477   1.223   0.628  0.6017  1.0944  0.3316
13357TIP3   OH261561   5.067   5.006   5.048  0.5503 -0.2530  0.4120
13357TIP3    H161562   4.989   5.016   5.103 -0.4538 -0.3078 -0.9714
13357TIP3    H261563   5.067   5.084   4.992  1.3367 -0.3982  0.1935
13358TIP3   OH261564   4.805   1.231   1.414 -0.3515 -0.6935  0.2684
13358TIP3    H161565   4.828   1.139   1.398 -3.7479 -1.8484  1.1686
13358TIP3    H261566   4.847   1.252   1.497  1.6917 -0.8478 -0.6521
13359TIP3   OH261567   4.802   6.622  10.889  0.0189  0.1526 -0.6957
13359TIP3    H161568   4.807   6.527  10.903 -0.6302  0.3270  0.9401
13359TIP3    H261569   4.721   6.648  10.933 -0.8394  1.2082 -2.8160
13360TIP3   OH261570   0.921   5.766   0.164 -0.3324 -0.5428  0.6761
13360TIP3    H161571   0.955   5.779   0.253  1.0156 -0.0901  0.1231
13360TIP3    H261572   0.921   5.671   0.152 -0.6057 -0.6085  1.1905
13361TIP3   OH261573   1.662   0.830   4.001 -0.0314  0.0548 -0.4855
13361TIP3    H161574   1.675   0.886   3.924 -0.2253 -0.3475 -0.8161
13361TIP3    H261575   1.581   0.782   3.983 -0.0890 -0.0288 -0.0193
13362TIP3   OH261576   4.280   3.068   4.185 -0.3515  0.2049 -0.0874
13362TIP3    H161577   4.269   3.126   4.260  1.8508  1.7082 -0.8009
13362TIP3    H261578   4.354   3.012   4.208 -0.4639 -0.1669 -0.6179
13363TIP3   OH261579   4.837   1.829   3.625 -0.6238 -0.3230  0.7796
13363TIP3    H161580   4.753   1.783   3.626 -1.4492  1.0843  0.0825
13363TIP3    H261581   4.815   1.918   3.653  0.4198  0.3815 -0.5509
13364TIP3   OH261582   3.138   4.724   3.829 -0.1056  0.0644 -0.2056
13364TIP3    H161583   3.174   4.812   3.831  1.9391 -0.7103 -0.2670
13364TIP3    H261584   3.186   4.680   3.758 -2.0328 -0.7318 -1.0939
13365TIP3   OH261585   4.873   5.498  13.710 -0.3085  0.7579  1.1623
13365TIP3    H161586   4.787   5.533  13.686  0.0915  1.2748  0.4392
13365TIP3    H261587   4.857   5.406  13.730 -0.7604  0.3947 -0.7149
13366TIP3   OH261588   2.824   1.123   1.296  0.3043 -0.0749 -0.2611
13366TIP3    H161589   2.730   1.118   1.279 -0.0627  2.9505  0.3930
13366TIP3    H261590   2.864   1.086   1.218 -1.4178 -0.2326 -1.1157
13367TIP3   OH261591   1.730   2.310   5.653 -0.0569 -0.2308  0.2001
13367TIP3    H161592   1.745   2.401   5.628 -0.7189 -0.4250 -1.0081
13367TIP3    H261593   1.662   2.315   5.720  1.4492  0.2763  1.7621
13368TIP3   OH261594   2.940   2.049  14.061 -0.1270  0.3011  0.0176
13368TIP3    H161595   2.846   2.032  14.067 -0.1149  0.5202  1.1256
13368TIP3    H261596   2.950   2.103  13.983 -0.9058  0.1510 -0.1910
13369TIP3   OH261597   1.683   3.916  15.706 -0.6133  0.2398  0.0806
13369TIP3    H161598   1.718   4.004  15.689  1.2451 -0.5131 -0.2373
13369TIP3    H261599   1.594   3.919  15.670 -0.4074  1.8314 -0.3970
13370TIP3   OH261600   5.109   4.752  15.464 -0.0478  0.1949 -0.8674
13370TIP3    H161601   5.160   4.818  15.417  2.7354 -0.9073  0.3805
13370TIP3    H261602   5.153   4.669  15.445 -1.2721 -0.8189  0.4476
13371TIP3   OH261603   3.480   5.090  12.872 -0.1056  0.2027 -0.2992
13371TIP3    H161604   3.513   5.034  12.802 -0.8784  1.8372 -2.0682
13371TIP3    H261605   3.541   5.076  12.944 -0.4609 -3.1148 -0.4809
13372TIP3   OH261606   4.200   6.495   5.613  0.4493 -0.0619 -0.2241
13372TIP3    H161607   4.159   6.581   5.607 -0.5541 -0.4911  0.2435
13372TIP3    H261608   4.207   6.478   5.707 -0.3249 -0.9237 -0.3058
13373TIP3   OH261609   5.250   5.128   2.974 -0.1811 -0.2791  0.0193
13373TIP3    H161610   5.332   5.158   2.934  0.2491  0.4583  1.3500
13373TIP3    H261611   5.277   5.058   3.033 -0.8191 -1.4532 -1.0464
13374TIP3   OH261612   0.308   6.230  14.991  0.1297 -0.6634 -0.4483
13374TIP3    H161613   0.338   6.142  14.970 -1.6203 -1.6599  0.9077
13374TIP3    H261614   0.349   6.250  15.075 -1.3926 -1.2768  0.4925
13375TIP3   OH261615   4.214   5.956   1.688 -0.0431 -0.0520  0.3459
13375TIP3    H161616   4.227   5.916   1.602 -0.4414  0.8962 -0.1684
13375TIP3    H261617   4.303   5.972   1.720  0.1089 -0.3592  0.0922
13376TIP3   OH261618   1.126   6.350  12.771 -0.5972 -0.2754 -0.0763
13376TIP3    H161619   1.213   6.319  12.748 -0.6141 -0.4406  0.0846
13376TIP3    H261620   1.125   6.352  12.867 -0.4451  0.6459 -0.0857
13377TIP3   OH261621   0.894   4.076  14.262  0.1275  0.0884  0.4841
13377TIP3    H161622   0.851   4.100  14.181 -0.1332  0.0263  0.6041
13377TIP3    H261623   0.980   4.118  14.257  0.1517 -0.0026  0.1327
13378TIP3   OH261624   4.370   3.265  16.259  0.3989 -0.8077 -0.4566
13378TIP3    H161625   4.365   3.208  16.336 -1.6013 -0.1694 -0.0555
13378TIP3    H261626   4.460   3.256  16.229  1.5215 -0.4354  2.4533
13379TIP3   OH261627   1.633   2.504  16.473  0.2689  0.2024 -0.1636
13379TIP3    H161628   1.673   2.497  16.560 -0.8754  1.2610  0.4911
13379TIP3    H261629   1.707   2.501  16.412  0.9927 -1.9132  0.7404
13380TIP3   OH261630   4.281   2.031   1.395  0.0282  0.5642  0.2210
13380TIP3    H161631   4.293   1.973   1.469 -0.9684  0.6331  0.4555
13380TIP3    H261632   4.214   1.988   1.341  0.8712  0.4184 -0.7399
13381TIP3   OH261633   0.243   0.682   0.157  0.4179 -0.1141 -0.4538
13381TIP3    H161634   0.311   0.635   0.109  0.0090 -1.6875  0.4642
13381TIP3    H261635   0.161   0.644   0.126  0.1609 -3.1087  3.2223
13382TIP3   OH261636   0.911   1.008  16.683  0.1975 -0.0616  0.2776
13382TIP3    H161637   0.940   0.988  16.771  1.3925 -2.0458 -0.4918
13382TIP3    H261638   0.824   0.967  16.676  0.5295 -0.7768  0.2496
13383TIP3   OH261639   1.243   4.912   1.887 -0.0897 -0.4005  0.2462
13383TIP3    H161640   1.150   4.914   1.907 -0.1134 -2.2439  0.4823
13383TIP3    H261641   1.286   4.922   1.972 -0.0935 -1.0167  0.3212
13384TIP3   OH261642   4.077   1.928  11.779  0.2402  0.3685 -0.0593
13384TIP3    H161643   4.006   1.950  11.718  0.9402 -1.7311 -1.7514
13384TIP3    H261644   4.044   1.957  11.864 -2.6688 -0.5101 -0.7424
13385TIP3   OH261645   3.841   5.598   0.074 -0.2721 -0.1183  0.6815
13385TIP3    H161646   3.778   5.642   0.017 -0.9625  0.9267  2.1837
13385TIP3    H261647   3.787   5.550   0.137  0.4753 -1.8426  0.0736
13386TIP3   OH261648   6.248   6.252   3.126 -0.3957  0.0433 -0.0805
13386TIP3    H161649   6.311   6.244   3.054 -1.2676  0.4364 -0.9005
13386TIP3    H261650   6.197   6.171   3.122 -0.0603 -0.2008  0.4782
13387TIP3   OH261651   4.585   6.654   6.192 -0.7530  0.3183 -0.3047
13387TIP3    H161652   4.602   6.645   6.098 -1.7482  0.4335 -0.5124
13387TIP3    H261653   4.533   6.734   6.199 -2.8525 -1.0017  0.0291
13388TIP3   OH261654   0.818   1.334  13.825  0.2655 -0.1621  0.2921
13388TIP3    H161655   0.823   1.345  13.920 -0.3550 -0.0401  0.3159
13388TIP3    H261656   0.897   1.284  13.803  0.1209 -0.7057  0.9503
13389TIP3   OH261657   3.207   4.622  11.315  0.3536 -0.1812 -0.7967
13389TIP3    H161658   3.236   4.539  11.277  0.8739 -0.0275 -0.7506
13389TIP3    H261659   3.114   4.627  11.294  0.0872 -1.2222  0.0032
13390TIP3   OH261660   5.335   0.922   2.847  0.2051 -0.1336 -0.3372
13390TIP3    H161661   5.400   0.856   2.867 -0.4134 -0.9747 -1.0314
13390TIP3    H261662   5.309   0.904   2.756 -2.5952 -1.2602  0.5844
13391TIP3   OH261663   5.928   5.330   5.570 -0.0614  0.4017  0.3625
13391TIP3    H161664   5.856   5.358   5.627  0.4014 -0.4454  1.4043
13391TIP3    H261665   5.913   5.376   5.488 -2.8298 -1.1648 -0.0957
13392TIP3   OH261666   3.522   2.212   0.089  0.2232 -0.1516 -0.5349
13392TIP3    H161667   3.428   2.198   0.078  0.0239  1.0767 -0.5086
13392TIP3    H261668   3.552   2.135   0.136 -1.1282  0.2890  1.1541
13393TIP3   OH261669   5.053   4.437  14.652 -0.1221 -0.2764  0.1961
13393TIP3    H161670   5.104   4.401  14.725  2.4139 -0.9416 -1.7832
13393TIP3    H261671   5.067   4.376  14.580  0.3498  2.0897 -1.8667
13394TIP3   OH261672   5.751   3.300  11.438 -0.3375  0.0478  0.3101
13394TIP3    H161673   5.782   3.264  11.521 -0.5834  0.2912  0.5093
13394TIP3    H261674   5.782   3.238  11.372 -2.3468 -1.5567  0.7788
13395TIP3   OH261675   6.622   0.323   6.391  0.4157  0.5498 -0.3380
13395TIP3    H161676   6.529   0.347   6.390  0.4772  0.9235 -2.5077
13395TIP3    H261677   6.645   0.321   6.484 -1.8466  0.0502  0.2911
13396TIP3   OH261678   0.193   2.863  14.508  0.4781  0.5416  0.5230
13396TIP3    H161679   0.216   2.781  14.552  0.1528  0.4992  0.6149
13396TIP3    H261680   0.277   2.899  14.480  0.6131  0.1250  0.3890
13397TIP3   OH261681   1.141   4.447   1.016  0.2899  0.3236  0.0324
13397TIP3    H161682   1.182   4.394   0.948  2.3836  1.2087  0.5420
13397TIP3    H261683   1.094   4.515   0.968  0.7019  0.2075 -0.5389
13398TIP3   OH261684   0.997   6.683  13.116  0.3533 -0.2963 -0.1379
13398TIP3    H161685   0.922   6.717  13.165  0.1315  1.2626 -1.4540
13398TIP3    H261686   0.964   6.675  13.026  1.9141  1.0839 -0.8841
13399TIP3   OH261687   0.851   5.239   3.009  0.0457 -0.2426  0.4659
13399TIP3    H161688   0.885   5.326   3.032  1.7048 -0.7238 -0.0257
13399TIP3    H261689   0.756   5.247   3.020  0.3388  0.9871  2.5274
13400TIP3   OH261690   1.975   5.663  14.007  0.5177  0.9163 -0.0679
13400TIP3    H161691   1.974   5.583  14.059 -0.5985  0.3010 -0.9886
13400TIP3    H261692   2.055   5.657  13.955  0.3177  0.2730 -0.3121
13401TIP3   OH261693   4.170   0.811   1.234 -0.1976  0.1079  0.5973
13401TIP3    H161694   4.128   0.730   1.264  0.3386  0.2338  1.7497
13401TIP3    H261695   4.112   0.880   1.265 -0.2775  0.1876  0.2625
13402TIP3   OH261696   5.434   5.111  11.209 -0.6283 -0.3852 -0.2425
13402TIP3    H161697   5.429   5.087  11.117  2.0748  0.9256 -0.8367
13402TIP3    H261698   5.440   5.028  11.256 -2.1186 -1.0702 -1.1970
13403TIP3   OH261699   6.618   1.369  15.968  0.3415 -0.0932  0.2587
13403TIP3    H161700   6.702   1.355  16.011  0.4357 -4.4382 -0.8384
13403TIP3    H261701   6.555   1.321  16.021 -0.9844  0.8398 -0.4011
13404TIP3   OH261702   3.330   3.764   4.079  0.2896  0.6236  0.4128
13404TIP3    H161703   3.263   3.756   4.011  0.7870  0.3917 -0.0551
13404TIP3    H261704   3.404   3.714   4.046  1.7628  3.1453 -0.4293
13405TIP3   OH261705   6.349   1.933  12.348 -0.4477  0.0966  0.1114
13405TIP3    H161706   6.260   1.965  12.360 -1.1541 -2.1374  1.3954
13405TIP3    H261707   6.380   1.976  12.268 -3.5766 -0.9585 -1.8360
13406TIP3   OH261708   0.897   1.037   2.262 -0.4893  0.0313 -0.3570
13406TIP3    H161709   0.972   1.076   2.308 -1.4709  0.8150  0.6302
13406TIP3    H261710   0.922   0.945   2.250  0.9295  0.4305 -0.7109
13407TIP3   OH261711   0.098   0.521   0.980  0.0440 -0.1527  0.1095
13407TIP3    H161712   0.087   0.596   1.038  0.7525 -0.3446  0.5020
13407TIP3    H261713   0.016   0.472   0.987 -0.6728  0.8883 -0.6152
13408TIP3   OH261714   4.894   0.486   0.715 -0.4224 -0.1349 -0.5527
13408TIP3    H161715   4.879   0.494   0.620  0.2498 -0.3843 -0.6855
13408TIP3    H261716   4.833   0.419   0.744  0.5439 -1.2889 -1.1185
13409TIP3   OH261717   2.328   2.799   2.974 -0.0792  0.4392  1.0243
13409TIP3    H161718   2.407   2.808   2.919 -0.1829  0.8526  0.9416
13409TIP3    H261719   2.344   2.720   3.025  0.2915  0.3902  0.8396
13410TIP3   OH261720   2.337   6.724   5.583 -0.3758 -0.7708 -0.2666
13410TIP3    H161721   2.341   6.683   5.497 -1.2497  0.3827 -0.8936
13410TIP3    H261722   2.248   6.759   5.588 -0.3536 -0.8554  1.1323
13411TIP3   OH261723   4.072   3.752  16.751 -0.2837 -0.1293  0.2056
13411TIP3    H161724   4.090   3.672  16.799 -0.2796 -0.5223 -0.4344
13411TIP3    H261725   4.157   3.778  16.716 -0.6203 -1.0423 -1.3869
13412TIP3   OH261726   3.793   3.779   5.651  0.2190 -0.2529 -0.1376
13412TIP3    H161727   3.870   3.743   5.694 -1.5775 -2.2447  1.6084
13412TIP3    H261728   3.760   3.845   5.712 -0.2173 -0.3873 -0.2237
13413TIP3   OH261729   1.608   4.863  14.236  0.1560  0.1162 -0.3617
13413TIP3    H161730   1.552   4.789  14.210  0.6721 -0.2159 -0.5464
13413TIP3    H261731   1.691   4.822  14.259  0.4640  0.6501 -0.5144
13414TIP3   OH261732   2.441   0.879  13.819 -0.0233  0.2814  0.4313
13414TIP3    H161733   2.421   0.862  13.911  0.2077  0.9772  0.6188
13414TIP3    H261734   2.386   0.954  13.796  1.0424  1.0994  0.4553
13415TIP3   OH261735   4.146   0.165   5.613  0.3942 -0.1762 -0.3360
13415TIP3    H161736   4.099   0.218   5.677 -0.2697 -1.2788  0.1195
13415TIP3    H261737   4.234   0.157   5.648  1.7110  3.7235 -2.2403
13416TIP3   OH261738   3.007   2.465  14.683  0.1027  0.1893  0.0956
13416TIP3    H161739   2.944   2.528  14.648 -0.6714 -1.1342 -0.9861
13416TIP3    H261740   2.954   2.388  14.706  0.9984 -0.0398  1.5528
13417TIP3   OH261741   4.467   6.042  17.133  0.0713  0.0292 -0.2293
13417TIP3    H161742   4.375   6.017  17.123 -0.3618  1.2412  0.5013
13417TIP3    H261743   4.516   5.971  17.092 -1.1947 -0.5684 -0.7511
13418TIP3   OH261744   4.286   0.223   3.745 -0.2526 -0.1150 -0.1485
13418TIP3    H161745   4.338   0.183   3.674 -0.9914 -0.2578 -0.6166
13418TIP3    H261746   4.352   0.257   3.806  0.3969 -0.3178 -0.7188
13419TIP3   OH261747   3.922   2.576  15.371  0.3662  0.0880  0.5555
13419TIP3    H161748   3.899   2.545  15.459  0.2529 -0.1549  0.4427
13419TIP3    H261749   3.920   2.497  15.317 -1.4116  0.5081 -0.0505
13420TIP3   OH261750   2.945   1.436  17.061 -0.6334 -0.3126  0.2987
13420TIP3    H161751   3.034   1.406  17.082 -0.2721  0.1225 -0.5939
13420TIP3    H261752   2.899   1.432  17.145  0.0034 -1.3074  0.6225
13421TIP3   OH261753   3.353   0.919  12.784  0.0894  0.0040  0.2016
13421TIP3    H161754   3.388   0.978  12.850  0.9561 -0.3065  0.0217
13421TIP3    H261755   3.328   0.977  12.711  1.8925  0.0836 -0.3954
13422TIP3   OH261756   2.669   5.151  13.437  0.2497 -0.1733 -0.2883
13422TIP3    H161757   2.587   5.147  13.485  0.0712 -0.0425 -0.5782
13422TIP3    H261758   2.651   5.108  13.354  1.0593 -2.0269  0.4397
13423TIP3   OH261759   1.455   6.689  15.659 -0.4563 -0.0862  0.3950
13423TIP3    H161760   1.362   6.691  15.639 -0.2472  0.4567 -0.5857
13423TIP3    H261761   1.459   6.668  15.752 -1.6272  1.7615  0.9182
13424TIP3   OH261762   2.799   4.034  14.889  0.8066 -0.3038 -0.6061
13424TIP3    H161763   2.889   4.064  14.873  1.2504 -0.1043  1.9682
13424TIP3    H261764   2.801   3.998  14.977 -1.9664  0.9756  0.0676
13425TIP3   OH261765   4.348   2.997  12.900 -0.4660  0.3295 -0.1183
13425TIP3    H161766   4.324   2.990  12.992 -0.6398  0.2061 -0.1733
13425TIP3    H261767   4.386   3.084  12.892  0.0743  0.1269  0.1890
13426TIP3   OH261768   2.170   0.742   6.233 -0.5386  0.0848  0.2937
13426TIP3    H161769   2.147   0.775   6.319 -0.8006  1.4224 -0.2629
13426TIP3    H261770   2.097   0.686   6.207 -1.3782  1.2140  0.1535
13427TIP3   OH261771   5.882   6.658   1.904  0.2861 -0.3176  0.3299
13427TIP3    H161772   5.838   6.735   1.940 -0.5408 -0.4889 -0.2705
13427TIP3    H261773   5.967   6.689   1.875 -0.4499  0.6370 -0.9092
13428TIP3   OH261774   0.441   4.662  12.749 -0.1268  0.1398 -0.5140
13428TIP3    H161775   0.503   4.688  12.681 -0.2332  0.0456 -0.6471
13428TIP3    H261776   0.359   4.704  12.724  0.4721  2.3868  1.0152
13429TIP3   OH261777   3.292   1.007  15.762  0.4716 -0.0003 -0.3656
13429TIP3    H161778   3.236   1.016  15.839 -1.3925 -2.0945 -1.3444
13429TIP3    H261779   3.378   0.985  15.798 -0.6825 -2.5120  1.2300
13430TIP3   OH261780   2.084   4.461   4.914 -0.1681 -0.3123 -0.1384
13430TIP3    H161781   2.164   4.511   4.900 -0.5413  0.7250  1.2630
13430TIP3    H261782   2.092   4.426   5.003 -1.5968  0.4836  0.3480
13431TIP3   OH261783   4.232   3.647  14.897 -0.4764  0.0893 -0.1593
13431TIP3    H161784   4.306   3.640  14.836  0.7798  1.2389  1.1705
13431TIP3    H261785   4.205   3.739  14.892  0.2015  0.4144  1.6061
13432TIP3   OH261786   4.132   6.499   2.003  0.6926  0.0879  0.3912
13432TIP3    H161787   4.213   6.548   1.989 -0.5547  1.7564 -1.6713
13432TIP3    H261788   4.109   6.465   1.917  0.1322 -1.9797  1.3000
13433TIP3   OH261789   3.923   5.094  16.665 -0.4182 -0.2545 -0.3161
13433TIP3    H161790   3.991   5.137  16.716 -1.7141  0.2042  1.1044
13433TIP3    H261791   3.903   5.156  16.594  0.1249 -0.0632 -0.3008
13434TIP3   OH261792   0.534   2.271  13.660 -0.3528  0.2657  0.3631
13434TIP3    H161793   0.579   2.202  13.611  0.6563  1.1553 -0.0004
13434TIP3    H261794   0.596   2.293  13.730 -1.2640 -0.1505  1.3244
13435TIP3   OH261795   2.979   0.032  14.699 -0.3742 -0.2168  0.1055
13435TIP3    H161796   3.005   0.114  14.657  1.4978  0.1364  1.7853
13435TIP3    H261797   2.890   0.048  14.730  0.0699  1.3317  0.6909
13436TIP3   OH261798   0.633   4.823   1.223  0.1735 -0.0332 -0.1939
13436TIP3    H161799   0.693   4.824   1.149 -0.2976  0.9509 -0.5801
13436TIP3    H261800   0.689   4.841   1.299  0.3187  1.3644 -0.6061
13437TIP3   OH261801   3.092   6.119   5.157  0.1070  0.0917 -1.3112
13437TIP3    H161802   3.124   6.179   5.089  0.4381 -0.4014 -1.6011
13437TIP3    H261803   2.997   6.119   5.146  0.2417 -1.2224 -2.8638
13438TIP3   OH261804   0.734   5.263  17.115  0.4598  0.3529 -0.1001
13438TIP3    H161805   0.777   5.258  17.030 -2.4439  1.5537 -1.7677
13438TIP3    H261806   0.791   5.212  17.173  2.5647 -0.5004 -2.6926
13439TIP3   OH261807   4.650   3.784  12.283 -0.4670 -0.1113 -0.1750
13439TIP3    H161808   4.626   3.833  12.362 -2.6992  0.5093 -1.1694
13439TIP3    H261809   4.592   3.817  12.215  1.1680 -0.8673 -2.0368
13440TIP3   OH261810   1.542   0.901   4.317  0.3115 -1.0117  0.6810
13440TIP3    H161811   1.626   0.885   4.275  1.2902  0.2442  2.0705
13440TIP3    H261812   1.489   0.825   4.294  1.3717 -1.2056 -1.3099
13441TIP3   OH261813   5.304   0.524  11.588  0.2898  0.3494  0.1125
13441TIP3    H161814   5.306   0.614  11.557 -0.4144  0.8289  1.3617
13441TIP3    H261815   5.216   0.513  11.624  0.7336 -0.4714  0.9947
13442TIP3   OH261816   3.812   1.241  11.593  0.2606  0.3720 -0.1736
13442TIP3    H161817   3.855   1.269  11.511  1.1074 -0.2863  0.0252
13442TIP3    H261818   3.859   1.288  11.662 -0.3287  0.7815 -0.0489
13443TIP3   OH261819   2.859   0.345   1.116  0.3031  0.1669 -0.3648
13443TIP3    H161820   2.812   0.315   1.194 -0.9501 -0.2334 -1.2407
13443TIP3    H261821   2.898   0.265   1.079  0.7728  0.3313 -0.2239
13444TIP3   OH261822   6.063   2.303   2.840  0.0966  0.3934  0.1536
13444TIP3    H161823   6.037   2.393   2.860 -0.0648  0.0033  1.8576
13444TIP3    H261824   6.093   2.268   2.924 -1.1854 -1.5886 -0.1634
13445TIP3   OH261825   1.365   4.731  13.137  0.5302  0.6508  0.1755
13445TIP3    H161826   1.270   4.727  13.124  0.4929  0.9204  0.3686
13445TIP3    H261827   1.392   4.639  13.140  0.3662  0.5713 -0.5547
13446TIP3   OH261828   0.918   3.639  16.608 -0.4310  0.3922  0.9172
13446TIP3    H161829   0.911   3.602  16.520 -0.5755 -1.5582  1.6967
13446TIP3    H261830   0.984   3.585  16.652 -2.0742 -0.2293  2.7424
13447TIP3   OH261831   5.770   3.002   0.349  0.0014  0.6729  0.3188
13447TIP3    H161832   5.777   2.992   0.444 -1.9570 -0.3570  0.3918
13447TIP3    H261833   5.703   2.939   0.323  1.4213  0.0034 -1.9472
13448TIP3   OH261834   4.682   4.191   0.585 -0.2060  0.5735  0.0056
13448TIP3    H161835   4.717   4.258   0.644 -1.1058  1.1825 -0.1347
13448TIP3    H261836   4.619   4.238   0.530 -1.3082 -0.5022  0.3109
13449TIP3   OH261837   5.926   0.508  12.869  0.0400 -0.3139  0.5462
13449TIP3    H161838   6.000   0.549  12.914  0.1685 -0.9026  0.8911
13449TIP3    H261839   5.941   0.527  12.776  1.1321 -1.1948  0.5127
13450TIP3   OH261840   3.057   4.436  16.272  0.4753  0.3072 -0.0153
13450TIP3    H161841   2.994   4.464  16.207  0.3546 -1.5813 -0.7841
13450TIP3    H261842   3.005   4.392  16.339  0.9453 -1.9877 -1.0509
13451TIP3   OH261843   5.249   2.695   6.368  0.3411  0.7885  0.2235
13451TIP3    H161844   5.294   2.628   6.420  0.6020  1.3967  0.8183
13451TIP3    H261845   5.207   2.751   6.434 -0.3618  0.8658 -0.2875
13452TIP3   OH261846   3.388   2.161  16.335  0.2365  0.3051  0.4833
13452TIP3    H161847   3.365   2.111  16.413  1.0192 -0.0674  0.4850
13452TIP3    H261848   3.306   2.201  16.307 -0.0548  0.4279  1.4865
13453TIP3   OH261849   2.775   3.374   1.525 -0.3576 -0.0277 -0.5244
13453TIP3    H161850   2.815   3.297   1.484 -2.4863 -1.5503  0.0750
13453TIP3    H261851   2.732   3.419   1.452  1.7214  1.2246 -1.0484
13454TIP3   OH261852   1.335   0.751   1.701  0.3344  0.3443 -0.1213
13454TIP3    H161853   1.346   0.656   1.704 -0.3805  0.2067 -1.3303
13454TIP3    H261854   1.398   0.780   1.635  0.6499  0.7437  0.3420
13455TIP3   OH261855   6.797   4.054   3.434 -0.3680  0.0867  0.1882
13455TIP3    H161856   6.749   4.078   3.513 -0.7435 -0.7154  0.2198
13455TIP3    H261857   6.773   3.962   3.418 -0.6823  0.3748 -1.1347
13456TIP3   OH261858   4.823   1.041  12.400  0.3557  0.2288  0.2530
13456TIP3    H161859   4.758   1.022  12.333 -0.7224  1.4396  0.9228
13456TIP3    H261860   4.773   1.045  12.482  1.3378  0.7003  0.8504
13457TIP3   OH261861   1.706   0.014   5.301  0.3568 -0.0500  0.5986
13457TIP3    H161862   1.682   0.105   5.287  1.6291 -0.1361 -3.5592
13457TIP3    H261863   1.635  -0.036   5.259  0.7291 -0.8742  0.9213
13458TIP3   OH261864   5.378   2.226  11.716  0.1732  0.4497 -0.1502
13458TIP3    H161865   5.460   2.259  11.679  0.9144 -2.0083 -0.9202
13458TIP3    H261866   5.342   2.171  11.646 -1.5037  0.4658  0.6595
13459TIP3   OH261867   4.932   1.421  12.738  0.0880  0.1535  0.2323
13459TIP3    H161868   4.985   1.362  12.684  1.9520  0.8019  1.2550
13459TIP3    H261869   4.945   1.390  12.828 -0.7991  0.7198  0.5702
13460TIP3   OH261870   4.585   0.915  10.565 -0.4515  0.0566  0.6827
13460TIP3    H161871   4.589   0.999  10.611 -0.3501  0.6644 -0.4057
13460TIP3    H261872   4.498   0.914  10.525 -0.0667  0.1090 -0.1637
13461TIP3   OH261873   0.950   1.659   1.729 -0.7530  0.1685 -0.0487
13461TIP3    H161874   0.906   1.727   1.781 -2.0687 -0.6642 -0.0157
13461TIP3    H261875   1.042   1.664   1.755 -0.8830  1.6897  0.2109
13462TIP3   OH261876   0.154   5.688  15.668 -0.3916  0.4285 -0.4155
13462TIP3    H161877   0.132   5.766  15.720 -0.6645  0.7151 -0.9574
13462TIP3    H261878   0.250   5.690  15.662 -0.1542 -0.8185  1.9447
13463TIP3   OH261879   2.860   5.843   0.349  0.3459  0.3887  0.6093
13463TIP3    H161880   2.775   5.886   0.333 -0.0631  0.0934  1.8691
13463TIP3    H261881   2.903   5.843   0.264 -2.0871 -2.0159 -0.7982
13464TIP3   OH261882   2.848   2.270  10.338  0.6433  0.3872  0.1822
13464TIP3    H161883   2.889   2.183  10.334 -0.5868 -0.2069 -0.0153
13464TIP3    H261884   2.755   2.253  10.323  0.3205  1.7003  0.6027
13465TIP3   OH261885   1.730   5.321  13.916 -0.0111  0.6098 -0.8250
13465TIP3    H161886   1.675   5.245  13.898  0.1884  0.7805 -2.3065
13465TIP3    H261887   1.733   5.326  14.011 -0.5901 -0.8260 -0.6947
13466TIP3   OH261888   0.254   6.159   1.549 -0.3126  0.1186  0.6169
13466TIP3    H161889   0.257   6.130   1.458  0.1699  0.0356  0.6559
13466TIP3    H261890   0.269   6.079   1.600  2.3718  0.5736  0.7056
13467TIP3   OH261891   3.087   3.901  16.885 -0.0233  0.1123  0.0492
13467TIP3    H161892   3.151   3.951  16.935 -0.7650  1.5641 -0.3912
13467TIP3    H261893   3.060   3.960  16.815  0.0178 -1.3966 -1.2849
13468TIP3   OH261894   5.543   0.781   1.318  0.1551 -0.3812 -0.2807
13468TIP3    H161895   5.622   0.836   1.320  0.8990 -1.4285  0.2693
13468TIP3    H261896   5.503   0.793   1.404  0.3649 -0.7594 -0.1292
13469TIP3   OH261897   2.596   1.553   0.055 -0.1257  0.5055  0.0988
13469TIP3    H161898   2.544   1.604  -0.006 -0.7231  0.4266  0.5248
13469TIP3    H261899   2.611   1.470   0.011 -1.7161 -0.0736  0.5599
13470TIP3   OH261900   6.673   1.548   0.985 -0.4773  0.4840 -0.7333
13470TIP3    H161901   6.656   1.575   1.075 -0.3534 -1.2350 -0.1453
13470TIP3    H261902   6.747   1.601   0.957  0.1777  0.2867  0.5623
13471TIP3   OH261903   2.119   0.333   2.681  0.0874  0.1179  0.5346
13471TIP3    H161904   2.063   0.407   2.704 -1.3503 -0.3855 -1.2029
13471TIP3    H261905   2.073   0.256   2.715  0.3957 -0.1987  0.2468
13472TIP3   OH261906   4.564   4.353  10.926  0.4817 -0.4928  0.2869
13472TIP3    H161907   4.542   4.262  10.946 -1.7490 -0.5572 -1.9765
13472TIP3    H261908   4.644   4.347  10.874  1.9558 -0.8625  2.4694
13473TIP3   OH261909   2.550   4.065  14.321  0.0019  0.1822 -0.0289
13473TIP3    H161910   2.462   4.045  14.352 -0.9143  0.9665 -1.9533
13473TIP3    H261911   2.566   4.155  14.349  1.0283 -0.5658  1.9871
13474TIP3   OH261912   4.397   6.552  16.339 -0.6959 -0.1963 -0.4776
13474TIP3    H161913   4.319   6.539  16.393 -0.3677  1.1172  0.3707
13474TIP3    H261914   4.463   6.496  16.379 -0.6185  0.3268  0.1458
13475TIP3   OH261915   5.816   5.238   3.724 -0.2416 -0.2430  0.1151
13475TIP3    H161916   5.735   5.204   3.686  0.7545 -2.4867 -0.1881
13475TIP3    H261917   5.804   5.333   3.727 -2.2949 -0.4027 -1.2629
13476TIP3   OH261918   6.614   5.283   2.052 -0.0747  0.8992 -0.0606
13476TIP3    H161919   6.572   5.198   2.072 -0.1290  0.8571 -0.3563
13476TIP3    H261920   6.599   5.335   2.131  2.0637 -0.1603  1.1141
13477TIP3   OH261921   1.791   3.276   3.169  0.4154 -0.4931 -0.0026
13477TIP3    H161922   1.834   3.216   3.108 -0.0739 -1.3236  0.4580
13477TIP3    H261923   1.698   3.270   3.148  0.4373  0.7912 -0.5457
13478TIP3   OH261924   6.278   1.598  16.799 -0.0752  0.1275 -0.1110
13478TIP3    H161925   6.212   1.530  16.783 -0.7482  0.7369  0.0203
13478TIP3    H261926   6.360   1.550  16.808 -0.2841 -0.5509 -1.5266
13479TIP3   OH261927   4.708   3.621  16.528  0.4632 -0.1380  0.3043
13479TIP3    H161928   4.762   3.602  16.605  1.4236  0.5502 -0.1812
13479TIP3    H261929   4.713   3.541  16.476  1.2269  0.0029  0.1472
13480TIP3   OH261930   4.055   5.403   3.775  0.1189  0.4872  0.2727
13480TIP3    H161931   3.981   5.443   3.820 -0.8863  0.2407 -1.0917
13480TIP3    H261932   4.034   5.412   3.682  1.9581  0.6814 -0.1624
13481TIP3   OH261933   1.740   5.859  12.045 -0.5119  0.5479 -0.0424
13481TIP3    H161934   1.789   5.898  12.117  0.5372  0.6539 -0.7941
13481TIP3    H261935   1.730   5.930  11.982 -1.4695  0.4700  0.0072
13482TIP3   OH261936   2.268   2.757  14.653 -0.5547 -0.1267  0.2189
13482TIP3    H161937   2.218   2.679  14.679  1.7463 -1.6470  0.3658
13482TIP3    H261938   2.224   2.829  14.698 -2.4432 -1.4001  0.5365
13483TIP3   OH261939   4.095   0.652  13.611 -0.1402 -0.1691 -0.2936
13483TIP3    H161940   4.017   0.604  13.641  0.1342 -1.1393 -1.0832
13483TIP3    H261941   4.169   0.597  13.640  0.1713 -0.3635 -1.4319
13484TIP3   OH261942   0.633   6.105   6.568 -0.1915  0.4774  0.3216
13484TIP3    H161943   0.544   6.137   6.583  0.0103  1.7846 -1.0359
13484TIP3    H261944   0.637   6.022   6.615 -2.1676  0.3153  0.2708
13485TIP3   OH261945   4.029   1.773  15.296 -0.7739 -0.4388  0.0347
13485TIP3    H161946   4.025   1.866  15.277  1.1290 -0.2241  0.4965
13485TIP3    H261947   4.016   1.731  15.211 -0.7751  0.2566 -0.3177
13486TIP3   OH261948   1.703   0.066  12.790 -0.4520  0.1801 -0.0132
13486TIP3    H161949   1.722   0.022  12.706  1.8496 -0.5546  0.8079
13486TIP3    H261950   1.649   0.003  12.838 -0.2190 -0.2039 -0.2443
13487TIP3   OH261951   6.716   1.331   5.288  0.0443 -0.1990 -0.6856
13487TIP3    H161952   6.622   1.344   5.281  0.4980  3.4969 -1.9661
13487TIP3    H261953   6.732   1.321   5.382 -1.4835  0.3815 -0.3460
13488TIP3   OH261954   2.546   4.632   3.831 -0.0295  0.3313 -0.0584
13488TIP3    H161955   2.492   4.623   3.910  1.1803  0.1263  0.7636
13488TIP3    H261956   2.622   4.682   3.859  1.3897 -1.4218 -0.5929
13489TIP3   OH261957   5.794   2.168  15.506  0.1077 -0.4560 -0.4673
13489TIP3    H161958   5.773   2.080  15.476 -0.7573  0.0417 -1.3942
13489TIP3    H261959   5.842   2.155  15.588 -1.6955 -1.7362  0.4622
13490TIP3   OH261960   0.817   1.615   1.154  0.0132  0.5234  0.3745
13490TIP3    H161961   0.911   1.630   1.147  0.0216  0.4296  0.2777
13490TIP3    H261962   0.777   1.683   1.100 -0.1067  2.2546  2.4800
13491TIP3   OH261963   3.454   3.940   5.728  1.2496 -0.4185  0.0250
13491TIP3    H161964   3.476   3.958   5.820  2.4556 -0.4539 -0.2316
13491TIP3    H261965   3.427   4.025   5.693  0.0650 -0.5495  0.5863
13492TIP3   OH261966   6.074   6.311  13.790  0.0222  0.0227 -0.0387
13492TIP3    H161967   6.096   6.267  13.872  0.7518  1.0820  0.3607
13492TIP3    H261968   6.110   6.254  13.722  0.0063 -0.5317  0.4100
13493TIP3   OH261969   3.449   4.804   4.604 -0.3850  0.4076 -0.5239
13493TIP3    H161970   3.388   4.776   4.536  0.9496 -1.6205 -0.9403
13493TIP3    H261971   3.429   4.749   4.679  1.3788 -0.8554 -0.9117
13494TIP3   OH261972   6.622   1.106   5.887 -0.0162 -0.1062 -0.0867
13494TIP3    H161973   6.604   1.182   5.942  0.5230  0.1486 -0.2481
13494TIP3    H261974   6.715   1.087   5.902 -0.1044 -0.6343 -0.1704
13495TIP3   OH261975   0.222   1.687   6.005  0.2930  0.1945  0.2194
13495TIP3    H161976   0.164   1.612   6.019  0.1027  0.5657  1.5565
13495TIP3    H261977   0.256   1.708   6.091  1.0795  1.0717 -0.2793
13496TIP3   OH261978   5.295   1.317  16.397  0.3165  0.1602 -0.4069
13496TIP3    H161979   5.228   1.334  16.464  1.6088 -0.5039  1.1170
13496TIP3    H261980   5.371   1.368  16.425  0.7139  0.2664 -1.6556
13497TIP3   OH261981   4.477   5.472  15.379 -0.2384 -0.0238  0.0274
13497TIP3    H161982   4.455   5.390  15.424  0.5123 -0.3149 -0.1179
13497TIP3    H261983   4.445   5.459  15.289 -0.6902  0.0983  0.1681
13498TIP3   OH261984   1.913   0.000   5.847  0.0822 -0.1276  0.2008
13498TIP3    H161985   1.865   0.082   5.859 -1.4531 -0.8366 -0.8593
13498TIP3    H261986   1.978   0.020   5.780 -0.1892  0.2474  0.0482
13499TIP3   OH261987   3.743   4.805  15.428  0.3221 -0.0276 -0.5170
13499TIP3    H161988   3.697   4.799  15.512  0.1851  0.1020 -0.5824
13499TIP3    H261989   3.835   4.790  15.449  0.1613 -1.0478 -0.4824
13500TIP3   OH261990   0.146   1.759   1.849  1.0379  0.5089  0.2431
13500TIP3    H161991   0.119   1.787   1.937 -1.3863  0.1605 -0.3282
13500TIP3    H261992   0.206   1.828   1.819  0.9759  1.2364  1.7050
13501TIP3   OH261993   3.692   6.309   3.166  1.0196  0.9216 -0.4098
13501TIP3    H161994   3.638   6.304   3.245  3.1991 -3.6402  1.1389
13501TIP3    H261995   3.677   6.226   3.121  4.5114  0.6500 -1.3449
13502TIP3   OH261996   0.310   0.421  16.397 -0.1485 -0.1106 -0.0678
13502TIP3    H161997   0.333   0.370  16.320 -2.6990  0.5486 -1.3825
13502TIP3    H261998   0.369   0.497  16.394  1.0480 -1.0309 -0.2711
13503TIP3   OH261999   6.356   4.054  13.769 -0.1444 -0.1273  0.5082
13503TIP3    H162000   6.304   4.050  13.688  1.4087  0.9875 -0.6230
13503TIP3    H262001   6.387   4.144  13.772  0.9257 -0.5153  1.6496
13504TIP3   OH262002   1.941   3.065  16.952 -0.2257  0.1758  0.0850
13504TIP3    H162003   1.947   3.123  17.028  1.7972  1.3301 -0.8790
13504TIP3    H262004   2.005   2.996  16.969  0.7782  0.8510 -0.8714
13505TIP3   OH262005   5.276   6.331   1.937 -0.0504  0.4199  0.3248
13505TIP3    H162006   5.237   6.400   1.990 -0.8813  0.4232 -0.2685
13505TIP3    H262007   5.206   6.266   1.926  0.3914 -0.0106 -0.0100
13506TIP3   OH262008   6.567   5.970  15.416 -0.1916  0.0265  0.0039
13506TIP3    H162009   6.596   6.027  15.345  1.4858 -0.4802  0.2446
13506TIP3    H262010   6.493   5.921  15.379  0.9120 -0.5322 -1.5284
13507TIP3   OH262011   4.534   1.979  16.092 -0.3730  0.1098  0.3092
13507TIP3    H162012   4.552   1.916  16.161  0.6709  0.5711  0.4839
13507TIP3    H262013   4.547   2.064  16.134  0.0887  0.3994 -0.3954
13508TIP3   OH262014   0.998   2.247  12.023 -0.2166  0.2840 -0.2674
13508TIP3    H162015   1.092   2.248  12.040 -0.0991 -0.2189 -0.8633
13508TIP3    H262016   0.963   2.184  12.087 -0.3591  1.5123  0.9179
13509TIP3   OH262017   2.875   4.904  12.883 -0.2557  0.3214 -0.3685
13509TIP3    H162018   2.898   4.814  12.905 -1.2426  0.1359 -0.0642
13509TIP3    H262019   2.892   4.911  12.789  0.4105  0.0090 -0.2757
13510TIP3   OH262020   5.238   6.778   1.792  0.1435  0.0856 -0.1608
13510TIP3    H162021   5.233   6.744   1.703 -0.1749  0.8667 -0.4524
13510TIP3    H262022   5.151   6.763   1.829  0.4834 -0.8879  0.2735
13511TIP3   OH262023   1.311   6.403   2.392  0.4246 -0.0754  0.0930
13511TIP3    H162024   1.330   6.496   2.399  0.4727 -0.1546  1.1880
13511TIP3    H262025   1.219   6.395   2.418  0.2813 -0.2889 -0.4497
13512TIP3   OH262026   5.843   3.766  10.542  0.6399 -0.1017 -0.1551
13512TIP3    H162027   5.812   3.745  10.630 -0.4971  0.5096 -0.3980
13512TIP3    H262028   5.929   3.807  10.556 -0.6978  2.5762  0.9265
13513TIP3   OH262029   1.398   2.457  14.325  0.6355  0.2911  0.3638
13513TIP3    H162030   1.326   2.460  14.388  0.4556 -1.4374  0.2910
13513TIP3    H262031   1.378   2.382  14.270  1.4961  0.9656 -0.9158
13514TIP3   OH262032   6.659   2.654   2.869 -0.5833 -0.1743 -0.4935
13514TIP3    H162033   6.637   2.565   2.840 -0.5213 -0.7388  1.0553
13514TIP3    H262034   6.745   2.672   2.831 -0.8317 -0.5770 -1.2427
13515TIP3   OH262035   5.933   0.048   2.206 -0.4412 -0.0654  0.3705
13515TIP3    H162036   5.859  -0.012   2.213  0.2858 -1.1072 -0.5028
13515TIP3    H262037   5.917   0.097   2.125 -0.7531  0.5579  0.7959
13516TIP3   OH262038   1.439   0.383  11.680  0.0416  0.3974 -0.1829
13516TIP3    H162039   1.475   0.299  11.710  1.3449  0.6080 -1.0817
13516TIP3    H262040   1.369   0.402  11.742 -1.8740 -2.4859 -1.2612
13517TIP3   OH262041   2.566   1.901  16.617 -0.1037  0.0699 -0.2174
13517TIP3    H162042   2.580   1.817  16.661 -1.5091 -0.0105  0.1272
13517TIP3    H262043   2.514   1.879  16.540 -2.6837  0.8462  1.1851
13518TIP3   OH262044   0.974   6.431   0.207 -0.1025  0.5964 -0.0410
13518TIP3    H162045   1.028   6.448   0.284 -2.3366  0.0831  1.7468
13518TIP3    H262046   0.897   6.486   0.219 -1.5758 -1.1997 -0.6620
13519TIP3   OH262047   1.471   4.840   5.289 -0.2001  0.6266  0.2518
13519TIP3    H162048   1.484   4.917   5.344 -0.0663 -0.0433  1.1930
13519TIP3    H262049   1.386   4.805   5.318  0.3561 -0.3228  0.7897
13520TIP3   OH262050   1.740   3.870  14.603  0.3424  0.1594  0.5773
13520TIP3    H162051   1.830   3.837  14.609 -0.3595 -1.9231  0.2017
13520TIP3    H262052   1.751   3.962  14.577  2.3177 -0.5448 -1.4110
13521TIP3   OH262053   4.988   6.252   4.718 -0.1829  0.3125 -0.0035
13521TIP3    H162054   4.981   6.258   4.622 -1.2820  0.9143  0.0850
13521TIP3    H262055   4.898   6.268   4.749 -0.0108 -0.7126  1.0993
13522TIP3   OH262056   1.160   5.754  11.643  0.2226 -0.1848  0.3997
13522TIP3    H162057   1.151   5.792  11.555  2.7495  0.1731  0.2104
13522TIP3    H262058   1.104   5.676  11.642 -0.9808  0.6553 -0.9898
13523TIP3   OH262059   3.089   6.667  12.080 -0.0382 -0.5668  0.0503
13523TIP3    H162060   2.993   6.674  12.073 -0.0519  0.0496  0.6605
13523TIP3    H262061   3.111   6.589  12.030 -1.0066 -1.4908  0.9868
13524TIP3   OH262062   2.264   0.865  12.757  0.2987 -0.0135 -0.1444
13524TIP3    H162063   2.350   0.871  12.799  0.4105 -0.8663 -0.2276
13524TIP3    H262064   2.282   0.834  12.669 -0.2702 -3.8400  0.9057
13525TIP3   OH262065   2.904   3.113  13.434  0.2563  0.1708  0.7503
13525TIP3    H162066   2.956   3.060  13.374 -0.4134  0.3127  0.0093
13525TIP3    H262067   2.876   3.188  13.380  1.1873  1.2777  1.7720
13526TIP3   OH262068   6.202   0.350   5.152  0.3643 -0.0255 -0.0521
13526TIP3    H162069   6.212   0.443   5.170  0.7613 -0.1030  0.1579
13526TIP3    H262070   6.197   0.309   5.239  1.6394 -0.3351 -0.1050
13527TIP3   OH262071   2.469   5.228   4.608 -0.1316 -0.4597 -0.0785
13527TIP3    H162072   2.431   5.208   4.694  1.0265  0.4127  0.6731
13527TIP3    H262073   2.428   5.310   4.582 -0.5274 -0.7559 -0.3886
13528TIP3   OH262074   4.357   0.249   5.750  0.8854 -0.2239 -0.1681
13528TIP3    H162075   4.370   0.329   5.801  0.3789 -0.6625  0.6752
13528TIP3    H262076   4.425   0.190   5.780  0.2105 -0.6989  0.4775
13529TIP3   OH262077   3.565   3.852   3.537 -0.5154 -0.0677  0.4927
13529TIP3    H162078   3.646   3.881   3.578 -0.1924 -1.4989  0.9211
13529TIP3    H262079   3.500   3.917   3.564  0.6818  1.7047 -0.7672
13530TIP3   OH262080   3.829   3.953   3.546  0.0372 -0.0687  1.0420
13530TIP3    H162081   3.799   4.042   3.526  0.9577  0.1983  0.7728
13530TIP3    H262082   3.898   3.937   3.481 -0.3772 -1.1275  0.8512
13531TIP3   OH262083   1.997   0.721  16.051 -0.0083  0.5211  0.0966
13531TIP3    H162084   2.082   0.678  16.064 -0.3499 -0.2116 -0.0219
13531TIP3    H262085   1.934   0.650  16.057 -0.4585  0.6842 -1.9183
13532TIP3   OH262086   2.036   0.921   3.230 -0.1030  0.2886 -0.0772
13532TIP3    H162087   2.122   0.883   3.250  0.8399  2.0562 -0.5290
13532TIP3    H262088   2.054   0.988   3.164 -1.7401  1.1306  0.2739
13533TIP3   OH262089   1.056   2.566   2.051 -0.0534 -0.0696  0.1921
13533TIP3    H162090   1.020   2.582   1.963  1.4751 -0.2482 -0.4868
13533TIP3    H262091   1.062   2.654   2.090  0.4713  0.1534 -0.3737
13534TIP3   OH262092   4.122   5.479  14.963 -0.0076  0.2883  0.1235
13534TIP3    H162093   4.041   5.442  14.999  0.3220  0.5472  1.1360
13534TIP3    H262094   4.156   5.409  14.907  0.1734 -0.6525  1.3639
13535TIP3   OH262095   2.735   0.570  15.333  0.1530 -0.2288  0.0657
13535TIP3    H162096   2.816   0.590  15.285  0.0129 -0.2760 -0.1918
13535TIP3    H262097   2.667   0.568  15.265 -0.2811  1.0622  0.4315
13536TIP3   OH262098   6.648   5.104   5.620 -0.2415  0.4371 -0.3039
13536TIP3    H162099   6.726   5.112   5.674 -0.4186  0.4013 -0.0393
13536TIP3    H262100   6.613   5.018   5.642  0.9806 -0.6220 -2.2142
13537TIP3   OH262101   0.622   4.597  12.960  0.4640  0.2190 -0.1247
13537TIP3    H162102   0.550   4.592  12.896 -0.3990  1.9857  0.6481
13537TIP3    H262103   0.601   4.528  13.023 -1.4176  1.6294  0.8866
13538TIP3   OH262104   2.156   5.323  16.623  0.4515  0.4070  0.3369
13538TIP3    H162105   2.199   5.245  16.588  1.7457  1.4617 -0.5105
13538TIP3    H262106   2.064   5.314  16.598  0.6145 -0.7678  0.1313
13539TIP3   OH262107   1.131   3.681   4.245  0.7428 -0.2481  0.0140
13539TIP3    H162108   1.166   3.630   4.171 -0.1721  1.1988 -1.5061
13539TIP3    H262109   1.088   3.616   4.301  1.6117 -1.4161 -0.6186
13540TIP3   OH262110   2.638   2.572  14.038 -0.3405  0.5215 -0.4331
13540TIP3    H162111   2.549   2.536  14.036 -0.0503 -0.5151  2.1438
13540TIP3    H262112   2.693   2.501  14.006 -0.2713  0.5576 -0.3929
13541TIP3   OH262113   3.483   3.465   0.151  0.0141  0.1874 -0.1759
13541TIP3    H162114   3.555   3.426   0.200 -0.5914 -0.1366  0.4678
13541TIP3    H262115   3.412   3.474   0.215 -0.2334  1.3125 -0.5836
13542TIP3   OH262116   0.208   0.998  15.304  0.1277  0.1810  0.2620
13542TIP3    H162117   0.150   0.925  15.283 -1.0413  0.9636  0.6621
13542TIP3    H262118   0.167   1.040  15.379 -0.2298  2.3198 -1.0369
13543TIP3   OH262119   6.527   5.258  16.205 -0.5583  0.8273  0.2251
13543TIP3    H162120   6.518   5.352  16.185 -1.7395  0.6804  0.0073
13543TIP3    H262121   6.496   5.214  16.127 -1.2843  0.2572  0.8149
13544TIP3   OH262122   5.941   3.973   0.938  0.5406 -0.2922  0.4539
13544TIP3    H162123   5.975   3.984   1.027  1.9273  1.4857 -0.2323
13544TIP3    H262124   5.847   3.958   0.949  0.8426 -1.0856  2.2382
13545TIP3   OH262125   1.185   4.995   3.918  0.2390 -0.3395  0.3198
13545TIP3    H162126   1.102   4.971   3.958 -0.2802  0.0168 -0.5140
13545TIP3    H262127   1.251   4.974   3.984 -0.3820 -1.9035  0.4753
13546TIP3   OH262128   5.278   1.782   2.584  0.5838  0.2183 -0.2680
13546TIP3    H162129   5.263   1.873   2.610 -0.1013  0.1177 -0.2858
13546TIP3    H262130   5.228   1.772   2.504  1.4507  0.0914 -0.8064
13547TIP3   OH262131   2.189   3.827   0.958 -0.1568  0.4336  0.0092
13547TIP3    H162132   2.140   3.867   1.030 -0.7078 -0.9683  0.4498
13547TIP3    H262133   2.226   3.901   0.910  0.0334  1.4059  1.5982
13548TIP3   OH262134   5.542   6.659   5.175 -0.0911 -0.2033  0.3101
13548TIP3    H162135   5.511   6.682   5.263  0.4796 -1.2585  0.8020
13548TIP3    H262136   5.527   6.565   5.168  1.3086 -0.4086 -0.1306
13549TIP3   OH262137   6.129   4.707   6.262  0.0297  0.2076 -0.2982
13549TIP3    H162138   6.079   4.777   6.304 -1.0264 -0.1007 -1.0232
13549TIP3    H262139   6.067   4.635   6.250  0.5148 -0.0313 -1.6052
13550TIP3   OH262140   1.397   1.437  14.811 -0.2503  0.2280 -0.2274
13550TIP3    H162141   1.328   1.378  14.843 -1.0224  0.5988 -1.1580
13550TIP3    H262142   1.475   1.383  14.806 -0.3867 -0.1381  1.1217
13551TIP3   OH262143   5.747   5.021   4.398 -0.0662 -0.2311  0.3331
13551TIP3    H162144   5.778   5.001   4.310  2.1311  1.0631  0.7422
13551TIP3    H262145   5.740   5.116   4.400 -1.6847 -0.3328  1.0927
13552TIP3   OH262146   1.185   1.201   2.211  0.0405  0.3385 -0.7949
13552TIP3    H162147   1.141   1.238   2.289  1.4996  2.1164 -0.7558
13552TIP3    H262148   1.264   1.160   2.245  1.0289  1.7064 -1.3761
13553TIP3   OH262149   1.959   0.945  14.684  0.4083  0.3685  0.6495
13553TIP3    H162150   1.947   0.885  14.611 -1.4584  1.1687  0.2450
13553TIP3    H262151   1.930   1.030  14.651 -0.1711  0.8119  2.2083
13554TIP3   OH262152   1.877   6.283  12.021 -0.1451 -0.7455  0.3027
13554TIP3    H162153   1.888   6.214  11.955 -0.9186 -1.2282  0.6678
13554TIP3    H262154   1.962   6.327  12.024 -0.2167 -0.4305 -1.3366
13555TIP3   OH262155   1.594   3.461   1.122  0.1461  0.5743 -0.5980
13555TIP3    H162156   1.663   3.528   1.128  1.7223 -0.8519 -1.7750
13555TIP3    H262157   1.619   3.408   1.047 -1.2941 -1.1019  0.0481
13556TIP3   OH262158   0.778   2.880   2.939  0.2517 -0.1454 -0.2621
13556TIP3    H162159   0.685   2.868   2.959  0.0023 -2.0912 -2.1862
13556TIP3    H262160   0.796   2.971   2.961 -1.4574 -0.3473  2.4414
13557TIP3   OH262161   1.318   3.567  10.552 -0.8195 -0.1788  0.7360
13557TIP3    H162162   1.237   3.561  10.603 -1.4230  2.3986  0.2609
13557TIP3    H262163   1.288   3.583  10.462  0.1344  2.1862  0.7658
13558TIP3   OH262164   0.416   5.486   1.942  0.4387  0.0346  0.1090
13558TIP3    H162165   0.469   5.414   1.908 -1.5541 -2.8393  2.5162
13558TIP3    H262166   0.337   5.486   1.890 -0.2609 -0.6675  1.1352
13559TIP3   OH262167   5.495   2.702   2.588  0.0112 -0.4477  0.1252
13559TIP3    H162168   5.578   2.749   2.591 -1.0907  1.6769 -0.4786
13559TIP3    H262169   5.438   2.750   2.648 -0.9725 -1.4478  0.0255
13560TIP3   OH262170   2.015   6.172  13.944  0.5626  0.0872  0.2328
13560TIP3    H162171   2.004   6.096  14.001 -2.8172  0.6416  0.5161
13560TIP3    H262172   2.093   6.215  13.977  0.2344 -1.0649  2.7303
13561TIP3   OH262173   3.531   4.084  15.133 -0.2248  0.0335  0.0691
13561TIP3    H162174   3.599   4.151  15.120 -0.5168 -0.0044 -1.8766
13561TIP3    H262175   3.486   4.079  15.049 -0.8686 -1.9113  0.4938
13562TIP3   OH262176   1.690   6.344   1.749  0.3358 -0.4004 -0.4932
13562TIP3    H162177   1.597   6.362   1.743  0.0138 -1.8019 -0.0558
13562TIP3    H262178   1.732   6.415   1.701 -0.8755  0.9365  0.3819
13563TIP3   OH262179   2.772   5.018   5.987 -0.0248 -0.0472 -0.3478
13563TIP3    H162180   2.824   5.092   6.020  0.6013 -0.8060  0.4366
13563TIP3    H262181   2.818   4.941   6.021 -0.9785 -0.7762 -0.6918
13564TIP3   OH262182   1.806   3.862  13.417  0.1342  0.2967  0.0863
13564TIP3    H162183   1.841   3.798  13.479 -0.0702  0.2237  0.1267
13564TIP3    H262184   1.723   3.825  13.389  0.6492 -0.1334 -0.9428
13565TIP3   OH262185   3.676   2.376   1.411  0.4023  0.1236  0.4131
13565TIP3    H162186   3.630   2.441   1.357 -1.4388 -0.5434  1.1075
13565TIP3    H262187   3.758   2.419   1.436 -0.4424  1.9099  0.2539
13566TIP3   OH262188   6.782   0.234   0.978 -0.2192  0.1628 -0.2894
13566TIP3    H162189   6.691   0.247   1.006 -0.2104 -0.3071 -0.0230
13566TIP3    H262190   6.809   0.153   1.023  0.6990  0.9122  0.5708
13567TIP3   OH262191   2.003   6.065  16.066 -0.0791 -0.2013  0.3467
13567TIP3    H162192   2.094   6.040  16.081  0.2497  0.5738 -0.2700
13567TIP3    H262193   1.996   6.072  15.971 -0.8292 -0.4008  0.3792
13568TIP3   OH262194   0.110   0.925  12.895  0.1432 -0.1863 -0.3591
13568TIP3    H162195   0.170   0.959  12.961  0.3043 -0.1643 -0.5147
13568TIP3    H262196   0.024   0.928  12.936  0.0289  1.1833 -0.6432
13569TIP3   OH262197   6.476   1.858  10.955  0.3209 -0.2643 -0.6822
13569TIP3    H162198   6.452   1.938  11.000  0.7823 -0.7066  0.3701
13569TIP3    H262199   6.529   1.887  10.880  0.9103  0.3817 -0.0218
13570TIP3   OH262200   0.471   3.301  15.540  0.3470 -0.2794  0.1220
13570TIP3    H162201   0.519   3.249  15.475 -0.8106  1.3115 -2.1610
13570TIP3    H262202   0.509   3.389  15.534  0.6921 -0.2431  2.1852
13571TIP3   OH262203   1.146   5.639   3.135  0.1087  0.3356  0.6170
13571TIP3    H162204   1.146   5.735   3.135  0.4933  0.3386  0.3360
13571TIP3    H262205   1.133   5.615   3.227 -2.2071  0.6410  0.4125
13572TIP3   OH262206   4.622   5.611  17.163  0.1019  0.2030 -0.0041
13572TIP3    H162207   4.691   5.663  17.124 -0.6664  0.5919 -0.8867
13572TIP3    H262208   4.638   5.522  17.132 -0.6884  0.5559 -1.5625
13573TIP3   OH262209   4.075   1.801  11.220  0.0008 -0.2683 -0.2794
13573TIP3    H162210   4.127   1.839  11.290  0.6997 -1.3244 -0.1995
13573TIP3    H262211   4.093   1.855  11.144  0.7340 -0.2441 -0.0953
13574TIP3   OH262212   6.252   0.104   5.776 -0.7316 -0.2504  0.1916
13574TIP3    H162213   6.334   0.054   5.774 -1.1296 -1.2446 -4.5796
13574TIP3    H262214   6.276   0.190   5.739 -1.6985 -0.4483 -0.9707
13575TIP3   OH262215   4.484   0.555  17.071 -1.0866 -0.1616 -0.4732
13575TIP3    H162216   4.546   0.489  17.103  1.6531  1.8550 -1.2266
13575TIP3    H262217   4.398   0.521  17.096  0.2502 -3.2394  0.4942
13576TIP3   OH262218   0.241   0.206   0.631  0.1813  0.4624  0.7827
13576TIP3    H162219   0.277   0.294   0.616  0.9545  0.3427  1.8564
13576TIP3    H262220   0.313   0.147   0.610 -1.0005 -0.0782 -2.1236
13577TIP3   OH262221   5.192   6.345   3.525  0.0299 -0.2203  0.4279
13577TIP3    H162222   5.287   6.336   3.517 -0.0941 -1.5823  0.1149
13577TIP3    H262223   5.175   6.438   3.517  1.2102 -0.0971 -1.0701
13578TIP3   OH262224   3.763   0.215  16.852 -0.3201 -0.0657  0.0930
13578TIP3    H162225   3.825   0.193  16.922  0.6628  0.7718 -0.4937
13578TIP3    H262226   3.714   0.134  16.838  2.7219 -1.8335 -1.5339
13579TIP3   OH262227   2.435   5.847  15.293 -0.3068 -0.0621 -0.2276
13579TIP3    H162228   2.346   5.881  15.296  0.4168  1.9370 -0.0550
13579TIP3    H262229   2.477   5.882  15.372  0.6706 -0.8725 -0.3639
13580TIP3   OH262230   2.224   3.359  16.556 -0.5293 -0.4715  0.1593
13580TIP3    H162231   2.141   3.329  16.592 -0.8899 -0.3639 -0.5718
13580TIP3    H262232   2.279   3.281  16.554  0.1676 -0.1586  2.6630
13581TIP3   OH262233   3.669   0.435   1.606 -0.2592  0.7407  0.5154
13581TIP3    H162234   3.626   0.402   1.528 -1.5247  1.6769  0.7895
13581TIP3    H262235   3.659   0.366   1.671 -1.0957  0.8265  0.4818
13582TIP3   OH262236   1.789   6.032   0.637  0.3465  0.1964 -0.5272
13582TIP3    H162237   1.852   6.007   0.704  0.7220  2.0234 -0.1586
13582TIP3    H262238   1.781   5.954   0.582  1.0627 -0.8831  0.8264
13583TIP3   OH262239   0.053   5.368  13.959 -0.0590 -0.0748 -0.1005
13583TIP3    H162240  -0.039   5.347  13.974  0.4475 -2.5984 -0.1894
13583TIP3    H262241   0.077   5.318  13.881  1.0681  1.6506 -0.9498
13584TIP3   OH262242   5.609   4.291  11.872 -1.2622 -0.5361  0.1372
13584TIP3    H162243   5.603   4.268  11.779  2.3883 -1.1033 -0.1100
13584TIP3    H262244   5.581   4.382  11.876 -1.2370 -0.4158 -1.5877
13585TIP3   OH262245   3.642   2.362  12.592  0.0360 -0.2015  0.0706
13585TIP3    H162246   3.612   2.271  12.588 -0.6090 -0.0059  0.3541
13585TIP3    H262247   3.689   2.368  12.675 -0.6104 -0.0771  0.4348
13586TIP3   OH262248   6.318   4.595  15.182  0.6150 -0.3968 -0.3101
13586TIP3    H162249   6.329   4.660  15.251 -0.7374  0.3686 -0.7691
13586TIP3    H262250   6.342   4.642  15.101  0.6614 -0.7971 -0.5317
13587TIP3   OH262251   1.534   1.155   2.991  0.4732  0.0381 -0.2711
13587TIP3    H162252   1.523   1.183   2.901 -1.1202  0.0211 -0.1092
13587TIP3    H262253   1.585   1.074   2.985 -0.0970 -0.2634 -1.1940
13588TIP3   OH262254   3.497   4.602   5.339 -0.6245  0.2876  0.0603
13588TIP3    H162255   3.492   4.695   5.360 -3.9202  0.8003 -2.1966
13588TIP3    H262256   3.550   4.598   5.260 -0.8406  0.2890 -0.0838
13589TIP3   OH262257   0.622   5.984   0.390 -0.1744 -0.1588 -0.2297
13589TIP3    H162258   0.641   6.040   0.315 -0.2449  2.9014  1.8607
13589TIP3    H262259   0.533   6.007   0.415  0.1147 -0.5520  1.2340
13590TIP3   OH262260   2.853   3.188  15.764 -0.4108 -0.2943  0.0741
13590TIP3    H162261   2.915   3.116  15.756 -0.0762  0.0857 -0.9796
13590TIP3    H262262   2.844   3.223  15.675 -2.3501 -0.4958  0.1398
13591TIP3   OH262263   2.889   4.608  16.139 -0.4761 -0.2772  0.6982
13591TIP3    H162264   2.839   4.573  16.065  1.6540 -1.2048 -0.3916
13591TIP3    H262265   2.970   4.642  16.100 -0.2830  1.3162  2.3542
13592TIP3   OH262266   1.903   1.936   6.023 -0.1743 -0.0271 -0.0722
13592TIP3    H162267   1.813   1.950   5.992 -0.4053  1.5968  1.2331
13592TIP3    H262268   1.950   2.015   5.996  1.0656 -1.1154 -1.2691
13593TIP3   OH262269   6.161   5.362  16.736 -0.0776 -0.0777 -0.0059
13593TIP3    H162270   6.140   5.336  16.646  1.0293 -0.1136 -0.2624
13593TIP3    H262271   6.226   5.298  16.765 -2.1358 -1.5810  1.6892
13594TIP3   OH262272   4.262   1.843  12.806 -0.3517 -0.2763  0.2921
13594TIP3    H162273   4.172   1.875  12.800 -0.5093 -1.0403 -2.1242
13594TIP3    H262274   4.289   1.828  12.716  2.3257  0.1962  0.9222
13595TIP3   OH262275   4.579   0.570   4.331 -0.2358  0.2167 -0.2072
13595TIP3    H162276   4.575   0.475   4.320  0.1212  0.1111  0.4955
13595TIP3    H262277   4.488   0.597   4.340 -0.3022 -0.1772  0.4335
13596TIP3   OH262278   3.906   4.732   0.830  0.1660  0.3365 -0.0492
13596TIP3    H162279   3.950   4.664   0.777 -0.5331  0.1800 -0.4386
13596TIP3    H262280   3.977   4.770   0.883  0.7755  0.0926 -0.6665
13597TIP3   OH262281   6.344   3.862  14.550 -0.1631  0.8940  0.0090
13597TIP3    H162282   6.427   3.905  14.571  0.6215  0.0908 -1.3399
13597TIP3    H262283   6.279   3.907  14.605  1.0357  2.0397  0.5296
13598TIP3   OH262284   2.056   3.629  11.301  0.0959 -0.1167 -0.3051
13598TIP3    H162285   2.084   3.540  11.325  0.7487  0.5717  1.6678
13598TIP3    H262286   1.990   3.652  11.366  0.8276  1.2967 -0.0201
13599TIP3   OH262287   0.388   2.295  17.179  0.5931 -0.1469  0.4032
13599TIP3    H162288   0.396   2.256  17.092  0.4965  0.3496  0.1701
13599TIP3    H262289   0.300   2.271  17.208  0.5087 -0.0454  0.2325
13600TIP3   OH262290   0.849   5.526  14.802  0.0276 -0.6866 -0.2128
13600TIP3    H162291   0.935   5.491  14.825 -0.0934 -1.2047 -0.5334
13600TIP3    H262292   0.839   5.603  14.857  0.6789 -0.6477 -0.1397
13601TIP3   OH262293   2.145   0.183   0.844  0.0450 -0.3796 -0.1521
13601TIP3    H162294   2.123   0.179   0.751  0.4056  1.5559 -0.3626
13601TIP3    H262295   2.068   0.147   0.889 -0.3155 -0.9000 -1.1639
13602TIP3   OH262296   1.191   5.474  15.774 -0.3386 -0.0969 -0.1082
13602TIP3    H162297   1.105   5.478  15.817 -0.1360 -0.3328  0.3289
13602TIP3    H262298   1.174   5.499  15.683 -0.3228  3.4568  0.7078
13603TIP3   OH262299   2.154   4.865   1.064 -0.4084 -0.0355 -0.0741
13603TIP3    H162300   2.083   4.807   1.090 -0.8716  0.3269 -0.4969
13603TIP3    H262301   2.110   4.939   1.022  0.2787 -0.7856 -2.3007
13604TIP3   OH262302   5.497   5.866   0.288  0.5444  0.3551 -0.3481
13604TIP3    H162303   5.542   5.884   0.370 -0.6880  0.9587  0.2298
13604TIP3    H262304   5.562   5.821   0.234  1.0939 -0.9039  1.2873
13605TIP3   OH262305   3.760   3.703  16.914  0.0043 -0.1587  0.3573
13605TIP3    H162306   3.740   3.612  16.890  0.0246  0.1540 -0.8826
13605TIP3    H262307   3.854   3.712  16.897 -0.0763  0.2070  0.1027
13606TIP3   OH262308   5.562   0.554  12.525  0.0483 -0.9175  0.1956
13606TIP3    H162309   5.566   0.627  12.587  0.6067 -0.8442  0.0744
13606TIP3    H262310   5.568   0.594  12.439 -0.0856 -1.0724  0.1128
13607TIP3   OH262311   1.126   6.775   4.114  0.3530  0.9305  0.6901
13607TIP3    H162312   1.165   6.698   4.071  1.0978  0.8165  1.5475
13607TIP3    H262313   1.034   6.751   4.125  0.9932 -0.8294  3.0084
13608TIP3   OH262314   2.558   0.882   1.044 -0.2084  0.0154 -0.3104
13608TIP3    H162315   2.514   0.799   1.060 -1.8562  0.9913  0.5797
13608TIP3    H262316   2.646   0.858   1.015 -0.9787 -2.0184 -1.1401
13609TIP3   OH262317   1.563   3.622  12.848  0.3549  0.0464  0.2596
13609TIP3    H162318   1.474   3.650  12.868  0.8950  2.6255 -0.6584
13609TIP3    H262319   1.596   3.587  12.931 -0.7909  1.0581  1.1749
13610TIP3   OH262320   1.585   5.174  13.673  0.5550  0.2236  0.3120
13610TIP3    H162321   1.572   5.125  13.592 -0.4802  2.5148 -1.0210
13610TIP3    H262322   1.667   5.140  13.708  0.2946 -1.8516 -0.8961
13611TIP3   OH262323   3.333   6.505  13.053  0.4837 -0.6790 -0.0009
13611TIP3    H162324   3.241   6.487  13.033  0.4337  0.7362 -1.1723
13611TIP3    H262325   3.369   6.420  13.080 -1.2897 -1.1501  1.0700
13612TIP3   OH262326   5.679   3.736   3.562  0.5339 -0.2369  0.0181
13612TIP3    H162327   5.603   3.789   3.584 -0.5696 -1.3569 -0.9403
13612TIP3    H262328   5.653   3.647   3.583  0.3635 -1.0513 -3.1378
13613TIP3   OH262329   4.764   4.293  13.577 -0.4456  0.6183 -0.6289
13613TIP3    H162330   4.762   4.389  13.573  0.0078  0.6475 -0.2192
13613TIP3    H262331   4.843   4.273  13.627 -0.5169  0.0266 -0.7494
13614TIP3   OH262332   1.634   3.784   1.607  0.4741  0.1319  0.5934
13614TIP3    H162333   1.585   3.861   1.578  0.4509  0.0548  0.4242
13614TIP3    H262334   1.573   3.711   1.595 -0.5999  0.4224  3.5634
13615TIP3   OH262335   1.487   5.737  10.767  0.3595  0.0041 -0.0612
13615TIP3    H162336   1.564   5.728  10.712 -1.4688  1.8125 -3.2097
13615TIP3    H262337   1.510   5.804  10.831  1.6453 -0.1420 -0.3407
13616TIP3   OH262338   5.948   5.538   5.386 -0.0527  0.2905 -0.3653
13616TIP3    H162339   5.995   5.522   5.305  1.1484 -2.4061  0.7396
13616TIP3    H262340   5.886   5.608   5.365  1.2176  0.6923 -3.1565
13617TIP3   OH262341   3.869   4.570  11.703  0.2610  0.4098  0.1373
13617TIP3    H162342   3.920   4.650  11.717  0.0404  0.4471  0.7673
13617TIP3    H262343   3.908   4.529  11.626  1.4964  0.2352  0.8393
13618TIP3   OH262344   6.701   5.699   0.272  0.0600 -0.3044 -0.5691
13618TIP3    H162345   6.789   5.722   0.243  0.5941 -0.1064  1.0692
13618TIP3    H262346   6.702   5.603   0.278  0.0627 -0.3214 -0.8151
13619TIP3   OH262347   2.849   5.391  17.081  0.2650  0.4016  0.5282
13619TIP3    H162348   2.794   5.349  17.015 -1.4082  0.0644  2.0554
13619TIP3    H262349   2.792   5.457  17.120  1.6368  1.4754  0.7884
13620TIP3   OH262350   2.589   2.366   0.621  0.0087 -0.6025 -0.3570
13620TIP3    H162351   2.508   2.410   0.649  0.3795  0.2863 -0.6482
13620TIP3    H262352   2.619   2.417   0.546  0.6020 -1.2036 -0.5350
13621TIP3   OH262353   4.855   0.255  12.836 -0.0739  0.2040 -0.2997
13621TIP3    H162354   4.770   0.253  12.881 -0.0250 -0.8766 -0.2374
13621TIP3    H262355   4.893   0.169  12.854  0.8295  0.5099 -0.7320
13622TIP3   OH262356   1.054   6.279   5.643  0.4979  0.2762 -0.3547
13622TIP3    H162357   0.990   6.312   5.706  0.9447  0.6607 -0.0951
13622TIP3    H262358   1.121   6.347   5.639  0.5802  0.1639 -1.0941
13623TIP3   OH262359   2.924   2.825   1.440 -0.2507  0.5901  0.1765
13623TIP3    H162360   3.009   2.824   1.396 -1.1849 -0.1326 -1.7178
13623TIP3    H262361   2.904   2.733   1.455 -0.3031  0.7967  1.5003
13624TIP3   OH262362   5.235   2.594   0.070  0.1097  1.0968  0.6933
13624TIP3    H162363   5.153   2.615   0.025 -0.4207 -0.0844  1.0822
13624TIP3    H262364   5.303   2.634   0.016 -0.5166 -0.2036 -1.1380
13625TIP3   OH262365   4.210   1.813   5.148 -0.2354 -0.4530  0.0471
13625TIP3    H162366   4.172   1.782   5.065  0.1034  1.4742 -0.8713
13625TIP3    H262367   4.139   1.861   5.190 -0.1156 -0.6183  0.4411
13626TIP3   OH262368   1.666   1.896  14.516  0.2685  0.1882 -0.3010
13626TIP3    H162369   1.747   1.898  14.567  0.9774 -1.7238 -1.2209
13626TIP3    H262370   1.690   1.933  14.431 -0.1277  0.6418 -0.2206
13627TIP3   OH262371   2.962   0.925   5.163  0.0998 -0.4947 -0.7393
13627TIP3    H162372   2.866   0.933   5.161  0.0020 -0.7900  1.2159
13627TIP3    H262373   2.980   0.871   5.239  1.8649 -0.0178 -0.7775
13628TIP3   OH262374   5.201   5.868  10.191  0.1764  0.2296 -0.5066
13628TIP3    H162375   5.237   5.863  10.280  1.8923 -0.3695 -1.1941
13628TIP3    H262376   5.170   5.958  10.183  1.9126  0.9141  0.0236
13629TIP3   OH262377   6.136   4.601   4.942  0.5150  0.3847 -0.6764
13629TIP3    H162378   6.057   4.638   4.903  0.2556  0.2504 -0.2852
13629TIP3    H262379   6.198   4.595   4.869 -0.5333 -1.5018 -1.5013
13630TIP3   OH262380   4.190   5.150  15.601  0.2966  0.2137  0.2136
13630TIP3    H162381   4.147   5.231  15.627 -1.4180  0.2568 -2.3337
13630TIP3    H262382   4.284   5.171  15.601  0.0305  1.5423  1.5118
13631TIP3   OH262383   4.896   2.903   3.698  0.1123  0.0318 -0.5990
13631TIP3    H162384   4.937   2.936   3.618  1.4966 -0.9144 -0.3242
13631TIP3    H262385   4.876   2.812   3.678  0.4806 -0.2153  0.1199
13632TIP3   OH262386   0.922   4.181  12.281  0.0755 -0.2128 -0.6794
13632TIP3    H162387   0.894   4.120  12.213  1.5789  0.6587 -2.1912
13632TIP3    H262388   0.963   4.253  12.232  1.8787  0.1148  1.1545
13633TIP3   OH262389   1.052   0.147   2.699  0.1919  0.6317 -0.2406
13633TIP3    H162390   0.968   0.193   2.693  0.8695  1.8406 -0.9677
13633TIP3    H262391   1.113   0.204   2.653  1.4315 -0.2041  0.3264
13634TIP3   OH262392   3.888   0.535  11.840  0.2843 -0.0621  0.4420
13634TIP3    H162393   3.875   0.456  11.892  1.1223 -0.8434 -0.5100
13634TIP3    H262394   3.806   0.546  11.792  0.0017 -0.0866  0.9101
13635TIP3   OH262395   6.557   5.152  13.639 -0.1056  0.3271  0.0440
13635TIP3    H162396   6.475   5.188  13.605 -0.0385 -0.3667 -0.9027
13635TIP3    H262397   6.549   5.158  13.734 -1.2604  0.2530 -0.0357
13636TIP3   OH262398   5.272   6.647  11.405 -0.6024  0.0786  0.5106
13636TIP3    H162399   5.233   6.639  11.492  0.2847 -0.9238  0.8344
13636TIP3    H262400   5.349   6.701  11.418  0.1462 -0.9640  0.5824
13637TIP3   OH262401   5.797   5.472   5.046 -0.5370 -0.5522 -0.2228
13637TIP3    H162402   5.765   5.520   4.969 -0.7493  1.8421  1.2578
13637TIP3    H262403   5.886   5.447   5.023  0.3246  2.3305 -0.4202
13638TIP3   OH262404   5.212   0.983   4.654  0.2208  0.1248 -0.2930
13638TIP3    H162405   5.307   0.984   4.660  0.1679 -1.3476  2.1351
13638TIP3    H262406   5.182   0.979   4.745 -2.1578  0.3129 -1.0036
13639TIP3   OH262407   2.808   4.122  14.250 -0.0919 -0.2935  0.1019
13639TIP3    H162408   2.786   4.203  14.204 -0.1745 -0.0599  0.5557
13639TIP3    H262409   2.725   4.074  14.253  0.0025 -0.4940 -0.3539
13640TIP3   OH262410   3.637   3.402  14.400 -0.0765 -0.5539 -0.4170
13640TIP3    H162411   3.695   3.352  14.342  1.0423  1.2789 -0.9659
13640TIP3    H262412   3.668   3.383  14.488  1.1552  0.0918 -0.6859
13641TIP3   OH262413   4.278   5.620   4.679 -0.3105 -0.0962  0.3208
13641TIP3    H162414   4.306   5.647   4.591  1.5188  1.0800  1.1892
13641TIP3    H262415   4.280   5.700   4.731  0.9528 -1.1184  1.9662
13642TIP3   OH262416   4.623   1.616  17.016  0.4418 -0.0323  0.2152
13642TIP3    H162417   4.590   1.589  16.930 -0.8512 -0.2732  0.7660
13642TIP3    H262418   4.669   1.698  16.999  1.1968 -0.6486 -0.8803
13643TIP3   OH262419   1.507   3.588   6.367 -0.4285  0.4294 -0.2803
13643TIP3    H162420   1.538   3.671   6.405  0.2588  0.4038 -0.7659
13643TIP3    H262421   1.466   3.542   6.440  2.6725 -0.5335  1.0301
13644TIP3   OH262422   0.336   4.051  13.741 -0.2101 -0.3198  0.2098
13644TIP3    H162423   0.424   4.013  13.735  0.5489  1.0673  1.6494
13644TIP3    H262424   0.336   4.098  13.824 -1.7997  1.0091 -0.4795
13645TIP3   OH262425   0.220   1.021  11.204 -0.4741 -0.2903 -0.1548
13645TIP3    H162426   0.292   1.020  11.141  0.2766  1.2107  0.6188
13645TIP3    H262427   0.142   1.034  11.150  0.3014  2.5300 -0.7652
13646TIP3   OH262428   3.025   5.219   4.464 -0.0877  0.3746  0.5346
13646TIP3    H162429   3.074   5.143   4.432  2.3153  1.6959  0.7793
13646TIP3    H262430   2.934   5.198   4.447  0.3916 -2.8470  1.2496
13647TIP3   OH262431   0.937   6.007  11.871 -0.1238 -0.0760  0.1845
13647TIP3    H162432   0.911   5.998  11.780 -0.8733  1.9364  0.1470
13647TIP3    H262433   0.886   5.940  11.917  1.9442 -2.6824 -1.0683
13648TIP3   OH262434   1.288   1.041  16.495  0.0303  1.0993 -0.2150
13648TIP3    H162435   1.371   1.036  16.542 -0.9109  0.8921  1.5058
13648TIP3    H262436   1.304   0.996  16.413  1.4090  0.4069  0.4094
13649TIP3   OH262437   4.985   0.402   6.516 -0.2195 -0.4913 -0.0175
13649TIP3    H162438   5.073   0.428   6.490 -0.1640 -0.5462  0.1124
13649TIP3    H262439   4.931   0.478   6.498  0.0931  0.0361  1.1866
13650TIP3   OH262440   0.723   0.461   0.043 -0.0105  0.4531 -0.8488
13650TIP3    H162441   0.768   0.423   0.119 -0.0912 -1.1374 -1.5386
13650TIP3    H262442   0.793   0.503  -0.007  0.9885 -2.4852 -2.2053
13651TIP3   OH262443   4.114   3.294  10.594  0.6223 -0.9331  0.4489
13651TIP3    H162444   4.107   3.271  10.501 -0.1859 -1.4104  0.6164
13651TIP3    H262445   4.179   3.364  10.596  0.4965 -0.7676 -0.5057
13652TIP3   OH262446   5.409   3.870   1.010 -0.2257  0.1287 -0.6544
13652TIP3    H162447   5.364   3.954   1.001  0.1636  0.3848 -0.3015
13652TIP3    H262448   5.410   3.833   0.922 -0.1564  0.6279 -0.8688
13653TIP3   OH262449   4.050   0.991   0.773 -0.1161  0.0810 -0.3084
13653TIP3    H162450   4.091   0.933   0.837 -0.4892 -0.8069 -0.8596
13653TIP3    H262451   4.067   0.950   0.689 -0.8811  0.4829 -0.6640
13654TIP3   OH262452   2.767   5.895   0.834  0.3973  0.3298 -0.6281
13654TIP3    H162453   2.786   5.824   0.772  1.4686  1.7741 -2.0128
13654TIP3    H262454   2.768   5.974   0.781  0.4102  1.5248  1.0896
13655TIP3   OH262455   3.363   5.301   0.139  0.2629 -0.5133 -0.1052
13655TIP3    H162456   3.277   5.260   0.128  0.7273 -1.7827  0.7617
13655TIP3    H262457   3.357   5.383   0.090 -2.3643  0.7996  2.1473
13656TIP3   OH262458   1.814   5.570   2.202  0.3537  0.2597 -0.4884
13656TIP3    H162459   1.865   5.650   2.189  0.7297 -0.0730 -1.0956
13656TIP3    H262460   1.854   5.528   2.278  0.6633  0.2522 -0.6543
13657TIP3   OH262461   3.434   0.221  16.510 -0.0917 -0.7115 -0.4962
13657TIP3    H162462   3.490   0.143  16.506 -1.6534 -2.0678  1.8092
13657TIP3    H262463   3.487   0.287  16.555 -0.0077 -1.7429  1.0040
13658TIP3   OH262464   0.635   5.581   2.978 -0.3180 -0.7497  0.2045
13658TIP3    H162465   0.643   5.598   2.884 -0.5470  0.1257  0.3286
13658TIP3    H262466   0.720   5.543   3.003  0.6720  1.2288  0.0611
13659TIP3   OH262467   1.106   0.958  10.049 -0.5158 -0.2393 -0.3626
13659TIP3    H162468   1.160   1.007   9.986 -0.0872  0.7029  0.7061
13659TIP3    H262469   1.089   0.875  10.006  0.2386  0.1663 -1.4994
13660TIP3   OH262470   6.509   4.291  14.014  0.3026 -0.0996  0.7328
13660TIP3    H162471   6.449   4.305  13.941  1.1753  0.2465  0.0530
13660TIP3    H262472   6.552   4.207  13.995  0.6324  0.0568  0.7695
13661TIP3   OH262473   1.343   2.206  14.679  0.2630  0.2739 -0.2742
13661TIP3    H162474   1.268   2.185  14.624  1.2622 -1.7054 -0.9743
13661TIP3    H262475   1.398   2.128  14.675  0.3307 -0.0646  3.6858
13662TIP3   OH262476   3.402   0.079  13.758  1.4861  0.5332 -0.0775
13662TIP3    H162477   3.370   0.055  13.672  0.0329  0.7074  0.3879
13662TIP3    H262478   3.414   0.174  13.754  0.6756  0.6550  0.1219
13663TIP3   OH262479   0.513   0.511   1.227  0.3814  0.5892  0.5142
13663TIP3    H162480   0.479   0.546   1.145 -2.0187 -0.5497  0.9427
13663TIP3    H262481   0.605   0.489   1.207 -0.0741  0.5172 -1.7990
13664TIP3   OH262482   5.715   0.311   1.705  0.2548  0.2428  0.4065
13664TIP3    H162483   5.672   0.301   1.789  0.4503 -0.2223  0.4526
13664TIP3    H262484   5.724   0.406   1.693 -0.7206  0.3439  0.4216
13665TIP3   OH262485   5.028   4.459  17.056  0.0124 -0.1624 -0.0201
13665TIP3    H162486   5.100   4.464  17.118 -1.1083  0.0439  1.3057
13665TIP3    H262487   4.988   4.545  17.058  0.5578  0.1711 -1.8255
13666TIP3   OH262488   0.528   0.124  13.916  0.2778 -0.3459 -0.3323
13666TIP3    H162489   0.600   0.187  13.927 -0.2283  0.0436  0.9245
13666TIP3    H262490   0.532   0.069  13.994 -1.2825  0.2265  0.1956
13667TIP3   OH262491   3.941   5.443  12.826  0.1221 -0.0424  0.3847
13667TIP3    H162492   3.888   5.476  12.899 -1.2916  0.0483 -0.6586
13667TIP3    H262493   3.880   5.433  12.754  1.3419 -0.9438 -0.5647
13668TIP3   OH262494   1.650   2.797   1.211 -0.1331 -0.5383  0.1877
13668TIP3    H162495   1.569   2.841   1.238  0.2287  0.2295  0.0635
13668TIP3    H262496   1.643   2.791   1.116 -0.7722 -1.9632  0.3029
13669TIP3   OH262497   5.017   2.334  13.378  0.0499 -0.1670 -0.1221
13669TIP3    H162498   5.010   2.380  13.462 -1.2823  2.6424 -1.6056
13669TIP3    H262499   4.952   2.265  13.382  1.6495 -1.6627  1.9672
13670TIP3   OH262500   3.275   2.765   2.303  0.3510 -0.1647  0.0414
13670TIP3    H162501   3.210   2.791   2.368  1.0984  0.5456  0.5376
13670TIP3    H262502   3.225   2.751   2.223 -0.6097 -1.2055  0.7896
13671TIP3   OH262503   6.210   5.848   0.457  0.0774  0.0106 -0.2013
13671TIP3    H162504   6.293   5.846   0.409  0.6506 -1.4394  0.7788
13671TIP3    H262505   6.207   5.936   0.495  0.0851  0.8493 -1.9975
13672TIP3   OH262506   0.436   0.560  14.800  0.2468 -0.5772 -0.8261
13672TIP3    H162507   0.368   0.553  14.866  1.0411  0.5855  0.1634
13672TIP3    H262508   0.389   0.561  14.717 -0.8465 -1.0045 -0.2338
13673TIP3   OH262509   6.500   0.524   5.375  0.1497  0.7175 -0.4487
13673TIP3    H162510   6.516   0.541   5.467  0.8940  1.3002 -0.6731
13673TIP3    H262511   6.479   0.609   5.337  0.7344  0.6396 -0.9771
13674TIP3   OH262512   3.671   6.571   3.099  0.6859 -0.0383 -0.0099
13674TIP3    H162513   3.692   6.625   3.175 -2.5065  1.2916  0.0832
13674TIP3    H262514   3.669   6.482   3.134 -0.1219  0.4826  1.3623
13675TIP3   OH262515   4.434   6.169   3.502  0.0088  0.8688  0.5481
13675TIP3    H162516   4.483   6.114   3.564  1.6652  0.5929 -0.9088
13675TIP3    H262517   4.357   6.118   3.480  0.8233 -0.2899  0.2908
13676TIP3   OH262518   6.771   2.505   3.170  0.4226  0.5575  1.1783
13676TIP3    H162519   6.685   2.463   3.167  0.4402  0.5895 -0.4683
13676TIP3    H262520   6.759   2.581   3.227 -1.0282  1.3906 -0.1737
13677TIP3   OH262521   5.481   3.806  16.328 -0.0708  0.8718  0.2364
13677TIP3    H162522   5.446   3.717  16.336 -1.9098  1.5377  0.0165
13677TIP3    H262523   5.480   3.824  16.234  1.7156  0.6272  0.1302
13678TIP3   OH262524   3.160   5.877  11.180  0.5469 -0.1641 -0.2294
13678TIP3    H162525   3.203   5.947  11.130  1.6192  0.5272  1.5661
13678TIP3    H262526   3.146   5.914  11.267 -1.6082 -1.2017 -0.0680
13679TIP3   OH262527   3.176   6.607   4.115 -0.1590  0.1394 -0.4693
13679TIP3    H162528   3.192   6.519   4.079 -0.9032  0.8923 -2.8534
13679TIP3    H262529   3.224   6.665   4.057 -0.5122  1.3957  0.4591
13680TIP3   OH262530   4.533   4.748   5.543  0.3462  0.2103 -0.0416
13680TIP3    H162531   4.497   4.759   5.630  0.5852 -0.0339  0.0927
13680TIP3    H262532   4.626   4.771   5.552  0.4101  0.0184 -0.1898
13681TIP3   OH262533   2.959   4.058   4.305  0.4429  0.3077  0.0135
13681TIP3    H162534   2.952   3.974   4.350 -1.6242 -0.2647 -1.2563
13681TIP3    H262535   3.021   4.042   4.234  1.2944  0.3467  0.7237
13682TIP3   OH262536   0.958   2.449   1.122  0.2361 -0.4081  1.0080
13682TIP3    H162537   0.914   2.532   1.139  0.3661  0.0313 -0.6262
13682TIP3    H262538   1.047   2.475   1.096  0.7248 -1.1461  1.9115
13683TIP3   OH262539   1.377   4.376   4.784 -0.2584  0.0103  0.1532
13683TIP3    H162540   1.369   4.364   4.879  1.3413  1.1780  0.4638
13683TIP3    H262541   1.432   4.453   4.774 -0.6882  0.1038 -1.7463
13684TIP3   OH262542   6.805   6.271  14.423  0.3454  0.4020  0.4841
13684TIP3    H162543   6.877   6.216  14.453  1.2632  0.5284 -1.3360
13684TIP3    H262544   6.841   6.321  14.349 -1.5241  0.6680 -0.3279
13685TIP3   OH262545   3.098   2.035  13.582 -0.5497 -0.7859 -0.6061
13685TIP3    H162546   3.112   1.957  13.635  0.6718  0.5381  1.1791
13685TIP3    H262547   3.033   2.010  13.517 -0.7018 -3.0572  0.3529
13686TIP3   OH262548   2.927   6.048  11.727 -0.3212  0.0866 -0.1866
13686TIP3    H162549   2.900   5.962  11.757  2.1599 -0.8586 -0.4247
13686TIP3    H262550   2.996   6.074  11.788 -0.7500  1.7332 -0.3575
13687TIP3   OH262551   1.944   0.540   5.619 -0.1698 -0.1217  0.0254
13687TIP3    H162552   1.937   0.562   5.712 -0.7340 -0.3566  0.0424
13687TIP3    H262553   1.972   0.449   5.617 -1.8339 -0.6693 -0.0054
13688TIP3   OH262554   1.660   2.718  16.128 -0.7939  0.1564 -0.0653
13688TIP3    H162555   1.603   2.696  16.202 -0.4573  0.4768  0.3000
13688TIP3    H262556   1.645   2.649  16.064 -0.6697 -0.4373  0.5448
13689TIP3   OH262557   3.621   1.871   0.949  0.4070  0.2193  0.2042
13689TIP3    H162558   3.692   1.823   0.907  1.8436  0.3746  2.2838
13689TIP3    H262559   3.656   1.895   1.035 -2.3959 -0.3274  1.6435
13690TIP3   OH262560   4.174   0.581   0.037 -0.3355 -0.0873  0.0292
13690TIP3    H162561   4.099   0.527   0.062  1.3780 -3.5980 -1.7234
13690TIP3    H262562   4.154   0.610  -0.052 -1.2637  2.4525  0.9671
13691TIP3   OH262563   6.071   3.347  12.302  0.0528 -0.0386  0.7433
13691TIP3    H162564   6.161   3.341  12.335  0.3894 -0.3636 -0.2121
13691TIP3    H262565   6.070   3.425  12.247 -0.9337  1.4497  2.7447
13692TIP3   OH262566   6.440   0.079   5.043 -0.8852  1.0048  0.2008
13692TIP3    H162567   6.421   0.164   5.083  0.4553  0.7342  1.5431
13692TIP3    H262568   6.498   0.036   5.107 -0.9396 -0.6098 -0.7943
13693TIP3   OH262569   4.247   3.719  11.917  0.7928 -0.1043  0.1225
13693TIP3    H162570   4.242   3.635  11.963  0.7924 -0.3909 -0.3863
13693TIP3    H262571   4.340   3.732  11.901  0.8341  0.2193  0.5972
13694TIP3   OH262572   3.473   3.796  12.363  0.0896  0.1381  0.0761
13694TIP3    H162573   3.465   3.777  12.456  0.3715 -0.5196 -0.0296
13694TIP3    H262574   3.418   3.873  12.350 -1.6324 -0.9724  0.4031
13695TIP3   OH262575   0.254   2.916   0.001 -0.8164 -0.5093 -0.1107
13695TIP3    H162576   0.333   2.928  -0.052  0.2060 -0.2856  1.3895
13695TIP3    H262577   0.234   2.822  -0.006 -1.5475 -0.2533 -1.9820
13696TIP3   OH262578   4.041   1.251   0.897 -0.1141  0.1640  0.0869
13696TIP3    H162579   4.125   1.262   0.942  0.4106  2.4124 -1.2363
13696TIP3    H262580   4.036   1.157   0.878  1.1857 -0.3146  1.8404
13697TIP3   OH262581   6.711   1.286  14.320 -0.5161 -0.5013  0.3313
13697TIP3    H162582   6.711   1.363  14.377 -1.0938  0.5899 -1.0840
13697TIP3    H262583   6.804   1.273  14.299 -0.3632 -0.5335  0.9779
13698TIP3   OH262584   3.747   0.426  15.504 -0.2081  0.7659  0.4312
13698TIP3    H162585   3.715   0.336  15.504 -0.1854  0.7506  0.9590
13698TIP3    H262586   3.805   0.430  15.581  1.1813  0.7483 -0.5794
13699TIP3   OH262587   0.798   5.266  15.182  0.4707 -0.5424 -0.0099
13699TIP3    H162588   0.730   5.306  15.128  0.3865 -0.4909  0.1321
13699TIP3    H262589   0.756   5.255  15.267  0.6670 -0.4333  0.1014
13700TIP3   OH262590   5.104   6.561   0.422 -0.0191  0.3036 -0.1784
13700TIP3    H162591   5.065   6.527   0.503  0.3880  4.1804  1.8490
13700TIP3    H262592   5.197   6.570   0.442  0.0598  1.4595 -0.9785
13701TIP3   OH262593   3.085   6.410  11.280  0.6098 -0.8485  0.0717
13701TIP3    H162594   3.115   6.369  11.362 -1.2335 -1.4651  0.4914
13701TIP3    H262595   3.127   6.496  11.279 -1.4948  0.4106  3.2009
13702TIP3   OH262596   2.591   1.673  10.621  0.6137 -0.0877 -0.1639
13702TIP3    H162597   2.645   1.599  10.593 -0.0240 -0.4108 -0.5493
13702TIP3    H262598   2.528   1.635  10.681  0.5172  0.2127 -0.0729
13703TIP3   OH262599   5.756   1.219   5.579 -0.4454  0.6470  0.0039
13703TIP3    H162600   5.699   1.227   5.502 -0.9121  2.8763  0.5048
13703TIP3    H262601   5.839   1.257   5.552 -0.0784 -0.0316  0.1426
13704TIP3   OH262602   2.555   4.095  13.229  0.2091  0.2453  0.1085
13704TIP3    H162603   2.477   4.088  13.283  0.4990  1.2397  0.6793
13704TIP3    H262604   2.610   4.022  13.256 -0.0334  0.2101  0.5062
13705TIP3   OH262605   4.404   6.217  10.488  0.1691 -0.1083 -0.1326
13705TIP3    H162606   4.411   6.296  10.435 -0.2676  0.5095  0.6956
13705TIP3    H262607   4.438   6.147  10.433  0.7969  0.7009 -0.7893
13706TIP3   OH262608   4.788   2.418  11.561 -0.4800 -0.2937 -0.1870
13706TIP3    H162609   4.777   2.407  11.655  0.2566  2.4795  0.2941
13706TIP3    H262610   4.853   2.351  11.537 -2.4105 -2.6454  0.7367
13707TIP3   OH262611   6.228   5.863  11.834 -0.2311 -0.1151 -0.3810
13707TIP3    H162612   6.251   5.939  11.889  0.7944 -0.8567  0.2539
13707TIP3    H262613   6.308   5.811  11.832 -1.1014 -1.4762 -0.3226
13708TIP3   OH262614   0.372   0.618   6.152  0.4361 -0.0948  0.1648
13708TIP3    H162615   0.346   0.526   6.158 -0.2253 -0.1363 -2.2681
13708TIP3    H262616   0.301   0.666   6.194 -0.8451 -0.5671 -1.3490
13709TIP3   OH262617   1.293   6.750   2.690  0.1168 -0.0962  0.0804
13709TIP3    H162618   1.335   6.827   2.728 -1.0485  2.3836 -3.2092
13709TIP3    H262619   1.218   6.733   2.748  1.2859  0.1431  1.7538
13710TIP3   OH262620   5.653   4.564  13.869  0.3113 -0.2152 -0.0401
13710TIP3    H162621   5.725   4.525  13.819  0.1496  0.4249 -0.7872
13710TIP3    H262622   5.574   4.526  13.830  0.2001 -0.0430  0.0177
13711TIP3   OH262623   4.903   5.086  16.196  0.1881  0.2455  0.3422
13711TIP3    H162624   4.863   5.049  16.274  1.1498 -1.2153  0.1964
13711TIP3    H262625   4.961   5.154  16.228 -0.2560  0.4176  0.7948
13712TIP3   OH262626   0.160   1.232  15.132  0.4737 -0.3398  0.4580
13712TIP3    H162627   0.068   1.225  15.159  0.8626  0.3628  2.0882
13712TIP3    H262628   0.209   1.234  15.214  1.9400 -0.4090 -0.3789
13713TIP3   OH262629   6.206   5.355   2.878  0.2266  0.1860  0.3390
13713TIP3    H162630   6.273   5.313   2.824  0.8963 -0.6905  1.7744
13713TIP3    H262631   6.239   5.444   2.893 -0.0282  0.4796 -0.7513
13714TIP3   OH262632   0.927   4.163   0.107 -0.3977 -0.4125 -0.2563
13714TIP3    H162633   1.010   4.117   0.120  1.0163  2.5885  2.9646
13714TIP3    H262634   0.941   4.216   0.029  0.0403 -1.1944 -0.7247
13715TIP3   OH262635   6.202   4.939   2.825  0.7155  0.0572 -0.0199
13715TIP3    H162636   6.120   4.970   2.863  0.7604  4.3585 -2.7777
13715TIP3    H262637   6.176   4.895   2.744  1.0705  0.8159 -0.5536
13716TIP3   OH262638   3.271   3.915   5.305 -0.0999 -0.9145 -0.1470
13716TIP3    H162639   3.216   3.872   5.371  0.1058  1.3532  1.6249
13716TIP3    H262640   3.352   3.863   5.303 -0.3039 -1.3055  1.0347
13717TIP3   OH262641   2.851   2.735  12.076  0.1573  0.5147 -0.2225
13717TIP3    H162642   2.888   2.774  11.996 -2.1056 -1.2876 -2.3190
13717TIP3    H262643   2.885   2.645  12.075  1.1577  0.8331  1.6525
13718TIP3   OH262644   3.764   6.515   2.536  0.5719  0.7954  0.2855
13718TIP3    H162645   3.788   6.565   2.614  1.0670 -0.8812  1.2835
13718TIP3    H262646   3.683   6.556   2.505 -0.1486  0.9901  2.2417
13719TIP3   OH262647   0.619   3.239  13.366 -0.2587 -0.6263  0.0105
13719TIP3    H162648   0.632   3.223  13.460 -0.1912  0.8129  0.2748
13719TIP3    H262649   0.539   3.290  13.361 -2.8801 -4.4352 -1.1538
13720TIP3   OH262650   1.008   5.997   2.837  0.4656  0.3289  0.6000
13720TIP3    H162651   0.914   5.980   2.828  0.8432 -2.5794  1.0806
13720TIP3    H262652   1.017   6.039   2.922 -0.2649 -1.6211  1.7201
13721TIP3   OH262653   1.967   4.282   2.250 -0.0499  0.3625  0.3168
13721TIP3    H162654   2.012   4.200   2.227 -0.8847  0.0206 -0.1541
13721TIP3    H262655   2.036   4.338   2.286  0.3013 -1.0547  1.9847
13722TIP3   OH262656   6.394   5.017   0.580  0.0852  0.7159  0.3394
13722TIP3    H162657   6.398   5.046   0.671 -0.3158 -1.4112  1.0980
13722TIP3    H262658   6.302   4.997   0.565  0.5938 -2.6279  0.8139
13723TIP3   OH262659   4.986   6.340   4.188 -0.3538  0.0210  0.2051
13723TIP3    H162660   4.912   6.348   4.127  0.6324 -0.5716 -1.1185
13723TIP3    H262661   5.048   6.282   4.143  1.6966  1.8617  0.4854
13724TIP3   OH262662   4.778   2.346   1.360 -0.3518 -0.0317  0.2037
13724TIP3    H162663   4.759   2.436   1.389  0.3060  0.9202 -2.0740
13724TIP3    H262664   4.693   2.309   1.340 -0.5371  0.7655 -0.5735
13725TIP3   OH262665   2.479   5.185  15.377 -0.2673  0.0797 -0.0701
13725TIP3    H162666   2.439   5.098  15.384  0.5802 -0.2816  0.6388
13725TIP3    H262667   2.514   5.189  15.288 -0.7312 -0.1227 -0.2598
13726TIP3   OH262668   6.500   6.671   3.142 -1.0101 -0.4892 -0.0364
13726TIP3    H162669   6.445   6.661   3.220 -2.4617  0.3974 -0.8908
13726TIP3    H262670   6.451   6.732   3.086  0.6886  0.0456 -1.0140
13727TIP3   OH262671   3.546   3.715   5.551  0.2020  0.6117 -0.0511
13727TIP3    H162672   3.638   3.726   5.573  0.2168  0.7930 -0.2064
13727TIP3    H262673   3.500   3.781   5.603 -0.0749 -0.8511  1.6819
13728TIP3   OH262674   1.428   3.487  16.473  0.2398  0.8394  0.0160
13728TIP3    H162675   1.335   3.484  16.447  0.7459  0.5905 -1.9576
13728TIP3    H262676   1.444   3.578  16.496  0.2743  1.6968 -3.0085
13729TIP3   OH262677   2.891   6.600  14.247 -0.1980  1.1258 -0.2792
13729TIP3    H162678   2.942   6.592  14.166 -0.3932  0.5859 -0.3515
13729TIP3    H262679   2.812   6.646  14.222 -0.5885  0.3238 -0.5506
13730TIP3   OH262680   3.014   2.964  13.252 -0.8929  0.2261  0.4033
13730TIP3    H162681   2.965   2.883  13.243 -1.5628  0.7968 -1.7490
13730TIP3    H262682   3.105   2.937  13.268 -0.3796 -1.1941 -3.6309
13731TIP3   OH262683   0.891   2.267  13.510 -0.2629  0.1674  0.3679
13731TIP3    H162684   0.819   2.208  13.533 -1.1138  1.8173  2.2074
13731TIP3    H262685   0.899   2.326  13.585  1.3367  1.6510 -0.8853
13732TIP3   OH262686   3.728   2.889  11.020  0.0004 -0.4154  0.4713
13732TIP3    H162687   3.818   2.872  10.992 -0.1757 -0.4255 -0.0855
13732TIP3    H262688   3.688   2.802  11.026 -0.3585 -0.3244 -0.5723
13733TIP3   OH262689   6.100   5.255  15.299  0.0834  0.0425  0.7045
13733TIP3    H162690   6.116   5.260  15.205 -0.1526 -0.2246  0.6497
13733TIP3    H262691   6.172   5.305  15.338 -0.5494  1.2889  0.3230
13734TIP3   OH262692   4.781   0.184   1.192 -0.0240  0.4574  0.5332
13734TIP3    H162693   4.714   0.141   1.139  0.4899 -1.4851  1.3721
13734TIP3    H262694   4.780   0.275   1.163 -2.6815  0.3872  0.1874
13735TIP3   OH262695   5.077   4.111  14.703  0.3121 -0.0878  0.2324
13735TIP3    H162696   5.076   4.023  14.741  0.0562 -0.9176 -1.5820
13735TIP3    H262697   5.165   4.122  14.669 -0.4108 -0.8422 -2.0592
13736TIP3   OH262698   4.751   3.399   0.044 -0.0278 -0.1639 -0.3363
13736TIP3    H162699   4.770   3.488   0.073 -1.2383  0.3892 -1.1532
13736TIP3    H262700   4.830   3.349   0.066  0.4919  0.9987  0.5537
13737TIP3   OH262701   5.305   0.693   5.844  0.4848  0.2544  0.4319
13737TIP3    H162702   5.229   0.659   5.890 -0.7111 -0.8062 -2.1338
13737TIP3    H262703   5.367   0.621   5.844 -0.7800 -0.9392 -2.2290
13738TIP3   OH262704   6.347   4.011  15.433 -0.2133 -0.6963 -0.4649
13738TIP3    H162705   6.309   3.963  15.359 -0.1645 -2.0502  0.3484
13738TIP3    H262706   6.431   3.969  15.448  0.9713  1.2812 -1.2726
13739TIP3   OH262707   0.516   5.461  17.202 -0.3972 -0.4203  0.2728
13739TIP3    H162708   0.554   5.528  17.260  0.4395  1.8011 -2.6068
13739TIP3    H262709   0.592   5.419  17.162 -0.9383 -0.3856 -0.8062
13740TIP3   OH262710   3.699   0.982   2.526  0.8684 -0.1193  0.4025
13740TIP3    H162711   3.641   0.906   2.522 -1.0043  1.2809 -0.1051
13740TIP3    H262712   3.672   1.037   2.453  2.3815  0.9235  0.5878
13741TIP3   OH262713   2.429   1.882  14.068 -0.0212 -0.5904 -0.7429
13741TIP3    H162714   2.442   1.800  14.020 -1.4132 -1.9651  1.1028
13741TIP3    H262715   2.336   1.901  14.059  0.0052  0.0020  0.0745
13742TIP3   OH262716   1.877   0.094   1.314 -0.0946  0.0752  0.5066
13742TIP3    H162717   1.883   0.114   1.221  0.3338 -1.2412  0.2246
13742TIP3    H262718   1.873   0.179   1.357 -2.0478  0.7168 -0.7932
13743TIP3   OH262719   2.826   2.367  11.032 -0.2228 -0.0998 -0.0023
13743TIP3    H162720   2.919   2.375  11.010 -0.5157  2.5913 -0.7078
13743TIP3    H262721   2.793   2.298  10.974  1.1303 -0.3831 -0.4563
13744TIP3   OH262722   1.405   2.753   2.414 -0.4532 -0.1299 -0.1993
13744TIP3    H162723   1.366   2.805   2.484  1.4144  0.3709  0.5045
13744TIP3    H262724   1.446   2.679   2.459 -0.4606 -0.5769 -0.9082
13745TIP3   OH262725   5.876   0.323   3.789  0.8358  0.5821 -0.0789
13745TIP3    H162726   5.900   0.334   3.881  1.5197  0.6852 -0.2666
13745TIP3    H262727   5.861   0.230   3.779  2.6797  0.2673 -0.3053
13746TIP3   OH262728   3.322   3.012  14.325 -0.2064 -0.2737  0.0599
13746TIP3    H162729   3.262   2.991  14.396 -0.4592  0.7242  0.1646
13746TIP3    H262730   3.407   2.980  14.354 -0.2999  0.1759  0.8471
13747TIP3   OH262731   5.773   6.637  12.735  0.1045  0.3288  0.5711
13747TIP3    H162732   5.710   6.566  12.750  1.5659 -0.9476  0.8483
13747TIP3    H262733   5.858   6.600  12.760  1.4960  0.9186 -2.7540
13748TIP3   OH262734   4.075   6.395   4.844  0.4668 -0.1065 -0.3550
13748TIP3    H162735   4.114   6.369   4.761 -0.1228 -0.3818 -0.5475
13748TIP3    H262736   4.043   6.484   4.829 -3.0722 -1.4380 -1.6737
13749TIP3   OH262737   6.314   2.460  15.192  0.6561  0.0064  0.1971
13749TIP3    H162738   6.369   2.531  15.158  0.0590 -0.0436 -0.9156
13749TIP3    H262739   6.248   2.504  15.244 -1.2247  0.6040 -2.4583
13750TIP3   OH262740   0.368   5.356   6.058  0.1171 -0.0925  0.5528
13750TIP3    H162741   0.381   5.274   6.010 -0.0995 -0.6178  1.3729
13750TIP3    H262742   0.322   5.330   6.138  2.6141  0.3458  2.2825
13751TIP3   OH262743   3.172   2.930  15.375 -0.3913  0.7183  0.4420
13751TIP3    H162744   3.173   2.962  15.465 -3.3790 -0.1879  0.9010
13751TIP3    H262745   3.200   2.839  15.381 -1.6754  0.3157  0.6816
13752TIP3   OH262746   6.667   6.021  14.474  0.1665  0.1092 -0.0762
13752TIP3    H162747   6.737   6.079  14.447 -0.3061  0.9198  0.4026
13752TIP3    H262748   6.593   6.079  14.492  0.5016 -0.3162  3.1488
13753TIP3   OH262749   0.770   2.372  12.594 -0.4117  0.0927  0.2709
13753TIP3    H162750   0.758   2.467  12.598  1.8726  0.5496 -1.6336
13753TIP3    H262751   0.776   2.353  12.501 -1.1667 -2.0099  0.6102
13754TIP3   OH262752   0.501   3.106   5.908 -0.3201  0.3898  0.1215
13754TIP3    H162753   0.455   3.188   5.892 -0.4444  0.0737 -1.2031
13754TIP3    H262754   0.467   3.046   5.843  1.1564 -0.1700 -0.1723
13755TIP3   OH262755   1.226   1.520  15.497 -0.3364 -0.1650 -0.0079
13755TIP3    H162756   1.190   1.432  15.504  0.1536 -0.3054  0.9587
13755TIP3    H262757   1.244   1.546  15.587  2.3145 -0.2550 -0.4192
13756TIP3   OH262758   6.353   4.353  11.871 -0.1198  0.3924 -0.0776
13756TIP3    H162759   6.353   4.272  11.924 -0.8626 -0.3435 -1.1665
13756TIP3    H262760   6.274   4.399  11.899 -0.2503  0.2411 -0.1943
13757TIP3   OH262761   5.652   1.821   2.121 -0.2025 -0.3739  0.8564
13757TIP3    H162762   5.643   1.867   2.204 -0.2992 -0.5446  0.9391
13757TIP3    H262763   5.707   1.746   2.140 -1.1585 -1.0490  1.0159
13758TIP3   OH262764   5.350   1.759  12.936  0.3070  0.3602  0.4811
13758TIP3    H162765   5.398   1.819  12.879 -1.0999  2.3258  1.2842
13758TIP3    H262766   5.272   1.807  12.962 -0.5169 -1.5592  1.7896
13759TIP3   OH262767   3.968   2.920  12.284  0.5971 -0.3632 -0.1389
13759TIP3    H162768   3.901   2.900  12.219  0.2895 -1.0143  0.3620
13759TIP3    H262769   4.036   2.855  12.269  0.1860 -1.0010  0.6556
13760TIP3   OH262770   5.428   2.366   1.843 -0.2123  0.5680  0.3109
13760TIP3    H162771   5.439   2.275   1.867 -0.2294  0.9300  1.7963
13760TIP3    H262772   5.375   2.364   1.764 -0.0654 -0.7064  0.2287
13761TIP3   OH262773   1.093   1.943   2.895  0.6866  0.2241 -0.2049
13761TIP3    H162774   1.163   1.895   2.850 -0.0447 -0.7560 -0.3255
13761TIP3    H262775   1.134   1.976   2.975  1.4105  0.0662 -0.5045
13762TIP3   OH262776   5.791   1.367  16.495  0.4793  0.3855  0.1455
13762TIP3    H162777   5.818   1.406  16.412 -0.5254  0.9233  0.0557
13762TIP3    H262778   5.851   1.294  16.508 -0.2965 -0.6548 -1.8256
13763TIP3   OH262779   5.856   3.778  14.710  0.2745  0.3175  0.3720
13763TIP3    H162780   5.815   3.835  14.645 -1.4146  0.0899  1.1602
13763TIP3    H262781   5.897   3.709  14.658 -1.8176 -0.3712 -0.5122
13764TIP3   OH262782   6.804   5.339  11.173  0.0802  0.1763 -0.1647
13764TIP3    H162783   6.721   5.367  11.135  0.6057 -0.8703 -2.2431
13764TIP3    H262784   6.871   5.382  11.120  0.9259  1.3590  1.7545
13765TIP3   OH262785   3.004   1.178   2.679  0.3754 -0.2781  0.0378
13765TIP3    H162786   3.039   1.122   2.749  0.7427  1.1221  1.0316
13765TIP3    H262787   3.029   1.267   2.706 -1.2220  0.4764 -0.8683
13766TIP3   OH262788   5.314   6.093  13.587 -0.4164 -0.2261 -0.3054
13766TIP3    H162789   5.320   6.019  13.648 -0.6073 -0.0141 -0.0242
13766TIP3    H262790   5.258   6.156  13.632  0.2709  0.3631 -0.2649
13767TIP3   OH262791   0.679   1.832   1.096  0.1093  0.0297  0.0416
13767TIP3    H162792   0.627   1.818   1.175 -0.1121 -0.3656 -0.1736
13767TIP3    H262793   0.738   1.905   1.119  0.1541 -0.1835  0.6222
13768TIP3   OH262794   1.609   3.646   3.996  0.6018  0.5396  1.1156
13768TIP3    H162795   1.514   3.658   3.997  0.6295  0.9722 -0.0435
13768TIP3    H262796   1.624   3.568   4.050 -0.6020 -0.6784 -0.2040
13769TIP3   OH262797   2.877   4.107  10.830  0.0467 -0.0898  0.1848
13769TIP3    H162798   2.961   4.063  10.836 -0.5013 -1.2914 -0.4566
13769TIP3    H262799   2.828   4.077  10.907 -0.2978 -0.5441 -0.2068
13770TIP3   OH262800   5.337   1.387  12.437  0.2690  0.0347  0.3852
13770TIP3    H162801   5.334   1.299  12.401 -2.8231  0.2279 -0.1367
13770TIP3    H262802   5.386   1.438  12.372  0.9871 -1.0270  0.0783
13771TIP3   OH262803   2.497   6.493  11.306  0.1030  0.6051  0.5458
13771TIP3    H162804   2.512   6.479  11.400  2.3390  2.1698  0.4954
13771TIP3    H262805   2.580   6.469  11.265  0.2371  2.8752 -0.6754
13772TIP3   OH262806   5.498   5.407  14.081 -0.2999 -0.0735 -0.0786
13772TIP3    H162807   5.512   5.392  13.987 -1.9312  1.1039 -0.5516
13772TIP3    H262808   5.408   5.438  14.087 -0.0025  0.5241  1.8198
13773TIP3   OH262809   6.733   2.338  15.720  0.0478  0.3774 -0.4046
13773TIP3    H162810   6.799   2.278  15.755 -0.1906 -0.5687 -1.5032
13773TIP3    H262811   6.771   2.372  15.640  0.1575  1.6952  0.1847
13774TIP3   OH262812   3.056   0.282  14.544 -0.6852  0.3840  0.1955
13774TIP3    H162813   3.018   0.286  14.457 -2.7992 -1.2673  0.9593
13774TIP3    H262814   3.148   0.259  14.530 -0.8116  0.8468 -1.5848
13775TIP3   OH262815   4.887   6.711  13.468 -0.2268 -0.1014  0.2463
13775TIP3    H162816   4.868   6.803  13.486 -0.8286 -0.1852  0.0670
13775TIP3    H262817   4.981   6.703  13.481  0.0315  0.8103 -0.9398
13776TIP3   OH262818   3.748   1.209  16.487  0.5138 -0.2304  0.7345
13776TIP3    H162819   3.669   1.160  16.511 -0.4388  1.8952  2.1846
13776TIP3    H262820   3.771   1.258  16.565  0.4520  2.8710 -1.0465
13777TIP3   OH262821   0.780   6.036  13.210 -0.2625  0.6793 -0.2402
13777TIP3    H162822   0.819   5.964  13.160  0.9206 -1.1658  3.0787
13777TIP3    H262823   0.688   6.012  13.220 -0.6070  1.2521 -1.6734
13778TIP3   OH262824   0.834   1.501   2.122  0.6558 -0.7913 -0.1483
13778TIP3    H162825   0.922   1.487   2.085 -0.0595 -1.2937 -1.7745
13778TIP3    H262826   0.791   1.416   2.114 -0.9313  0.1113 -2.1589
13779TIP3   OH262827   4.733   4.827   4.119 -0.0831  0.0450  0.1514
13779TIP3    H162828   4.658   4.887   4.110 -0.4520 -0.6294 -1.6801
13779TIP3    H262829   4.737   4.781   4.035  0.5010 -2.1631  1.3270
13780TIP3   OH262830   1.353   4.678  16.909 -0.7449  0.1683 -0.0198
13780TIP3    H162831   1.371   4.657  17.001 -0.5414  1.4945  0.2650
13780TIP3    H262832   1.402   4.758  16.893 -0.3136 -0.3567 -1.4736
13781TIP3   OH262833   1.154   3.873   3.550 -0.1632 -0.5756  0.5334
13781TIP3    H162834   1.233   3.889   3.498 -0.5412 -1.9328 -0.5528
13781TIP3    H262835   1.145   3.950   3.605  0.8817  0.4487 -0.6524
13782TIP3   OH262836   3.694   2.222  11.533 -0.4088  0.1281 -0.0548
13782TIP3    H162837   3.720   2.294  11.591  1.7854  0.2803 -1.1087
13782TIP3    H262838   3.697   2.144  11.588  0.5907  0.4150  0.3211
13783TIP3   OH262839   6.287   1.804  17.164 -0.2381 -0.3100  0.1061
13783TIP3    H162840   6.251   1.717  17.146  2.7273 -2.2573  2.5102
13783TIP3    H262841   6.370   1.806  17.116 -0.1095  1.0920  0.3508
13784TIP3   OH262842   5.073   2.516   6.079 -0.1935 -0.4497  0.0564
13784TIP3    H162843   5.063   2.424   6.101 -2.2423 -0.1637  0.5572
13784TIP3    H262844   4.995   2.537   6.027  0.8953  0.6861 -1.1916
13785TIP3   OH262845   0.485   4.341  13.534  0.2268  0.2674 -0.4285
13785TIP3    H162846   0.537   4.302  13.604 -3.2438 -2.7302  0.7732
13785TIP3    H262847   0.525   4.307  13.453  1.3169 -0.3576  0.3505
13786TIP3   OH262848   6.374   3.641  11.649  0.2882  0.4754  0.1964
13786TIP3    H162849   6.426   3.682  11.580 -1.5656  3.1476  0.2213
13786TIP3    H262850   6.428   3.648  11.727 -0.1079  3.5488  0.3115
13787TIP3   OH262851   2.777   0.782   3.721 -0.1489 -0.3192  0.1636
13787TIP3    H162852   2.861   0.807   3.684 -0.2142 -0.5435 -0.1352
13787TIP3    H262853   2.768   0.837   3.800  0.2134 -0.2041  0.1238
13788TIP3   OH262854   5.885   5.251  16.256  0.4121 -0.2892  0.7273
13788TIP3    H162855   5.799   5.293  16.258 -0.0575 -1.2516  1.6978
13788TIP3    H262856   5.874   5.177  16.197  0.9741  0.3679 -0.2295
13789TIP3   OH262857   4.461   6.388   0.376  0.0523  0.3862  0.3591
13789TIP3    H162858   4.489   6.411   0.288  0.5829  1.4134  0.7714
13789TIP3    H262859   4.539   6.350   0.417 -0.5371 -1.2917  0.0111
13790TIP3   OH262860   4.772   1.148  16.036  0.1900  0.3333 -0.2203
13790TIP3    H162861   4.753   1.223  15.980 -1.1336 -0.0364 -0.2870
13790TIP3    H262862   4.770   1.072  15.977 -0.2629  0.0508  0.1538
13791TIP3   OH262863   4.975   3.796   1.554 -0.2898  0.2900 -0.1452
13791TIP3    H162864   4.934   3.878   1.583 -0.9434  0.6512 -1.9451
13791TIP3    H262865   5.067   3.817   1.542 -0.3497  0.6067 -0.0389
13792TIP3   OH262866   0.421   3.018   2.715 -0.3607  0.2917  0.4047
13792TIP3    H162867   0.503   2.976   2.689 -0.3479  0.3999  0.2689
13792TIP3    H262868   0.413   2.999   2.808  0.8543  1.9902  0.9022
13793TIP3   OH262869   5.691   0.338   0.760  0.0396 -0.3419  0.1281
13793TIP3    H162870   5.666   0.291   0.839 -0.4733  0.5393  0.5029
13793TIP3    H262871   5.681   0.431   0.783  2.7438  0.0734  0.0099
13794TIP3   OH262872   2.818   6.357  17.117 -0.1769  0.0908 -0.0886
13794TIP3    H162873   2.781   6.445  17.122  0.6503  0.4116  0.6248
13794TIP3    H262874   2.796   6.316  17.200 -1.4895 -0.7842 -0.8295
13795TIP3   OH262875   5.075   3.852   2.063  0.0563  0.0603 -0.3112
13795TIP3    H162876   5.005   3.876   2.001 -0.9901 -0.3952  0.6680
13795TIP3    H262877   5.147   3.823   2.007 -1.0657 -0.8845 -1.3296
13796TIP3   OH262878   4.503   4.246  16.362 -0.2504 -0.5235  0.5044
13796TIP3    H162879   4.431   4.218  16.420 -0.6358  0.6289  0.6226
13796TIP3    H262880   4.486   4.339  16.347  1.2712 -0.2086  0.5885
13797TIP3   OH262881   2.322   2.726   0.303 -0.2518  0.4772  0.0272
13797TIP3    H162882   2.258   2.657   0.291  1.2698 -0.6617 -2.2662
13797TIP3    H262883   2.300   2.791   0.237  0.4582  0.4750 -0.2149
13798TIP3   OH262884   5.263   1.987   3.920  0.1246 -0.5746  0.2811
13798TIP3    H162885   5.351   2.014   3.948 -0.6177  1.7673  0.5917
13798TIP3    H262886   5.206   2.058   3.949 -1.5777 -0.9965 -1.7734
13799TIP3   OH262887   5.255   6.058  14.670  0.5027  0.2903  0.1809
13799TIP3    H162888   5.299   6.035  14.751  0.7326  1.7558  0.5054
13799TIP3    H262889   5.314   6.026  14.601  0.9146  0.1353  0.6013
13800TIP3   OH262890   0.659   6.219  11.850  0.2714  0.1289 -0.0073
13800TIP3    H162891   0.683   6.194  11.939 -0.4482  1.0478  0.4709
13800TIP3    H262892   0.592   6.156  11.825 -0.0165  0.2790  0.3743
13801TIP3   OH262893   4.895   2.851  13.886  0.5808 -0.5000 -0.2380
13801TIP3    H162894   4.849   2.934  13.898  2.1635  0.5144 -0.8251
13801TIP3    H262895   4.825   2.787  13.872 -0.6924  0.6752  0.4492
13802TIP3   OH262896   2.267   6.563  14.946  0.0717  0.0776 -0.0360
13802TIP3    H162897   2.259   6.638  15.005  0.4385  0.2243 -0.1639
13802TIP3    H262898   2.303   6.600  14.865 -0.0715 -0.1812 -0.2207
13803TIP3   OH262899   3.927   6.273  14.524  0.3652  0.2246  0.7174
13803TIP3    H162900   3.942   6.193  14.475 -1.0719 -0.0328  0.6600
13803TIP3    H262901   3.875   6.246  14.600 -2.8960  1.4700 -0.9155
13804TIP3   OH262902   1.548   0.127   2.145  0.1258  0.5930 -0.7157
13804TIP3    H162903   1.592   0.050   2.180  0.0600  0.0860 -1.7023
13804TIP3    H262904   1.616   0.171   2.093  0.1749  1.2343 -0.1243
13805TIP3   OH262905   2.817   2.591   1.601  0.6191  0.2822  0.5849
13805TIP3    H162906   2.805   2.561   1.692 -1.0450  1.4432  0.7879
13805TIP3    H262907   2.789   2.516   1.548 -1.3774  0.6211  1.0753
13806TIP3   OH262908   1.504   5.985  17.084 -0.2034 -0.2627  0.3244
13806TIP3    H162909   1.511   6.014  16.993 -0.5416  0.1199  0.4200
13806TIP3    H262910   1.592   5.994  17.119 -0.0878 -0.3378  0.0595
13807TIP3   OH262911   1.076   4.414  15.972  0.0619 -0.5123 -0.1625
13807TIP3    H162912   0.995   4.431  15.924 -0.9486 -1.7329  1.0343
13807TIP3    H262913   1.142   4.399  15.904 -0.5984  0.8780 -1.1601
13808TIP3   OH262914   2.992   0.501   1.808  1.2380 -0.3278  0.3748
13808TIP3    H162915   3.034   0.503   1.894 -2.2627 -0.6139  2.2680
13808TIP3    H262916   3.028   0.423   1.766  2.4852 -0.6094  1.8449
13809TIP3   OH262917   5.483   3.246   3.761 -0.6180 -0.7001 -0.2274
13809TIP3    H162918   5.430   3.224   3.684 -1.7151 -1.1085  0.6214
13809TIP3    H262919   5.544   3.172   3.770 -0.7689 -0.8529 -0.4519
13810TIP3   OH262920   6.416   2.069  11.858 -0.2261 -0.7149  0.1532
13810TIP3    H162921   6.445   2.153  11.822 -1.7490 -0.4209 -0.4940
13810TIP3    H262922   6.429   2.078  11.952  1.3921 -0.4977 -0.0574
13811TIP3   OH262923   2.746   2.331  12.969 -0.2854 -0.4426 -0.1370
13811TIP3    H162924   2.736   2.311  12.876 -1.5166 -0.0667 -0.1021
13811TIP3    H262925   2.797   2.258  13.004  1.2694  0.0309 -1.3320
13812TIP3   OH262926   4.397   1.575   2.378  0.1568  0.1770 -0.1895
13812TIP3    H162927   4.462   1.643   2.392 -0.5373  0.8271 -0.0639
13812TIP3    H262928   4.344   1.607   2.305  1.7761 -1.7087 -2.3336
13813TIP3   OH262929   3.423   0.496  15.475  0.4795 -0.2023 -0.1734
13813TIP3    H162930   3.330   0.513  15.494  0.2545 -1.2735 -0.2124
13813TIP3    H262931   3.469   0.522  15.555 -0.0971 -1.5514  0.6426
13814TIP3   OH262932   2.323   1.798   0.985  0.0715  0.8246  0.3587
13814TIP3    H162933   2.261   1.750   0.930 -1.1477  0.2325  2.1599
13814TIP3    H262934   2.405   1.796   0.936 -0.5171 -1.1644 -0.6593
13815TIP3   OH262935   0.169   0.011  15.676 -0.0788 -0.3147 -0.0082
13815TIP3    H162936   0.157  -0.076  15.714 -0.3950 -0.1621  0.2503
13815TIP3    H262937   0.123   0.069  15.736  0.3283  0.0604 -0.0562
13816TIP3   OH262938   0.494   6.172   6.185 -0.7684 -0.0620  0.6317
13816TIP3    H162939   0.475   6.235   6.114  0.2069  0.0575  0.4653
13816TIP3    H262940   0.430   6.102   6.172 -0.0114 -0.5012 -0.9608
13817TIP3   OH262941   1.280   1.368  14.186  0.7467 -0.7629  0.1506
13817TIP3    H162942   1.366   1.405  14.167  0.6287 -0.5756 -0.0202
13817TIP3    H262943   1.247   1.417  14.261  0.1819  0.1376 -0.6628
13818TIP3   OH262944   2.330   4.561   4.927  0.4427  0.4996 -0.3287
13818TIP3    H162945   2.368   4.649   4.925 -0.0342  0.7082 -0.3191
13818TIP3    H262946   2.341   4.532   5.018  0.3695  0.6527 -0.2704
13819TIP3   OH262947   3.625   6.245  13.404 -0.1757  0.2682 -0.0600
13819TIP3    H162948   3.706   6.286  13.435 -1.3898  2.3262  0.5700
13819TIP3    H262949   3.629   6.155  13.437  3.1288 -0.6839 -2.4607
13820TIP3   OH262950   5.520   2.167   2.474 -0.4994  0.0357  0.7447
13820TIP3    H162951   5.464   2.216   2.413  1.6051  0.8123 -0.6810
13820TIP3    H262952   5.560   2.234   2.529 -1.9029 -0.6174  2.6483
13821TIP3   OH262953   6.615   2.983   1.654  0.1599  0.8205  0.3326
13821TIP3    H162954   6.622   3.052   1.588 -1.4589  0.5060 -0.1962
13821TIP3    H262955   6.576   3.026   1.730 -0.3569  0.6208  0.1853
13822TIP3   OH262956   1.568   2.030   1.128  0.3086  0.5757 -0.2749
13822TIP3    H162957   1.633   2.073   1.184 -0.2470  0.5378  0.4154
13822TIP3    H262958   1.558   2.089   1.053  1.3817  0.4125 -0.5567
13823TIP3   OH262959   6.266   1.491   5.429  0.3922 -0.0715 -0.0698
13823TIP3    H162960   6.194   1.501   5.366  0.8354  0.5989 -0.4820
13823TIP3    H262961   6.304   1.406   5.409  0.3248 -0.0024 -0.4989
13824TIP3   OH262962   4.718   6.229   4.898  0.3614  0.5545  0.3140
13824TIP3    H162963   4.734   6.139   4.926 -1.4208  0.6347  1.7755
13824TIP3    H262964   4.723   6.280   4.979  3.1171  2.1159 -0.7067
13825TIP3   OH262965   1.247   2.950  11.300 -0.3763 -0.7830  0.0512
13825TIP3    H162966   1.161   2.961  11.340 -1.0805 -2.6939 -0.8135
13825TIP3    H262967   1.263   2.855  11.305 -0.1157 -1.0184 -3.3264
13826TIP3   OH262968   0.497   5.957  16.258  0.2126  0.0016 -0.1561
13826TIP3    H162969   0.467   6.028  16.202 -0.3966  0.9475  1.3067
13826TIP3    H262970   0.593   5.958  16.249  0.6066  3.4177  2.4410
13827TIP3   OH262971   6.168   4.980   4.652  0.3929 -0.2515  0.1017
13827TIP3    H162972   6.099   4.928   4.612 -1.4168  0.7291  1.8115
13827TIP3    H262973   6.146   5.070   4.630  1.7382  0.0372 -0.1852
13828TIP3   OH262974   0.950   6.179  11.091  0.3280 -0.3527  0.3784
13828TIP3    H162975   0.901   6.245  11.140 -0.0293 -1.6851  1.8778
13828TIP3    H262976   1.038   6.181  11.128  0.0401 -1.4081  1.1618
13829TIP3   OH262977   3.828   1.141  13.487  0.2154 -0.1346 -0.5009
13829TIP3    H162978   3.909   1.154  13.437 -0.0948  1.6481 -0.6359
13829TIP3    H262979   3.790   1.061  13.452  2.0335 -1.1460 -0.2496
13830TIP3   OH262980   4.295   6.137   1.377  0.5597 -0.4362  0.5906
13830TIP3    H162981   4.373   6.130   1.432 -0.1795  1.3545  1.9993
13830TIP3    H262982   4.228   6.174   1.436 -0.6421  0.3873 -1.1929
13831TIP3   OH262983   5.135   1.282   0.794  0.6027 -0.6155  0.2119
13831TIP3    H162984   5.111   1.267   0.703  0.1040 -1.7260  0.5057
13831TIP3    H262985   5.178   1.368   0.794 -0.9818  0.2187 -0.7730
13832TIP3   OH262986   6.611   3.109   2.758 -0.2882  0.0608  0.1011
13832TIP3    H162987   6.546   3.091   2.691 -0.5339 -1.2536  0.6613
13832TIP3    H262988   6.648   3.193   2.733 -1.3091  0.2343 -0.9294
13833TIP3   OH262989   1.998   4.457  10.770 -0.0044  0.3297 -0.6128
13833TIP3    H162990   2.021   4.364  10.775  0.7029  0.4818 -0.9773
13833TIP3    H262991   1.905   4.459  10.795  0.5550 -0.1760  1.7607
13834TIP3   OH262992   3.407   2.129   2.899 -0.7815 -0.2820  0.3405
13834TIP3    H162993   3.410   2.093   2.987 -0.1647 -1.6193 -0.2002
13834TIP3    H262994   3.382   2.220   2.911  1.0727  0.0532  2.0351
13835TIP3   OH262995   0.144   3.681  16.475 -0.1981 -0.3987 -0.2647
13835TIP3    H162996   0.125   3.648  16.563  1.7475 -1.5918 -0.2236
13835TIP3    H262997   0.066   3.658  16.424 -1.6368  0.8686  1.2208
13836TIP3   OH262998   3.096   2.970  10.232  0.0989 -0.2446  0.0144
13836TIP3    H162999   3.081   3.014  10.149  4.0742 -0.0470 -0.7840
13836TIP3    H263000   3.079   2.877  10.214 -0.9883  0.0232 -0.4066
13837TIP3   OH263001   4.820   1.371  13.973 -0.4660 -0.3711  0.0810
13837TIP3    H163002   4.908   1.405  13.989 -0.6361 -0.4569  1.2615
13837TIP3    H263003   4.821   1.344  13.881  0.4762  0.3963 -0.1517
13838TIP3   OH263004   1.529   4.866  10.206  0.5005  0.7963  0.3764
13838TIP3    H163005   1.620   4.841  10.223  0.2289  1.5885  3.6468
13838TIP3    H263006   1.477   4.798  10.250 -0.5944  0.2460 -1.6024
13839TIP3   OH263007   1.759   5.782  15.153  0.0899 -0.0839 -0.2338
13839TIP3    H163008   1.830   5.817  15.099 -0.8990  0.0385 -1.5113
13839TIP3    H263009   1.725   5.858  15.200  0.1403  0.0464 -0.4075
13840TIP3   OH263010   6.822   5.904  15.743  0.0019  0.2924 -0.1033
13840TIP3    H163011   6.772   5.899  15.824  0.4733 -0.3121  0.1639
13840TIP3    H263012   6.821   5.997  15.718  2.5207  1.1201  2.3243
13841TIP3   OH263013   4.659   6.016   4.483 -0.1857  0.1114 -0.4935
13841TIP3    H163014   4.667   5.969   4.566  0.2829 -1.3164 -1.3078
13841TIP3    H263015   4.730   5.981   4.429 -0.2739  1.2556 -1.3843
13842TIP3   OH263016   6.430   6.219   3.792  0.0437  0.0156  0.0663
13842TIP3    H163017   6.414   6.131   3.826  2.3294 -0.0452  1.1660
13842TIP3    H263018   6.350   6.267   3.813 -1.1897 -1.7230 -0.4201
13843TIP3   OH263019   5.155   6.588  15.421  0.5633  0.3250 -0.9279
13843TIP3    H163020   5.125   6.603  15.331 -1.0554  2.6443 -0.1134
13843TIP3    H263021   5.237   6.637  15.428 -0.3733  1.9268 -0.6316
13844TIP3   OH263022   5.604   5.918   4.559 -0.0210 -0.5596  0.4070
13844TIP3    H163023   5.515   5.924   4.524 -0.8961  0.5178  2.6172
13844TIP3    H263024   5.622   6.006   4.593  1.8480 -0.7971  0.1194
13845TIP3   OH263025   0.857   4.543   3.051 -0.4456  0.5955 -0.4388
13845TIP3    H163026   0.933   4.596   3.073  0.4041 -1.2928  1.5117
13845TIP3    H263027   0.790   4.570   3.114 -0.0298 -0.5442  0.5191
13846TIP3   OH263028   5.280   1.935  16.536 -0.6097  0.0769 -0.2060
13846TIP3    H163029   5.185   1.942  16.533 -0.7245 -1.2228  0.1296
13846TIP3    H263030   5.303   1.878  16.463  0.0262  1.2429 -0.9559
13847TIP3   OH263031   0.596   5.938   1.880 -0.0314  0.3338 -0.0591
13847TIP3    H163032   0.680   5.899   1.906 -0.8740 -0.9821  0.7746
13847TIP3    H263033   0.619   5.999   1.810  1.7488  0.7131  0.7931
13848TIP3   OH263034   4.928   1.646  16.926  0.2009  0.2883  0.5862
13848TIP3    H163035   4.909   1.718  16.866  2.7713 -0.0260 -0.7693
13848TIP3    H263036   4.953   1.689  17.008 -0.6145  0.8303  0.5606
13849TIP3   OH263037   2.959   6.362   6.576  0.2760  0.0145  0.0190
13849TIP3    H163038   2.995   6.313   6.502 -1.3732  0.0171 -0.8358
13849TIP3    H263039   2.864   6.354   6.566  0.0000  0.1289  2.0776
13850TIP3   OH263040   2.758   0.210  16.263  0.8217  0.3048  0.0470
13850TIP3    H163041   2.812   0.189  16.186 -0.0123  0.6635 -0.6526
13850TIP3    H263042   2.695   0.138  16.268  0.4747  0.6076  0.0177
13851TIP3   OH263043   4.472   5.852   2.788  0.1439 -0.6836  0.1117
13851TIP3    H163044   4.499   5.786   2.725 -1.3350 -0.3022 -0.9742
13851TIP3    H263045   4.427   5.919   2.735  1.2769  1.0361  1.2003
13852TIP3   OH263046   6.214   5.937   5.234  0.3073  0.6442 -0.3321
13852TIP3    H163047   6.246   5.861   5.186 -2.7654  0.2317 -2.0087
13852TIP3    H263048   6.242   6.012   5.182  0.7521  0.4786 -0.3332
13853TIP3   OH263049   1.929   1.487  16.945  0.0729 -0.3037  0.2258
13853TIP3    H163050   1.899   1.396  16.946 -1.1701  0.0821 -0.0871
13853TIP3    H263051   1.879   1.529  17.016  0.7413  0.1063  0.4632
13854TIP3   OH263052   2.071   1.538  12.298  0.2543  0.1715 -0.2958
13854TIP3    H163053   2.060   1.565  12.390  1.1910  1.9897 -0.6740
13854TIP3    H263054   2.131   1.464  12.302  0.8137  0.6460  0.5292
13855TIP3   OH263055   6.129   3.610  16.400 -0.0518 -0.2773 -0.3229
13855TIP3    H163056   6.081   3.688  16.426 -1.4879 -0.7380 -1.4476
13855TIP3    H263057   6.104   3.596  16.308 -0.8891 -2.7730  0.2031
13856TIP3   OH263058   2.212   6.799   5.274  0.1924 -0.3881  0.1503
13856TIP3    H163059   2.207   6.704   5.278  1.2931 -0.4243  1.2127
13856TIP3    H263060   2.121   6.828   5.259 -0.0665 -1.5993 -0.7554
13857TIP3   OH263061   4.334   4.376   2.303 -0.2799  0.1612 -0.0724
13857TIP3    H163062   4.240   4.356   2.311 -0.8152  1.9388 -1.3151
13857TIP3    H263063   4.376   4.290   2.297 -2.1423 -0.6989 -2.4688
13858TIP3   OH263064   1.680   5.663  16.078 -0.3982 -0.4648 -0.3458
13858TIP3    H163065   1.652   5.754  16.081  1.2780  0.0660  1.0723
13858TIP3    H263066   1.600   5.612  16.095 -1.1630  0.7789 -0.1017
13859TIP3   OH263067   4.919   5.577  14.911  0.0490  0.3713 -0.3617
13859TIP3    H163068   4.849   5.564  14.974 -0.3249  0.7193 -0.7024
13859TIP3    H263069   4.975   5.500  14.921  0.6437  0.9824  1.1978
13860TIP3   OH263070   4.207   2.303  17.203 -0.6189  0.1156 -0.4630
13860TIP3    H163071   4.142   2.234  17.189  0.2840 -1.5036  2.4906
13860TIP3    H263072   4.156   2.383  17.215 -1.8154 -0.4302 -1.6150
13861TIP3   OH263073   6.256   3.969  13.143 -0.3169 -0.3856  0.0458
13861TIP3    H163074   6.309   3.918  13.082  0.8734 -1.1181  1.5938
13861TIP3    H263075   6.186   3.909  13.170  0.0658 -0.6254  0.5397
13862TIP3   OH263076   4.511   0.573  11.299 -0.0644 -0.6422  0.6945
13862TIP3    H163077   4.431   0.519  11.301 -1.6232  1.4211 -1.0973
13862TIP3    H263078   4.538   0.572  11.207  0.8089  0.3424  0.9282
13863TIP3   OH263079   3.591   2.181   6.111  0.2264  0.0798 -0.5303
13863TIP3    H163080   3.628   2.209   6.194  0.2520 -2.1547  0.2690
13863TIP3    H263081   3.667   2.158   6.057  0.1456 -1.5858  0.0238
13864TIP3   OH263082   0.634   1.019   2.599 -0.2708  0.0476  0.0864
13864TIP3    H163083   0.685   1.100   2.603  1.9893 -1.2834 -0.3011
13864TIP3    H263084   0.607   1.004   2.689  0.5355  0.4997  0.4194
13865TIP3   OH263085   3.201   2.112   5.809  0.4419 -0.2585  0.0730
13865TIP3    H163086   3.194   2.026   5.851 -1.1358 -0.8373 -1.3012
13865TIP3    H263087   3.259   2.161   5.867 -1.1251 -1.2110  2.6146
13866TIP3   OH263088   1.232   4.529   1.276 -0.1256  0.0376 -0.7753
13866TIP3    H163089   1.191   4.615   1.288 -0.9462 -0.3872 -0.5012
13866TIP3    H263090   1.219   4.509   1.183  0.8161  0.5753 -1.0398
13867TIP3   OH263091   3.530   3.890  14.456 -0.0889  0.2723 -0.4934
13867TIP3    H163092   3.508   3.809  14.409 -2.1234 -0.2591  1.2225
13867TIP3    H263093   3.625   3.888  14.464 -0.0639 -1.7910 -0.7822
13868TIP3   OH263094   3.718   1.154  14.456 -0.1015 -0.5426  0.9889
13868TIP3    H163095   3.649   1.192  14.401  1.0216  0.0906 -0.0362
13868TIP3    H263096   3.762   1.230  14.494 -0.9416 -0.9711  2.9273
13869TIP3   OH263097   1.869   1.873   1.196  0.4122 -0.1286  0.0673
13869TIP3    H163098   1.813   1.930   1.143 -1.5356 -1.4518  0.5743
13869TIP3    H263099   1.958   1.902   1.177 -0.4470  3.0839  0.3324
13870TIP3   OH263100   1.566   2.664  10.429  0.3314 -0.2807  0.0941
13870TIP3    H163101   1.562   2.617  10.513 -0.3627 -0.7374 -0.1858
13870TIP3    H263102   1.573   2.594  10.364 -0.3068  0.0196 -0.3054
13871TIP3   OH263103   0.356   6.250   5.351 -0.4100 -0.3920  0.2772
13871TIP3    H163104   0.411   6.313   5.399  0.2290 -0.4832 -0.3227
13871TIP3    H263105   0.287   6.303   5.312 -0.1556 -0.1276  0.1813
13872TIP3   OH263106   1.277   3.413  15.078 -0.2496  0.5740 -0.1859
13872TIP3    H163107   1.350   3.366  15.040  0.4047 -0.5659  2.3168
13872TIP3    H263108   1.284   3.502  15.042  2.1735  0.4084 -0.2352
13873TIP3   OH263109   0.287   4.976  13.745  0.0067  0.0447  0.2667
13873TIP3    H163110   0.314   5.043  13.807  0.4773 -0.3804  0.5281
13873TIP3    H263111   0.343   4.989  13.668 -1.5802  1.5321 -0.7134
13874TIP3   OH263112   1.508   1.775   4.348 -0.0423 -0.1131 -0.2381
13874TIP3    H163113   1.591   1.801   4.309 -0.6473  1.3980 -0.5935
13874TIP3    H263114   1.488   1.845   4.411  0.1026 -1.6480  1.6108
13875TIP3   OH263115   3.462   4.509  16.256 -0.3077  0.3455 -0.6187
13875TIP3    H163116   3.547   4.499  16.298  0.4679 -1.5818 -2.4690
13875TIP3    H263117   3.416   4.427  16.275 -1.4350  1.0002 -0.3942
13876TIP3   OH263118   5.778   4.728   2.690 -0.4398 -0.1493 -0.1726
13876TIP3    H163119   5.751   4.819   2.704 -0.4478 -0.1346 -0.2858
13876TIP3    H263120   5.847   4.733   2.624 -0.9991 -0.2977 -0.7734
13877TIP3   OH263121   5.051   6.433  15.617 -0.1003 -0.0330 -0.3290
13877TIP3    H163122   4.975   6.377  15.602  0.6789 -1.1361 -0.3552
13877TIP3    H263123   5.079   6.459  15.529 -0.5419  0.5209 -0.3107
13878TIP3   OH263124   4.523   6.273  15.801  0.2646 -0.5578 -0.4828
13878TIP3    H163125   4.577   6.343  15.840 -0.0917 -1.3059  1.4808
13878TIP3    H263126   4.442   6.275  15.852 -0.5887 -1.0640 -1.7762
13879TIP3   OH263127   5.276   6.676   4.990 -0.1047 -0.2631  0.3749
13879TIP3    H163128   5.341   6.662   5.058 -3.0269 -0.1491  3.4748
13879TIP3    H263129   5.327   6.691   4.910  3.5346 -2.2009  2.0771
13880TIP3   OH263130   6.760   0.612   0.173  0.1433  0.2492 -0.0768
13880TIP3    H163131   6.730   0.692   0.217 -0.4443  0.4099 -0.7491
13880TIP3    H263132   6.795   0.558   0.244  0.5166  1.0846  0.3915
13881TIP3   OH263133   1.723   2.956   4.171 -0.4557 -0.4133 -0.5333
13881TIP3    H163134   1.703   2.917   4.086 -1.1582 -2.1033  0.3585
13881TIP3    H263135   1.740   3.048   4.152 -1.2109 -0.6218 -2.4122
13882TIP3   OH263136   6.018   5.135  12.147 -0.1476  0.0180  0.2193
13882TIP3    H163137   5.978   5.048  12.147  1.1385 -0.6068 -0.6646
13882TIP3    H263138   5.980   5.179  12.071  1.3866 -0.8959 -1.1668
13883TIP3   OH263139   3.251   3.195  10.787  0.6872 -0.0924 -0.5576
13883TIP3    H163140   3.233   3.197  10.693 -0.9119 -2.3724 -0.4013
13883TIP3    H263141   3.200   3.268  10.822 -0.8578 -0.7886 -1.2312
13884TIP3   OH263142   1.488   6.583   0.751  0.1279  0.2437 -0.3379
13884TIP3    H163143   1.466   6.674   0.733  1.3912  0.4310 -1.0874
13884TIP3    H263144   1.471   6.537   0.669 -0.9002 -0.2857  0.1586
13885TIP3   OH263145   4.672   6.198   3.177  0.2002 -0.1542 -0.0591
13885TIP3    H163146   4.688   6.105   3.160  2.1338 -0.0422  0.9802
13885TIP3    H263147   4.679   6.239   3.090  0.9310 -0.7748 -0.3056
13886TIP3   OH263148   2.426   6.343  16.541 -0.4178 -0.4491 -0.3208
13886TIP3    H163149   2.351   6.284  16.540 -2.1403  1.4232  2.8858
13886TIP3    H263150   2.420   6.388  16.625  3.0899  1.4029 -0.8822
13887TIP3   OH263151   5.522   6.064  17.094 -0.2939  0.4273 -1.0175
13887TIP3    H163152   5.504   5.994  17.031  0.4093 -1.1784  0.4778
13887TIP3    H263153   5.608   6.097  17.068  0.0204 -0.2679 -0.9093
13888TIP3   OH263154   5.902   2.815  15.870 -0.0200  0.5563 -0.0694
13888TIP3    H163155   5.957   2.822  15.792 -1.4243 -2.8336 -1.5249
13888TIP3    H263156   5.964   2.796  15.941  1.1727  2.6873 -0.4648
13889TIP3   OH263157   6.698   6.650  15.957 -0.0927  0.1340  0.5985
13889TIP3    H163158   6.655   6.581  16.006 -1.7240  0.8099  0.1815
13889TIP3    H263159   6.647   6.729  15.977  0.0989  0.6945 -1.0049
13890TIP3   OH263160   6.784   1.216  11.303  0.2185 -0.0016  0.1342
13890TIP3    H163161   6.841   1.168  11.243  0.0263 -0.8874  0.6387
13890TIP3    H263162   6.702   1.228  11.255 -0.2493 -1.4806  0.4852
13891TIP3   OH263163   4.074   0.881   2.934 -0.0510 -0.5385 -0.1374
13891TIP3    H163164   4.075   0.951   2.868 -1.3354  0.1206  0.4956
13891TIP3    H263165   4.051   0.802   2.885 -1.7054  0.0683 -0.4258
13892TIP3   OH263166   6.264   0.233  11.176 -0.2265 -0.5948  0.1259
13892TIP3    H163167   6.323   0.180  11.122 -0.2058 -0.1695 -0.2767
13892TIP3    H263168   6.306   0.237  11.261  0.7259  0.3489 -0.3691
13893TIP3   OH263169   0.737   0.017  15.290  0.0097 -0.5571 -0.2297
13893TIP3    H163170   0.780   0.103  15.287 -0.4084 -0.3762 -1.2169
13893TIP3    H263171   0.659   0.032  15.345  0.1613 -0.4084 -0.0527
13894TIP3   OH263172   1.626   3.767   3.457  0.2072  0.3140 -0.3327
13894TIP3    H163173   1.608   3.861   3.458 -0.2236  0.2528 -1.1937
13894TIP3    H263174   1.551   3.729   3.503  0.1807  0.3569 -0.3400
13895TIP3   OH263175   2.046   6.442   1.689 -0.7238 -0.0964  0.3312
13895TIP3    H163176   1.998   6.461   1.608 -0.1118 -1.7138 -0.4532
13895TIP3    H263177   2.126   6.493   1.682 -1.2362  0.7415  0.5125
13896TIP3   OH263178   5.307   4.945  13.063 -0.7971  0.4111  0.5241
13896TIP3    H163179   5.325   5.011  12.996 -3.5581  1.8098  0.9739
13896TIP3    H263180   5.221   4.970  13.097 -1.1165 -2.3932  2.0364
13897TIP3   OH263181   1.226   2.714  11.819  0.6877  0.5673 -0.4889
13897TIP3    H163182   1.192   2.747  11.736  0.0960  0.1131 -0.4300
13897TIP3    H263183   1.282   2.640  11.794 -0.2498 -0.1864 -0.4353
13898TIP3   OH263184   1.742   4.206   2.942 -0.2027 -0.0654 -0.0577
13898TIP3    H163185   1.715   4.134   2.999 -0.3007  0.2368  0.2785
13898TIP3    H263186   1.676   4.207   2.872 -0.2281 -0.2738 -0.0355
13899TIP3   OH263187   6.652   5.106   2.790 -0.2501  0.2792  0.3764
13899TIP3    H163188   6.674   5.025   2.744  0.8800  1.0511 -0.5075
13899TIP3    H263189   6.684   5.092   2.879 -1.2944 -0.7489  0.6041
13900TIP3   OH263190   6.776   1.598  12.331  0.3781 -0.6477 -0.1107
13900TIP3    H163191   6.788   1.545  12.253 -1.6972  1.4468 -2.0507
13900TIP3    H263192   6.848   1.660  12.330 -0.6359  0.5812 -1.5451
13901TIP3   OH263193   5.942   4.761   5.743  0.5058 -0.1264 -0.1768
13901TIP3    H163194   5.957   4.847   5.703 -0.2606  0.8649  1.6050
13901TIP3    H263195   5.863   4.728   5.700 -0.8419  1.3307  1.0808
13902TIP3   OH263196   3.257   1.467  11.831  0.6568  0.0635  0.2313
13902TIP3    H163197   3.241   1.401  11.764 -0.2749 -1.7313  2.0974
13902TIP3    H263198   3.207   1.543  11.803 -3.0616 -1.9687  0.7554
13903TIP3   OH263199   1.672   5.814  16.642  0.2819  0.0581 -0.2023
13903TIP3    H163200   1.592   5.866  16.633  2.0160  3.1604  0.7697
13903TIP3    H263201   1.682   5.771  16.557 -0.6362  2.4129 -1.5901
13904TIP3   OH263202   4.169   0.592   3.940 -0.1037 -0.7899  0.1914
13904TIP3    H163203   4.208   0.678   3.954 -1.7246  0.2446 -1.3074
13904TIP3    H263204   4.123   0.573   4.022 -2.8607  1.5459 -0.6615
13905TIP3   OH263205   0.542   0.012  11.048  0.2951  0.2059 -0.5177
13905TIP3    H163206   0.585  -0.028  10.973  0.8617 -1.1013  0.4593
13905TIP3    H263207   0.523  -0.061  11.107  0.7255  1.2831  1.0341
13906TIP3   OH263208   2.961   0.635  16.122 -0.4798 -0.9556  0.3304
13906TIP3    H163209   3.033   0.626  16.184  0.0351  0.0034 -0.1158
13906TIP3    H263210   3.003   0.642  16.037 -0.9471  1.7809  0.2505
13907TIP3   OH263211   2.660   5.745  11.502  0.1629  0.0050 -0.2335
13907TIP3    H163212   2.683   5.748  11.595 -0.7715  1.7950 -0.0322
13907TIP3    H263213   2.586   5.685  11.498  0.8612 -0.9067 -0.0065
13908TIP3   OH263214   0.854   2.879   3.337  0.4518  0.2697  0.5443
13908TIP3    H163215   0.928   2.844   3.287 -0.0824 -1.5775  0.9750
13908TIP3    H263216   0.856   2.973   3.320  2.3605  0.1430 -0.1515
13909TIP3   OH263217   0.573   2.847  11.059  0.2332  0.1341 -0.0099
13909TIP3    H163218   0.543   2.805  11.139  1.3306 -1.0411 -0.1812
13909TIP3    H263219   0.494   2.857  11.006 -0.3531  0.0689  0.8389
13910TIP3   OH263220   1.934   6.282  17.197 -0.8799  0.0352  0.2429
13910TIP3    H163221   1.874   6.210  17.212 -2.2403  1.2809  1.0171
13910TIP3    H263222   1.937   6.329  17.280  0.6366  0.4159  0.0107
13911TIP3   OH263223   6.084   2.167   6.221  0.1192 -0.2752 -0.2830
13911TIP3    H163224   6.040   2.111   6.157 -0.7699 -3.0666  2.4890
13911TIP3    H263225   6.018   2.231   6.248  0.5883  1.1029 -2.2148
13912TIP3   OH263226   3.973   0.764  12.416  0.0041  0.3495  0.4738
13912TIP3    H163227   3.956   0.779  12.509  0.2363 -1.2435  0.7992
13912TIP3    H263228   3.994   0.671  12.410  1.0033  0.6346 -1.0306
13913TIP3   OH263229   6.358   0.162  15.933 -0.0221 -0.1637  0.6858
13913TIP3    H163230   6.293   0.147  15.865  0.1397 -1.1896  0.7439
13913TIP3    H263231   6.365   0.257  15.939  0.8427 -0.0418 -1.5798
13914TIP3   OH263232   2.913   5.412  11.716  0.7159 -0.5142 -0.0446
13914TIP3    H163233   3.006   5.428  11.702  1.1986 -1.3904  1.7535
13914TIP3    H263234   2.911   5.346  11.786 -1.2502 -0.7743 -0.2946
13915TIP3   OH263235   0.155   2.400   2.312 -0.2002  0.0679 -0.4269
13915TIP3    H163236   0.092   2.378   2.244 -0.4529  0.9315 -0.4846
13915TIP3    H263237   0.167   2.319   2.362  1.0299 -0.9719 -2.3220
13916TIP3   OH263238   1.210   0.170  14.384 -0.3579  0.0781  0.6213
13916TIP3    H163239   1.202   0.079  14.414  0.8639  0.2478  1.5324
13916TIP3    H263240   1.238   0.162  14.293  0.6694 -0.4928  0.9638
13917TIP3   OH263241   5.314   5.122  16.232 -0.0859 -0.1954 -0.2325
13917TIP3    H163242   5.260   5.191  16.194  0.1248  0.4878  0.6806
13917TIP3    H263243   5.403   5.143  16.204 -0.1566 -0.7575 -0.9072
13918TIP3   OH263244   3.614   6.023   3.588 -0.8860  0.7952  0.5014
13918TIP3    H163245   3.621   5.955   3.521 -0.7195  0.7995  0.5161
13918TIP3    H263246   3.527   6.008   3.627 -0.3442 -0.2130  1.3638
13919TIP3   OH263247   5.052   6.711   3.007 -0.0809 -0.3237  0.2386
13919TIP3    H163248   5.124   6.707   3.071  0.2874  0.1418 -0.1437
13919TIP3    H263249   4.973   6.701   3.061  0.2603 -0.8006  0.6671
13920TIP3   OH263250   6.151   0.961   4.208 -0.0333 -0.4524 -0.2241
13920TIP3    H163251   6.137   0.917   4.124  0.0312  0.1301 -0.5456
13920TIP3    H263252   6.227   1.017   4.193  0.4041 -0.8570  0.4286
13921TIP3   OH263253   4.624   3.433  13.471  0.5605 -0.5842 -0.2635
13921TIP3    H163254   4.537   3.468  13.455  0.5708 -0.7423 -0.6681
13921TIP3    H263255   4.608   3.342  13.498  0.5232 -0.2431  0.9275
13922TIP3   OH263256   5.134   2.580  15.717  0.1502 -0.5968  0.4022
13922TIP3    H163257   5.209   2.558  15.662  0.5513 -0.3839  0.8545
13922TIP3    H263258   5.063   2.598  15.655  1.1201  1.6887 -0.1724
13923TIP3   OH263259   5.483   4.369  13.784  0.1318 -0.4406 -0.1635
13923TIP3    H163260   5.482   4.382  13.689  2.4704 -1.8874 -0.4869
13923TIP3    H263261   5.433   4.288  13.797 -0.4998 -0.0462 -0.0990
13924TIP3   OH263262   1.960   1.527   1.593  0.3719 -0.0877  0.1240
13924TIP3    H163263   1.952   1.609   1.642 -0.1673 -0.4145  0.5957
13924TIP3    H263264   2.020   1.548   1.521 -0.7829  1.0944 -0.5529
13925TIP3   OH263265   4.859   1.770   4.650  0.1138  0.0930 -0.5453
13925TIP3    H163266   4.910   1.739   4.576  1.1910 -1.5040  0.8035
13925TIP3    H263267   4.922   1.817   4.704 -0.6609  1.2362 -0.5956
13926TIP3   OH263268   6.809   5.120  11.994  0.0070  0.3335 -0.4604
13926TIP3    H163269   6.796   5.196  11.938  1.5974  0.6531 -0.4299
13926TIP3    H263270   6.750   5.134  12.068 -0.5018  0.9911 -0.9854
13927TIP3   OH263271   2.713   3.887   0.920 -0.1934  0.2165  0.1139
13927TIP3    H163272   2.768   3.887   0.998  0.5696  0.6771 -0.4129
13927TIP3    H263273   2.709   3.979   0.893  0.1307 -0.0246 -0.7857
13928TIP3   OH263274   1.705   5.622   5.567  0.5553 -0.8324 -0.0353
13928TIP3    H163275   1.648   5.572   5.508 -1.3145  0.0174  0.9520
13928TIP3    H263276   1.664   5.612   5.653  0.9777  1.1772  0.4376
13929TIP3   OH263277   5.690   1.402   0.005 -0.0808 -0.3161 -0.3860
13929TIP3    H163278   5.647   1.353  -0.065  0.6324 -1.6514  0.0906
13929TIP3    H263279   5.638   1.384   0.083 -1.1536  1.5480 -0.6019
13930TIP3   OH263280   5.199   1.257   3.787  0.3120 -0.5745 -0.2940
13930TIP3    H163281   5.114   1.288   3.819  0.8631  0.0712  0.5789
13930TIP3    H263282   5.186   1.163   3.772 -0.4078 -0.5868  0.3444
13931TIP3   OH263283   0.052   2.059  13.288 -0.8248 -0.4661  0.0871
13931TIP3    H163284   0.041   2.114  13.366 -0.3424 -1.8297  1.1468
13931TIP3    H263285   0.031   2.118  13.215 -1.5805  0.7670  1.2426
13932TIP3   OH263286   6.633   5.872   5.589 -0.3977 -0.1294  0.1075
13932TIP3    H163287   6.653   5.926   5.665 -2.3976  1.0260 -0.1204
13932TIP3    H263288   6.650   5.929   5.514  0.3276 -0.8417 -0.2931
13933TIP3   OH263289   2.494   3.600   3.396 -0.1532  0.4719  0.4248
13933TIP3    H163290   2.482   3.639   3.309  1.9854  1.3131  0.4372
13933TIP3    H263291   2.429   3.530   3.401 -1.7726  1.7926 -0.9880
13934TIP3   OH263292   2.485   3.193   2.628  0.7293 -0.2759 -0.8613
13934TIP3    H163293   2.523   3.205   2.542  0.9747 -0.2051 -0.7443
13934TIP3    H263294   2.501   3.276   2.674  1.5127 -0.6700 -0.4019
13935TIP3   OH263295   5.871   1.504   2.731  0.4202  0.2293  0.3573
13935TIP3    H163296   5.783   1.495   2.695  1.1777 -1.4099 -1.2860
13935TIP3    H263297   5.893   1.596   2.717 -1.5608  1.0684  2.2435
13936TIP3   OH263298   5.940   5.922   1.889  0.3345 -0.5215 -0.0991
13936TIP3    H163299   5.956   5.902   1.981 -0.6728 -1.9354 -0.2029
13936TIP3    H263300   5.988   5.854   1.841  1.8236  0.8797 -0.6970
13937TIP3   OH263301   1.550   3.162  14.732  0.3913  0.0409  0.4131
13937TIP3    H163302   1.565   3.072  14.762 -0.2575  0.6024  2.6123
13937TIP3    H263303   1.490   3.153  14.658 -1.1902 -1.2788  1.7736
13938TIP3   OH263304   4.535   0.704   2.093  0.2268  0.2313  0.5593
13938TIP3    H163305   4.516   0.720   2.186  1.7072  1.9606  0.6215
13938TIP3    H263306   4.467   0.644   2.065 -0.1146 -0.5508  2.8312
13939TIP3   OH263307   1.775   2.293   3.343 -0.3607  0.5099  0.8110
13939TIP3    H163308   1.760   2.236   3.418 -1.0180 -0.9572 -0.3724
13939TIP3    H263309   1.687   2.324   3.319 -0.5591 -1.1880 -0.9165
13940TIP3   OH263310   0.264   3.251   3.513  0.1232 -0.1541  0.6461
13940TIP3    H163311   0.199   3.182   3.498  0.9853 -0.9675  0.6130
13940TIP3    H263312   0.211   3.327   3.538 -0.9742 -0.2690 -1.1499
13941TIP3   OH263313   6.224   5.989   2.081 -0.2873  0.1590 -0.5864
13941TIP3    H163314   6.271   6.038   2.149 -1.8447  2.8718 -1.3546
13941TIP3    H263315   6.152   5.947   2.128  0.7724 -1.0906 -0.0073
13942TIP3   OH263316   4.250   3.843  13.595 -0.2886  0.4729  0.1113
13942TIP3    H163317   4.164   3.803  13.583 -1.1871  2.2557  0.2779
13942TIP3    H263318   4.250   3.874  13.686  1.6061 -1.8339  1.0219
13943TIP3   OH263319   4.385   2.032   3.248 -0.4486  0.1465  0.0608
13943TIP3    H163320   4.469   2.007   3.210 -1.3926 -1.6526 -1.0484
13943TIP3    H263321   4.326   1.959   3.224 -2.0275  0.7643  1.8099
13944TIP3   OH263322   1.727   3.610   0.405  0.5871 -0.0052 -0.0082
13944TIP3    H163323   1.821   3.625   0.397  0.8824 -1.2847  0.7555
13944TIP3    H263324   1.719   3.538   0.467 -0.8879 -0.2025 -0.3759
13945TIP3   OH263325   0.796   2.018  11.551 -0.1785  0.0192 -0.0142
13945TIP3    H163326   0.724   1.966  11.584 -0.3027 -0.1480 -0.5437
13945TIP3    H263327   0.810   2.086  11.618 -1.6129  0.7948 -0.4638
13946TIP3   OH263328   5.207   2.632  13.116  0.7920  0.4184 -0.3274
13946TIP3    H163329   5.253   2.565  13.166 -0.0783 -1.2901 -1.6686
13946TIP3    H263330   5.117   2.598  13.108  0.7894  0.7751 -2.6240
13947TIP3   OH263331   6.194   3.053  15.492  0.1031  0.6733  0.5351
13947TIP3    H163332   6.214   3.109  15.417 -0.7562 -2.0844 -1.9658
13947TIP3    H263333   6.178   3.114  15.564  0.8537  3.5092 -1.5093
13948TIP3   OH263334   4.570   6.798   4.863  0.0093 -0.0677  0.3554
13948TIP3    H163335   4.514   6.721   4.847  2.5472 -1.7561 -1.1005
13948TIP3    H263336   4.575   6.842   4.778  0.2658  0.5154  0.6688
13949TIP3   OH263337   0.547   6.720   2.054 -0.3214 -0.5310  0.2388
13949TIP3    H163338   0.589   6.731   1.969 -0.6642  0.8254  0.2174
13949TIP3    H263339   0.617   6.692   2.112  0.0662 -0.7923 -0.3455
13950TIP3   OH263340   2.104   4.391  16.779  0.2286  0.5750 -0.2150
13950TIP3    H163341   2.181   4.346  16.812  0.7861  2.1415  0.7239
13950TIP3    H263342   2.112   4.387  16.684  0.7342 -0.4659 -0.1368
13951TIP3   OH263343   4.872   3.750  14.734  0.5258 -0.4462  0.2026
13951TIP3    H163344   4.881   3.716  14.645  1.0880  1.1860 -0.4140
13951TIP3    H263345   4.954   3.799  14.749 -0.1793  0.5238  1.0498
13952TIP3   OH263346   5.950   5.072  11.467 -0.0814  0.2398  0.3222
13952TIP3    H163347   5.950   5.002  11.533  1.5142 -0.0440  0.0672
13952TIP3    H263348   6.026   5.126  11.490  1.9205 -1.1124 -2.4885
13953TIP3   OH263349   1.156   2.558   5.498 -0.5480 -0.3039 -0.4942
13953TIP3    H163350   1.139   2.650   5.478  0.0966  0.1966  1.0798
13953TIP3    H263351   1.070   2.517   5.496 -0.9554  0.5157 -0.4324
13954TIP3   OH263352   3.255   6.642   5.850 -0.0253  0.2354 -0.3317
13954TIP3    H163353   3.248   6.690   5.768 -0.6113 -0.1557 -0.5096
13954TIP3    H263354   3.183   6.580   5.849 -0.6254  0.8687  0.9051
13955TIP3   OH263355   0.083   0.005   1.493  0.1050  0.0030  0.3369
13955TIP3    H163356   0.050   0.088   1.458 -2.9297 -1.0019  0.5664
13955TIP3    H263357   0.086   0.019   1.588  1.8344  0.5205  0.2511
13956TIP3   OH263358   5.175   6.221  15.796 -0.8794  0.3103  0.4048
13956TIP3    H163359   5.091   6.181  15.816 -0.9858  0.0868 -0.4368
13956TIP3    H263360   5.167   6.250  15.705 -0.4800  1.4072  0.7000
13957TIP3   OH263361   3.506   3.592  17.090 -0.0447  0.3316 -0.1966
13957TIP3    H163362   3.495   3.538  17.168 -0.4241  1.2165  0.3783
13957TIP3    H263363   3.601   3.600  17.080  0.0292  1.4291  1.0622
13958TIP3   OH263364   0.810   0.429   2.401 -0.0832  0.2265 -0.2286
13958TIP3    H163365   0.740   0.494   2.402 -1.9852 -1.6785  2.2998
13958TIP3    H263366   0.888   0.477   2.428 -0.7346  2.0329 -1.3821
13959TIP3   OH263367   6.055   2.849  15.657 -0.5967  0.4683 -0.5883
13959TIP3    H163368   6.066   2.923  15.599 -1.2261 -0.6296 -2.1653
13959TIP3    H263369   6.081   2.773  15.605  2.0855 -0.2804  1.6307
13960TIP3   OH263370   6.273   6.790  11.408  0.7474 -0.3371  0.1097
13960TIP3    H163371   6.215   6.771  11.334 -0.1490  2.7254 -0.1148
13960TIP3    H263372   6.214   6.811  11.480  1.6241 -2.0079  1.3528
13961TIP3   OH263373   0.595   0.026  12.523  0.9577 -0.6074  0.5649
13961TIP3    H163374   0.676   0.065  12.557  1.1644 -0.1186 -0.4574
13961TIP3    H263375   0.600   0.039  12.428 -0.2045 -0.7974  0.4644
13962TIP3   OH263376   6.306   4.134  14.928 -0.2664  0.0107 -0.4212
13962TIP3    H163377   6.288   4.209  14.983 -2.3386 -1.5478  1.2187
13962TIP3    H263378   6.382   4.092  14.967 -1.1337 -0.5399  0.7382
13963TIP3   OH263379   5.825   6.033   0.884  0.0250 -0.5285 -0.0624
13963TIP3    H163380   5.858   6.011   0.971 -0.0157 -0.3174  0.0084
13963TIP3    H263381   5.903   6.038   0.829  0.6883  3.6690  0.8651
13964TIP3   OH263382   1.229   1.302  11.573 -0.0895 -0.1880 -0.3078
13964TIP3    H163383   1.191   1.285  11.486  0.1750 -0.2519 -0.4123
13964TIP3    H263384   1.293   1.232  11.584  1.3178  0.9709 -0.9155
13965TIP3   OH263385   2.466   0.102   5.660 -0.5323  0.0210 -0.9294
13965TIP3    H163386   2.412   0.033   5.622 -0.9035 -1.5440  2.1339
13965TIP3    H263387   2.404   0.171   5.683 -1.1767 -1.2797  1.5176
13966TIP3   OH263388   2.726   0.971   0.651 -0.1719  0.2350  0.2317
13966TIP3    H163389   2.786   1.016   0.710 -0.5743  1.3001 -0.1499
13966TIP3    H263390   2.723   1.027   0.573 -0.2154 -0.7656 -0.5103
13967TIP3   OH263391   3.777   1.550  14.518 -0.3879 -0.0575 -0.3623
13967TIP3    H163392   3.753   1.483  14.581  0.0240 -0.2236 -0.3799
13967TIP3    H263393   3.788   1.630  14.570  0.0296 -0.2119 -0.2108
13968TIP3   OH263394   2.468   4.771   3.255  0.0977 -0.3794  0.2113
13968TIP3    H163395   2.413   4.694   3.272 -1.5021  0.6669  0.0304
13968TIP3    H263396   2.543   4.760   3.313 -0.9479 -1.2137  1.4806
13969TIP3   OH263397   0.573   6.808   0.098 -0.1331  0.4603 -0.3423
13969TIP3    H163398   0.483   6.777   0.088  0.4903 -1.3359 -0.7468
13969TIP3    H263399   0.567   6.903   0.084 -2.0138  0.4515  0.0882
13970TIP3   OH263400   4.500   3.563  13.161 -0.1894 -0.5755  0.1397
13970TIP3    H163401   4.584   3.525  13.188  0.9364  1.8525  0.4103
13970TIP3    H263402   4.442   3.548  13.235  0.3696 -1.2429  0.4547
13971TIP3   OH263403   0.024   2.727   6.057 -0.1286 -0.3048  0.1260
13971TIP3    H163404  -0.002   2.716   5.966  0.4994  0.6167 -0.1770
13971TIP3    H263405   0.113   2.763   6.053  0.3529 -1.3167  1.1167
13972TIP3   OH263406   6.784   5.252   0.527 -0.3574  0.3688 -0.1611
13972TIP3    H163407   6.690   5.265   0.537 -0.5620 -0.7509 -0.5620
13972TIP3    H263408   6.809   5.200   0.603 -0.0450  0.7477 -0.0039
13973TIP3   OH263409   4.414   5.190  15.901 -0.2878 -0.5254 -0.1151
13973TIP3    H163410   4.474   5.255  15.938 -0.8796  0.1910 -0.3837
13973TIP3    H263411   4.327   5.221  15.926 -0.5307 -2.6672  2.0832
13974TIP3   OH263412   0.946   5.353   1.483  0.6601  0.2685  0.1178
13974TIP3    H163413   1.036   5.330   1.460  0.3452 -1.1096  0.1986
13974TIP3    H263414   0.916   5.281   1.539 -1.1199 -0.3241 -1.4858
13975TIP3   OH263415   0.468   1.858   2.111 -0.0865  0.1349  0.1159
13975TIP3    H163416   0.505   1.907   2.038 -0.8019  0.1547 -0.2329
13975TIP3    H263417   0.476   1.766   2.085 -0.2051  0.1352  0.0798
13976TIP3   OH263418   4.190   5.005   0.534 -0.5285 -0.0234 -0.2706
13976TIP3    H163419   4.193   4.933   0.597 -0.5945  1.0896  1.0675
13976TIP3    H263420   4.278   5.043   0.538 -0.5689  0.1202 -0.7789
13977TIP3   OH263421   2.928   1.561   0.308 -0.3109 -0.3895  0.3035
13977TIP3    H163422   2.918   1.477   0.351  1.1146 -1.1580 -0.7804
13977TIP3    H263423   2.912   1.543   0.215  3.3749 -0.3016 -0.5062
13978TIP3   OH263424   6.112   4.458  12.523  0.7412  0.1051  0.1026
13978TIP3    H163425   6.130   4.509  12.444 -1.2409  0.2677 -0.2973
13978TIP3    H263426   6.017   4.446  12.523  0.8169 -0.8840  1.8673
13979TIP3   OH263427   5.788   0.844   4.876 -0.3515  0.5200  0.2518
13979TIP3    H163428   5.846   0.907   4.833 -1.8892  3.1446  1.7912
13979TIP3    H263429   5.780   0.773   4.812  1.9891  1.5153 -1.3157
13980TIP3   OH263430   0.937   2.196  12.720  0.1761 -0.2110  0.3035
13980TIP3    H163431   0.982   2.262  12.773 -0.0145  0.9405 -0.9220
13980TIP3    H263432   0.874   2.246  12.668 -0.2997 -1.4255 -0.3281
13981TIP3   OH263433   5.314   5.109  11.456 -0.2606  0.5485  0.7577
13981TIP3    H163434   5.374   5.163  11.405  0.1695 -0.5806  0.0463
13981TIP3    H263435   5.303   5.157  11.538  0.2391  1.6304  0.2143
13982TIP3   OH263436   4.802   4.349   5.048 -0.3317 -0.2012 -0.2864
13982TIP3    H163437   4.748   4.399   5.109  2.0365  2.7005 -0.3671
13982TIP3    H263438   4.827   4.270   5.097  1.2303  1.8705  2.4988
13983TIP3   OH263439   6.318   1.868  14.931 -0.1021  0.2845 -0.2965
13983TIP3    H163440   6.379   1.794  14.927  0.0580  0.3756  0.4499
13983TIP3    H263441   6.247   1.844  14.871 -0.3801 -0.7724  0.4417
13984TIP3   OH263442   2.774   2.661   5.668 -0.4041 -0.5505  0.5367
13984TIP3    H163443   2.803   2.576   5.701  2.2158 -0.3703 -1.0309
13984TIP3    H263444   2.809   2.725   5.730 -0.2459 -0.5018  0.3996
13985TIP3   OH263445   0.446   3.996  15.922 -0.2108 -0.1089  0.5744
13985TIP3    H163446   0.368   3.956  15.960 -0.8948  1.1567  0.5675
13985TIP3    H263447   0.456   4.079  15.969  1.6126 -0.5842  1.1372
13986TIP3   OH263448   5.398   2.018   6.070  0.1090 -0.2087 -0.0174
13986TIP3    H163449   5.486   1.994   6.099 -0.4711 -0.6362  1.5308
13986TIP3    H263450   5.343   2.002   6.147 -0.9868  2.1754 -0.2087
13987TIP3   OH263451   5.785   3.057  17.039 -0.0421  0.5665 -0.0619
13987TIP3    H163452   5.756   3.119  16.972 -1.1637 -0.5426 -0.6517
13987TIP3    H263453   5.794   2.973  16.993  3.6764  0.6541  0.2099
13988TIP3   OH263454   3.221   1.941   0.479 -0.0824 -0.3988 -0.6197
13988TIP3    H163455   3.230   1.885   0.403 -0.2701  0.7063 -1.4896
13988TIP3    H263456   3.205   1.881   0.552  3.7025 -1.7899 -0.7256
13989TIP3   OH263457   2.218   0.848   5.981 -0.0337  0.5883 -0.4832
13989TIP3    H163458   2.258   0.934   5.984  1.5736 -0.1269 -0.0604
13989TIP3    H263459   2.203   0.825   6.073 -0.7196  0.5249 -0.6026
13990TIP3   OH263460   1.641   5.897  12.797 -0.2462 -0.0745  0.3801
13990TIP3    H163461   1.574   5.913  12.730  0.4415  1.0795 -0.0782
13990TIP3    H263462   1.593   5.894  12.879 -0.9419  0.0239 -0.0145
13991TIP3   OH263463   1.566   1.263  11.490  0.1991 -0.0806  0.2993
13991TIP3    H163464   1.636   1.258  11.425 -0.3981  0.8158 -0.4302
13991TIP3    H263465   1.565   1.355  11.517  0.0997 -0.3381  1.2093
13992TIP3   OH263466   6.803   2.422   5.860  0.4070 -0.2235  0.8743
13992TIP3    H163467   6.726   2.478   5.869 -0.0802 -1.1286  2.9111
13992TIP3    H263468   6.784   2.368   5.784 -0.1410  0.8080  0.2562
13993TIP3   OH263469   2.833   0.576   2.399 -0.6499 -0.0668 -0.1453
13993TIP3    H163470   2.856   0.487   2.427 -0.0877  0.1428  0.0643
13993TIP3    H263471   2.823   0.569   2.304  0.5137 -0.1223 -0.2768
13994TIP3   OH263472   2.215   1.902  16.755  0.4168 -0.4751  0.0570
13994TIP3    H163473   2.173   1.909  16.669  1.5078  0.0748 -0.4520
13994TIP3    H263474   2.157   1.951  16.814 -0.0706 -0.4110 -0.4676
13995TIP3   OH263475   2.159   4.460  16.149  0.0609  0.0518  0.5505
13995TIP3    H163476   2.132   4.371  16.173 -1.6454 -0.1200 -1.6824
13995TIP3    H263477   2.253   4.454  16.132  0.6430 -0.5544  3.4537
13996TIP3   OH263478   6.325   3.493   1.886 -0.3706  0.4082  0.5419
13996TIP3    H163479   6.364   3.408   1.864 -2.8389 -1.0882  1.4304
13996TIP3    H263480   6.281   3.520   1.805  0.8302  1.1483  0.1078
13997TIP3   OH263481   1.453   1.773   1.121 -0.2883 -0.4097  0.7122
13997TIP3    H163482   1.522   1.838   1.107  1.1048 -1.9173  0.3088
13997TIP3    H263483   1.373   1.814   1.086  0.6896  0.7984 -0.1669
13998TIP3   OH263484   4.251   6.691  11.972 -0.2034  0.1283  0.0745
13998TIP3    H163485   4.187   6.718  11.906 -0.5368 -0.8425 -0.0024
13998TIP3    H263486   4.204   6.630  12.028  0.6934 -0.7372 -0.0896
13999TIP3   OH263487   3.213   0.400  11.107 -0.4575 -0.6848 -0.0036
13999TIP3    H163488   3.228   0.322  11.055  0.0928 -0.7682  0.2691
13999TIP3    H263489   3.159   0.370  11.181  1.0796 -1.1602  0.9666
14000TIP3   OH263490   1.898   0.256  11.309  0.2370 -0.4290  0.0860
14000TIP3    H163491   1.808   0.283  11.291  0.1440 -0.6453  0.2125
14000TIP3    H263492   1.889   0.167  11.344  0.5676 -0.8050 -0.7652
14001TIP3   OH263493   5.582   0.839  14.203  0.1453  0.5616 -0.1737
14001TIP3    H163494   5.660   0.788  14.181  0.1142  1.2232 -1.9985
14001TIP3    H263495   5.515   0.806  14.143 -0.2309  1.7891 -0.4579
14002TIP3   OH263496   2.501   4.017  11.249  0.5428  0.0428 -0.3849
14002TIP3    H163497   2.470   3.926  11.254  0.1423  0.2172  0.6081
14002TIP3    H263498   2.421   4.068  11.238  0.9222  0.1520 -3.5369
14003TIP3   OH263499   1.961   5.116   4.998 -0.0925 -0.3948  0.4975
14003TIP3    H163500   1.897   5.120   5.069 -0.7527  0.7481 -0.1388
14003TIP3    H263501   2.005   5.032   5.011 -0.6762 -0.5253  1.8402
14004TIP3   OH263502   1.553   5.178   1.597  0.2662  0.4665 -0.4928
14004TIP3    H163503   1.612   5.132   1.656 -0.0149 -0.9588 -1.2950
14004TIP3    H263504   1.570   5.271   1.614 -0.2684  0.1340  2.2992
14005TIP3   OH263505   0.030   4.638  12.281 -0.4040  0.4158 -0.3802
14005TIP3    H163506  -0.036   4.586  12.234 -0.5842  0.7877 -0.5446
14005TIP3    H263507   0.054   4.707  12.219  1.4731 -0.7497 -1.0102
14006TIP3   OH263508   4.303   1.187  14.945  0.8777 -0.1628  0.0952
14006TIP3    H163509   4.256   1.263  14.980 -1.7854 -0.4902 -2.3877
14006TIP3    H263510   4.352   1.152  15.020  1.6033  3.4581  1.5210
14007TIP3   OH263511   3.317   2.913   2.754 -0.3224  0.5015 -0.2053
14007TIP3    H163512   3.266   2.937   2.676  1.6965  0.2423 -1.6644
14007TIP3    H263513   3.378   2.846   2.724  0.9048  0.8101  1.4684
14008TIP3   OH263514   5.434   1.973  14.211  0.5388  0.5426  0.2619
14008TIP3    H163515   5.349   1.994  14.249  0.5817 -0.2658  0.8383
14008TIP3    H263516   5.493   1.969  14.287  0.4715 -1.8779  0.2643
14009TIP3   OH263517   4.184   6.776   2.902 -0.2820  0.0786 -0.0857
14009TIP3    H163518   4.098   6.818   2.897 -0.0025  0.5443 -1.5617
14009TIP3    H263519   4.246   6.845   2.880  0.3999 -0.4568  0.1174
14010TIP3   OH263520   1.950   6.697  14.744 -0.7871  0.2770  0.2123
14010TIP3    H163521   1.948   6.700  14.649  0.9924  0.0819  0.1513
14010TIP3    H263522   1.865   6.734  14.771 -0.8480  1.3829 -1.4000
14011TIP3   OH263523   4.799   1.734   4.077  0.2629  0.3818  0.1394
14011TIP3    H163524   4.707   1.758   4.069  0.1831  0.3646  0.9658
14011TIP3    H263525   4.815   1.674   4.004 -0.9102 -1.2110  1.1262
14012TIP3   OH263526   1.286   1.033  12.841 -0.7326  0.6772 -0.3949
14012TIP3    H163527   1.315   1.092  12.912  0.2359  1.7070 -1.5984
14012TIP3    H263528   1.361   0.977  12.824 -0.5553  1.2023 -1.3754
14013TIP3   OH263529   2.989   0.962  16.269  0.6271  0.8017 -0.1563
14013TIP3    H163530   3.030   0.926  16.347 -0.4032  1.6000  0.7819
14013TIP3    H263531   2.931   0.892  16.237  0.7511  0.6170  0.0251
14014TIP3   OH263532   1.858   2.883  16.589  0.6249 -0.3093 -0.2701
14014TIP3    H163533   1.869   2.978  16.599  1.0659 -0.2247 -1.4131
14014TIP3    H263534   1.874   2.867  16.496  1.6504 -1.6661  0.1216
14015TIP3   OH263535   4.026   4.694   0.463  0.0164 -0.5587 -0.0592
14015TIP3    H163536   3.949   4.640   0.473  0.1566 -1.1751 -2.0258
14015TIP3    H263537   4.007   4.751   0.389  1.4057 -0.6834 -0.5531
14016TIP3   OH263538   4.929   2.013   0.231 -0.0419  0.5522 -0.4619
14016TIP3    H163539   4.961   2.057   0.153  1.3362  1.9733  0.8237
14016TIP3    H263540   5.002   1.961   0.262 -0.7294 -0.3787 -0.3617
14017TIP3   OH263541   5.278   4.305  11.548 -0.0688  0.0017  0.0340
14017TIP3    H163542   5.359   4.257  11.562 -0.8713 -1.3370  0.2507
14017TIP3    H263543   5.304   4.382  11.497  1.3577 -0.2767  0.3105
14018TIP3   OH263544   0.954   1.403  11.980 -0.2762  0.6747  0.9604
14018TIP3    H163545   1.018   1.337  12.009  0.8365  0.8434 -0.9455
14018TIP3    H263546   0.976   1.419  11.888 -3.5035  0.2366 -0.0342
14019TIP3   OH263547   2.613   5.391   6.336  0.3403 -0.1359  0.2510
14019TIP3    H163548   2.589   5.319   6.278 -0.5780 -1.1708  1.8327
14019TIP3    H263549   2.529   5.427   6.366  0.7917  0.7982  0.4406
14020TIP3   OH263550   0.252   2.453   1.542  0.0821  0.1181  0.2816
14020TIP3    H163551   0.188   2.499   1.597 -1.8937 -3.2154  1.0531
14020TIP3    H263552   0.315   2.417   1.603  0.2761 -0.1339 -0.0626
14021TIP3   OH263553   1.378   1.380  13.370  0.4269  0.0681 -0.6905
14021TIP3    H163554   1.306   1.441  13.390  0.5898  0.1806 -0.4406
14021TIP3    H263555   1.334   1.299  13.343  0.1929  0.6010 -2.0100
14022TIP3   OH263556   3.530   0.424   3.820  0.4534 -0.4041  0.4668
14022TIP3    H163557   3.625   0.429   3.830  0.7772 -2.3895 -0.9645
14022TIP3    H263558   3.506   0.505   3.774  1.5702 -0.2698  0.1012
14023TIP3   OH263559   0.770   0.865   5.169 -0.7320  0.1067  0.0427
14023TIP3    H163560   0.862   0.875   5.142 -0.4018 -0.6600  0.8135
14023TIP3    H263561   0.761   0.924   5.244 -1.2021  1.0501 -0.7429
14024TIP3   OH263562   3.450   1.573  13.525 -0.0505 -0.1804  0.6146
14024TIP3    H163563   3.495   1.643  13.573 -2.0195  0.1216  2.1414
14024TIP3    H263564   3.438   1.504  13.589  0.1064 -1.1440 -0.3628
14025TIP3   OH263565   0.240   3.657  12.302 -0.4419 -0.1735 -0.3880
14025TIP3    H163566   0.245   3.745  12.264  1.1023 -2.0426 -5.3825
14025TIP3    H263567   0.181   3.666  12.377  0.0798  5.1171 -0.2198
14026TIP3   OH263568   1.280   3.735   5.809 -0.1058 -0.4400 -0.1205
14026TIP3    H163569   1.209   3.690   5.856  1.1523 -1.3853  0.9625
14026TIP3    H263570   1.258   3.725   5.717 -3.3333  2.5566  0.1159
14027TIP3   OH263571   0.298   1.261   2.284 -0.1041 -0.7732 -0.1142
14027TIP3    H163572   0.210   1.286   2.258  0.1481 -2.4014 -2.8407
14027TIP3    H263573   0.311   1.174   2.247  2.8283 -0.3743 -0.2619
14028TIP3   OH263574   0.422   2.220   3.913 -0.1988 -0.5525  0.0136
14028TIP3    H163575   0.400   2.259   3.828 -0.1498 -0.6351 -0.0378
14028TIP3    H263576   0.518   2.222   3.916 -0.1973 -0.6259  0.0294
14029TIP3   OH263577   1.036   0.928   3.554 -0.3174  0.1512 -0.2583
14029TIP3    H163578   1.034   0.915   3.459 -0.2161 -1.9203 -0.0227
14029TIP3    H263579   1.022   0.841   3.590 -0.0505  0.8548  1.6423
14030TIP3   OH263580   5.730   1.809   4.197  0.0635  0.4366  0.1981
14030TIP3    H163581   5.806   1.809   4.255  0.2887  0.0217 -0.0897
14030TIP3    H263582   5.683   1.728   4.219  0.2247  0.2071 -0.2886
14031TIP3   OH263583   1.060   0.454  11.276 -0.1717 -0.0561 -0.1325
14031TIP3    H163584   1.092   0.374  11.235 -0.6968 -0.2509 -0.1623
14031TIP3    H263585   0.988   0.483  11.219  1.4631  1.7060 -1.4684
14032TIP3   OH263586   1.443   2.586   4.664  0.2310  0.0204  0.5558
14032TIP3    H163587   1.442   2.608   4.757  1.1032  1.3701  0.2748
14032TIP3    H263588   1.536   2.581   4.641  0.0249  0.0790 -0.3306
14033TIP3   OH263589   1.706   5.382  13.521 -0.5052 -0.4572  0.4801
14033TIP3    H163590   1.638   5.352  13.581 -0.1585 -0.9832  0.6101
14033TIP3    H263591   1.764   5.307  13.509 -0.3388 -0.2347 -0.1901
14034TIP3   OH263592   3.110   4.913  15.665 -0.6200  0.3773  0.0606
14034TIP3    H163593   3.094   4.931  15.758  0.6150  1.1410  0.1443
14034TIP3    H263594   3.156   4.990  15.633  0.9207 -0.7708 -0.6460
14035TIP3   OH263595   3.035   2.526   1.894  0.3750  0.1419  0.7620
14035TIP3    H163596   2.958   2.562   1.939 -0.1105 -0.5428  0.4944
14035TIP3    H263597   3.065   2.455   1.950 -1.5090 -2.1530 -0.9257
14036TIP3   OH263598   0.958   2.980   0.244 -0.3280  0.4121  0.0974
14036TIP3    H163599   0.886   3.026   0.201 -2.0559  0.2396  2.5895
14036TIP3    H263600   0.939   2.887   0.230 -0.0963  0.3780  0.0049
14037TIP3   OH263601   6.233   5.792   2.492  0.5143  0.1637  0.4682
14037TIP3    H163602   6.147   5.754   2.512 -0.2039  0.8570 -1.1589
14037TIP3    H263603   6.216   5.885   2.478  1.6231  0.3949  0.5788
14038TIP3   OH263604   3.356   0.490  11.895 -0.4243 -0.5776 -0.1480
14038TIP3    H163605   3.265   0.462  11.903 -0.6221  0.3420  1.3315
14038TIP3    H263606   3.369   0.549  11.970  1.3196 -0.5105 -0.4666
14039TIP3   OH263607   2.525   3.527   4.718 -0.2387 -0.3960 -0.5145
14039TIP3    H163608   2.455   3.491   4.664  0.2169 -1.8235 -0.2015
14039TIP3    H263609   2.603   3.479   4.691  0.3977  0.3542 -0.0452
14040TIP3   OH263610   1.629   1.726   1.849  0.3061  0.0179  0.3005
14040TIP3    H163611   1.604   1.634   1.859 -0.6834  0.4483  2.3944
14040TIP3    H263612   1.567   1.761   1.786  0.3721 -0.6400 -0.1343
14041TIP3   OH263613   4.087   4.979   5.137  0.6344  0.4134 -0.2259
14041TIP3    H163614   4.081   5.031   5.217 -0.2020 -1.3243  0.8950
14041TIP3    H263615   4.161   4.920   5.151  0.2602 -0.1509 -0.5623
14042TIP3   OH263616   5.412   6.115  15.047 -0.5627 -0.3316  0.1246
14042TIP3    H163617   5.371   6.087  15.129  1.8361  1.4379  2.0502
14042TIP3    H263618   5.377   6.203  15.032  1.5828  0.7915  1.2567
14043TIP3   OH263619   2.478   6.433  14.390 -0.6170  0.2988 -0.0441
14043TIP3    H163620   2.530   6.405  14.465 -1.0393  0.1847  0.2115
14043TIP3    H263621   2.426   6.507  14.423  0.1892  1.1444 -0.5965
14044TIP3   OH263622   6.469   2.406  16.607  0.4084  0.2470 -0.2443
14044TIP3    H163623   6.383   2.426  16.643  0.4470 -1.1849  0.7128
14044TIP3    H263624   6.457   2.323  16.562  1.3718 -0.1714  0.2455
14045TIP3   OH263625   3.215   0.296   5.144  0.7513 -0.9827  1.1717
14045TIP3    H163626   3.303   0.268   5.170  0.9109 -0.5926  1.0577
14045TIP3    H263627   3.210   0.387   5.171  1.2880 -0.2390 -1.0196
14046TIP3   OH263628   1.017   3.565   1.813 -0.0452 -0.2452 -0.5355
14046TIP3    H163629   1.100   3.576   1.859 -0.0814 -0.9161 -0.2943
14046TIP3    H263630   0.963   3.638   1.844  0.9821  1.1426 -1.9441
14047TIP3   OH263631   2.353   0.726   2.779  0.3504 -0.6755  0.1059
14047TIP3    H163632   2.410   0.749   2.852 -0.1223 -1.4173  0.7317
14047TIP3    H263633   2.299   0.654   2.813 -2.3051  1.2213  0.2250
14048TIP3   OH263634   0.104   0.547   2.067  0.3112 -0.0324 -0.5216
14048TIP3    H163635   0.191   0.510   2.056  0.6421  1.2378 -2.6135
14048TIP3    H263636   0.086   0.594   1.986 -1.5084  1.4335  0.6173
14049TIP3   OH263637   6.419   5.100   5.855  0.5948 -0.2532 -0.3178
14049TIP3    H163638   6.373   5.147   5.785  2.1793 -0.6476 -1.6910
14049TIP3    H263639   6.394   5.009   5.844 -2.2421  0.0573  2.1669
14050TIP3   OH263640   4.236   3.506  13.179  0.2054 -0.3337 -0.0743
14050TIP3    H163641   4.164   3.457  13.140  1.4985 -0.9335 -1.8359
14050TIP3    H263642   4.295   3.438  13.213 -0.1729  0.1547  1.6669
14051TIP3   OH263643   5.423   4.480  12.747 -0.1486  0.0109  0.0530
14051TIP3    H163644   5.422   4.560  12.800 -0.4293  1.2344 -1.7039
14051TIP3    H263645   5.484   4.422  12.792  0.4119  1.3900  1.1332
14052TIP3   OH263646   3.775   0.487  15.224  0.1213 -0.4121  0.4592
14052TIP3    H163647   3.780   0.457  15.315  1.2381 -0.6905  0.3290
14052TIP3    H263648   3.692   0.453  15.191  0.9142 -2.6137  0.5954
14053TIP3   OH263649   2.423   3.736  16.551  0.5353  0.3828 -0.1664
14053TIP3    H163650   2.405   3.655  16.599 -0.7711 -0.5092 -1.9913
14053TIP3    H263651   2.466   3.793  16.614 -1.9167 -0.3089  2.3195
14054TIP3   OH263652   4.306   0.151  15.833  0.0673 -0.0037  0.2960
14054TIP3    H163653   4.230   0.183  15.882  0.5485  2.0416 -0.1740
14054TIP3    H263654   4.355   0.231  15.812  1.7980 -1.1816 -0.3126
14055TIP3   OH263655   1.090   3.047   3.772 -0.0480  0.1739  0.3193
14055TIP3    H163656   1.183   3.042   3.750 -0.3273 -1.1520 -0.7217
14055TIP3    H263657   1.048   3.078   3.691 -0.7347 -1.5351 -0.0307
14056TIP3   OH263658   0.140   1.969  15.087 -0.5932  0.5260  0.2189
14056TIP3    H163659   0.220   1.933  15.050 -0.7679  1.1749 -0.8055
14056TIP3    H263660   0.136   1.931  15.175  0.4496 -0.0846  0.0219
14057TIP3   OH263661   3.266   5.656  11.709 -0.0884  0.3599  0.6404
14057TIP3    H163662   3.198   5.691  11.651 -0.3687 -0.1589  0.6422
14057TIP3    H263663   3.229   5.666  11.797  0.6284  1.7823  0.7945
14058TIP3   OH263664   6.595   6.735   4.769  0.6291 -0.1306  0.2481
14058TIP3    H163665   6.522   6.796   4.756 -0.6635 -1.2388  1.9774
14058TIP3    H263666   6.672   6.792   4.777 -0.2927  1.1624  0.2065
14059TIP3   OH263667   5.095   2.437   3.687 -0.5062 -0.1200 -0.0141
14059TIP3    H163668   5.139   2.363   3.645 -0.9449 -0.9672  0.9664
14059TIP3    H263669   5.011   2.401   3.717 -1.2846  1.1050 -0.6234
14060TIP3   OH263670   4.479   1.619   3.439 -0.1642  0.2071  0.3431
14060TIP3    H163671   4.393   1.580   3.424  0.0251  0.2504 -0.9270
14060TIP3    H263672   4.541   1.553   3.409  0.1825  0.9909 -0.7379
14061TIP3   OH263673   5.485   6.701   6.321 -0.3785 -0.3750 -0.4390
14061TIP3    H163674   5.460   6.618   6.280 -0.5038 -1.5406  1.8691
14061TIP3    H263675   5.551   6.677   6.386 -1.8095  1.0295  1.6354
14062TIP3   OH263676   3.976   1.082   0.317 -0.1883 -0.5851 -0.0080
14062TIP3    H163677   3.993   1.169   0.279  1.0699 -0.8211 -0.0230
14062TIP3    H263678   4.019   1.021   0.257 -0.0937 -1.1339  0.6089
14063TIP3   OH263679   2.024   4.422  11.163 -0.0557  0.6769  0.4222
14063TIP3    H163680   2.054   4.343  11.119  0.4829  0.2553  1.4950
14063TIP3    H263681   1.951   4.394  11.217 -0.3280  1.0604  0.2585
14064TIP3   OH263682   0.341   3.184   6.938  0.2857  0.0166  0.3869
14064TIP3    H163683   0.437   3.186   6.938  0.2947  1.6896  1.1939
14064TIP3    H263684   0.319   3.094   6.916  2.0491 -0.7240  1.4120
14065TIP3   OH263685   4.535   6.433  14.266 -0.2728 -0.0843 -0.7391
14065TIP3    H163686   4.543   6.452  14.172 -1.3983  0.5779 -0.7244
14065TIP3    H263687   4.478   6.356  14.271  0.0676 -0.3276 -0.6135
14066TIP3   OH263688   0.639   1.195  14.617 -0.4403  0.0737 -0.2721
14066TIP3    H163689   0.632   1.266  14.681  1.0254 -0.0071 -0.0035
14066TIP3    H263690   0.684   1.234  14.542 -1.8830  0.0889 -1.1685
14067TIP3   OH263691   0.017   2.115   5.162 -0.0160  0.5230  0.1780
14067TIP3    H163692   0.087   2.091   5.221 -0.0113  0.2894  0.0775
14067TIP3    H263693   0.045   2.199   5.125  0.8967 -0.2463 -0.9448
14068TIP3   OH263694   2.935   1.553  12.422 -0.2225 -0.1037  0.3064
14068TIP3    H163695   2.922   1.648  12.423  1.8335  0.2623 -0.9095
14068TIP3    H263696   2.859   1.519  12.375  0.2274  1.2466 -1.5313
14069TIP3   OH263697   0.261   2.838  12.264 -0.1004  0.5107 -0.1671
14069TIP3    H163698   0.280   2.929  12.241  1.5619  0.3278  0.3322
14069TIP3    H263699   0.298   2.787  12.191 -0.8701  0.2150 -0.3584
14070TIP3   OH263700   3.661   4.593  14.993  0.1982  0.5800 -0.4596
14070TIP3    H163701   3.702   4.598  14.907  2.2911 -1.1638  0.3401
14070TIP3    H263702   3.724   4.634  15.052 -0.1951 -0.2131  0.5380
14071TIP3   OH263703   3.154   3.367   1.077  0.3502  0.6431 -1.2313
14071TIP3    H163704   3.203   3.393   0.999  0.6529  1.2068 -0.8621
14071TIP3    H263705   3.221   3.347   1.142  0.1550  2.7991 -0.2623
14072TIP3   OH263706   3.395   2.085  14.642 -0.0206  0.1815  0.3566
14072TIP3    H163707   3.367   2.176  14.629  0.9852  0.7245  1.7433
14072TIP3    H263708   3.345   2.035  14.577  0.2383  1.8524 -1.2062
14073TIP3   OH263709   3.506   5.195  14.736  0.3717 -0.2718 -0.5685
14073TIP3    H163710   3.424   5.215  14.782  0.4230 -1.0188 -0.1466
14073TIP3    H263711   3.507   5.256  14.662 -0.6972 -0.4225 -0.7288
14074TIP3   OH263712   6.227   2.142  16.765 -0.5772 -0.4270  0.1510
14074TIP3    H163713   6.181   2.149  16.681 -1.7189 -0.0935  0.7848
14074TIP3    H263714   6.251   2.050  16.772  0.0133 -0.3591 -0.7740
14075TIP3   OH263715   5.926   2.858  15.105 -0.0103 -0.2447 -0.1447
14075TIP3    H163716   5.924   2.765  15.127  0.5678  0.1679  1.8179
14075TIP3    H263717   5.898   2.902  15.185  0.1985  1.2983 -0.8930
14076TIP3   OH263718   4.787   0.327  16.983  0.8415  0.2180 -0.0036
14076TIP3    H163719   4.796   0.361  17.072  2.7990  0.2404 -0.1740
14076TIP3    H263720   4.870   0.284  16.965  0.3020 -0.2066 -1.6550
14077TIP3   OH263721   0.992   4.050  15.640 -0.0134  0.2041 -0.0930
14077TIP3    H163722   1.062   4.110  15.666  0.4931 -0.2147 -0.4769
14077TIP3    H263723   1.034   3.989  15.580 -0.1036 -1.5844  1.5757
14078TIP3   OH263724   1.861   3.171   6.474 -0.1464 -0.0686  0.3155
14078TIP3    H163725   1.802   3.247   6.472  0.0549  0.1422  1.5615
14078TIP3    H263726   1.809   3.102   6.517  0.6580  0.2593  1.8487
14079TIP3   OH263727   3.022   1.499   2.565  0.0338  0.2394  0.2168
14079TIP3    H163728   3.088   1.569   2.559  1.3833 -1.0632 -0.8168
14079TIP3    H263729   2.992   1.486   2.475  0.2947 -0.9420  0.2842
14080TIP3   OH263730   5.340   0.975  13.206 -0.0912 -0.0943 -0.0935
14080TIP3    H163731   5.393   1.042  13.164  0.3870 -0.8460 -0.7153
14080TIP3    H263732   5.355   0.896  13.154 -1.2347 -0.5093  0.1670
14081TIP3   OH263733   5.394   1.394   4.985 -0.3615 -0.3618  0.3175
14081TIP3    H163734   5.414   1.488   4.977 -0.3295 -0.4123 -0.2464
14081TIP3    H263735   5.406   1.375   5.078 -1.6857  0.4857  0.6756
14082TIP3   OH263736   3.232   4.697   5.044  0.3875  0.2033  0.0625
14082TIP3    H163737   3.272   4.615   5.015 -0.6762  0.2363 -1.5463
14082TIP3    H263738   3.177   4.672   5.118  0.9588 -0.3342  0.3155
14083TIP3   OH263739   5.097   5.689  16.014  0.0718 -0.3234 -0.2694
14083TIP3    H163740   5.183   5.665  16.048  0.3995  1.9532  0.6682
14083TIP3    H263741   5.044   5.705  16.092 -1.5602 -2.5456 -0.7968
14084TIP3   OH263742   6.818   2.463   1.654 -0.4389  0.7540  0.2779
14084TIP3    H163743   6.781   2.533   1.707 -0.3536  1.0739 -0.0773
14084TIP3    H263744   6.744   2.429   1.604 -0.4675  0.6372  0.3996
14085TIP3   OH263745   3.190   4.001   3.240  0.6931 -0.5661  0.2121
14085TIP3    H163746   3.176   3.931   3.177  2.9556  1.0954 -2.3766
14085TIP3    H263747   3.135   4.073   3.210  2.6371  0.6365 -0.7039
14086TIP3   OH263748   4.622   1.735   2.520  0.5042  0.1526 -0.4784
14086TIP3    H163749   4.691   1.777   2.469  1.8524 -0.7723  0.5189
14086TIP3    H263750   4.656   1.733   2.610 -0.8757 -0.2214  0.0627
14087TIP3   OH263751   0.924   2.973  16.957 -0.9834  0.1584  0.4646
14087TIP3    H163752   0.877   2.900  16.996  0.4957 -0.4338  1.2034
14087TIP3    H263753   0.973   2.934  16.884 -0.7616  0.5620  0.3938
14088TIP3   OH263754   2.553   4.264   3.163 -0.2773  0.0494 -0.0811
14088TIP3    H163755   2.582   4.175   3.143 -0.0256  0.2348 -0.5624
14088TIP3    H263756   2.495   4.254   3.238  0.2809 -0.4428  0.3017
14089TIP3   OH263757   3.757   1.405   5.597  0.2889  0.0979 -0.1702
14089TIP3    H163758   3.755   1.346   5.672 -3.1434 -0.0186 -0.1950
14089TIP3    H263759   3.774   1.349   5.522 -0.7956 -0.5701  0.0591
14090TIP3   OH263760   3.588   5.806  13.334 -0.3083 -0.3281 -0.3753
14090TIP3    H163761   3.592   5.845  13.421 -1.6555 -0.4198 -0.2541
14090TIP3    H263762   3.590   5.712  13.350  0.7316 -0.3363 -0.5295
14091TIP3   OH263763   2.621   1.181  13.278  0.1241 -0.5020 -0.5640
14091TIP3    H163764   2.614   1.196  13.184 -0.5027  0.3414 -0.3993
14091TIP3    H263765   2.554   1.115  13.298  0.7755 -1.2445 -0.8221
14092TIP3   OH263766   1.979   3.388   1.950 -0.0008 -0.1382 -0.0341
14092TIP3    H163767   1.950   3.475   1.977  1.0407  0.2090 -0.0060
14092TIP3    H263768   1.982   3.393   1.854  0.2372 -0.0794 -0.0245
14093TIP3   OH263769   6.618   3.789   3.960 -0.4476 -0.0403 -0.1129
14093TIP3    H163770   6.555   3.763   4.027  0.1057 -1.1242 -0.0066
14093TIP3    H263771   6.581   3.756   3.878  0.0972 -0.8870 -0.0196
14094TIP3   OH263772   6.719   6.456  14.631 -0.5514 -0.3079 -0.0314
14094TIP3    H163773   6.750   6.391  14.568 -1.2114  0.1910 -0.8732
14094TIP3    H263774   6.638   6.490  14.594 -0.6428  0.4152  0.7990
14095TIP3   OH263775   2.561   0.289  14.247 -0.4527 -0.1087  0.2093
14095TIP3    H163776   2.653   0.266  14.240 -0.6066 -0.4632 -0.7440
14095TIP3    H263777   2.520   0.250  14.170 -1.0938  1.5424 -0.3213
14096TIP3   OH263778   0.566   3.869   0.229 -0.1067 -0.1551  0.6430
14096TIP3    H163779   0.661   3.882   0.224 -0.2741  1.2729  0.6853
14096TIP3    H263780   0.546   3.875   0.322 -0.5073  2.0908  0.4785
14097TIP3   OH263781   5.873   4.388  13.747  0.1048 -0.4721 -0.2173
14097TIP3    H163782   5.913   4.360  13.830  1.7968 -1.1997 -1.2306
14097TIP3    H263783   5.947   4.396  13.687 -1.1956 -0.9596 -1.9349
14098TIP3   OH263784   4.065   3.275   3.230  0.0925  0.4011  0.4149
14098TIP3    H163785   3.993   3.243   3.175  0.3303 -0.0303  0.3474
14098TIP3    H263786   4.105   3.195   3.265 -0.3592  0.6667  1.6202
14099TIP3   OH263787   6.629   6.484  16.938  0.1944 -1.0172  0.2135
14099TIP3    H163788   6.717   6.511  16.909  1.7527 -4.3845  1.3491
14099TIP3    H263789   6.576   6.487  16.859  1.0927  1.6670 -0.3924
14100TIP3   OH263790   4.182   6.028  15.687 -0.0252  0.9686  0.1895
14100TIP3    H163791   4.166   5.943  15.647 -0.2974  1.5473 -0.9813
14100TIP3    H263792   4.105   6.045  15.741  0.3243  0.1988  0.9544
14101TIP3   OH263793   1.223   1.112  15.169  0.7932  0.1422 -0.1067
14101TIP3    H163794   1.219   1.017  15.159 -3.1483 -0.2136  2.4803
14101TIP3    H263795   1.281   1.126  15.244 -1.1594 -0.6702  1.6713
14102TIP3   OH263796   6.576   4.971   4.148  0.8446  0.1548  0.6136
14102TIP3    H163797   6.499   5.025   4.133 -0.1516 -1.2706  0.3160
14102TIP3    H263798   6.648   5.020   4.110 -0.0532  1.1364  0.1220
14103TIP3   OH263799   0.095   3.023  13.281 -0.2978 -0.5110 -0.1987
14103TIP3    H163800   0.041   2.951  13.249 -1.3692  0.6696 -1.1648
14103TIP3    H263801   0.100   3.009  13.376 -2.6479 -0.4632 -0.0038
14104TIP3   OH263802   2.087   0.852   2.844  0.3310  0.3699  0.0376
14104TIP3    H163803   2.164   0.889   2.801  1.3676 -2.2101 -0.5048
14104TIP3    H263804   2.117   0.768   2.878 -2.8018 -2.0033 -2.4393
14105TIP3   OH263805   0.748   4.295   5.327 -0.6807 -0.5096  0.4886
14105TIP3    H163806   0.685   4.337   5.385  0.5465  2.3007 -0.0516
14105TIP3    H263807   0.827   4.284   5.380 -0.5881 -0.9923  0.2607
14106TIP3   OH263808   6.573   3.773  11.481  0.1649  0.1940  0.7731
14106TIP3    H163809   6.563   3.804  11.390 -0.8170 -0.4858  0.6374
14106TIP3    H263810   6.574   3.854  11.533  0.3113  0.5752  0.1932
14107TIP3   OH263811   0.566   2.019   1.615 -0.0586 -0.0678  0.1438
14107TIP3    H163812   0.550   1.927   1.639  0.0004  0.3500  1.9757
14107TIP3    H263813   0.648   2.016   1.565  2.9460 -0.6563  4.4715
14108TIP3   OH263814   0.905   2.222  14.708 -0.1244 -0.1288 -0.1261
14108TIP3    H163815   0.836   2.176  14.661  1.1004 -0.7137 -1.4223
14108TIP3    H263816   0.959   2.261  14.639  1.4091 -0.5278  0.8151
14109TIP3   OH263817   2.048   6.651  13.309  0.3200 -0.4533  0.1135
14109TIP3    H163818   2.127   6.601  13.287 -0.5376 -1.5613 -0.5027
14109TIP3    H263819   1.990   6.588  13.350 -0.3586  0.3030  0.3435
14110TIP3   OH263820   1.616   0.705  14.326  0.3023  0.3156  0.7817
14110TIP3    H163821   1.695   0.672  14.283 -0.4700 -3.0808  1.6693
14110TIP3    H263822   1.647   0.734  14.412  1.0027  2.1375 -0.0215
14111TIP3   OH263823   6.593   0.719   0.606 -0.1040  0.9796  0.3731
14111TIP3    H163824   6.569   0.682   0.691  0.8428 -2.6140 -0.7607
14111TIP3    H263825   6.554   0.660   0.542  0.6123  2.6267 -1.6899
14112TIP3   OH263826   0.533   5.585  13.502 -0.4466  0.1501 -0.5047
14112TIP3    H163827   0.512   5.641  13.427 -2.0834 -0.3591 -0.4579
14112TIP3    H263828   0.451   5.578  13.551  0.9030  1.8256  2.3130
14113TIP3   OH263829   1.354   5.733   4.472  0.4114 -0.0658 -0.2374
14113TIP3    H163830   1.382   5.816   4.512 -0.4572  0.8472 -1.4350
14113TIP3    H263831   1.308   5.760   4.392 -0.5373 -1.6797 -0.2695
14114TIP3   OH263832   6.631   5.013   0.244 -0.0220  0.0371 -0.1806
14114TIP3    H163833   6.694   4.943   0.260  0.2267  0.0327 -1.1149
14114TIP3    H263834   6.678   5.093   0.264  0.1115  0.0070 -0.3753
14115TIP3   OH263835   5.547   5.742  12.758 -0.5324  0.1523 -0.2626
14115TIP3    H163836   5.625   5.771  12.710 -1.1358 -0.5265 -1.7126
14115TIP3    H263837   5.559   5.776  12.846  1.7461 -0.5507 -0.2500
14116TIP3   OH263838   4.968   5.444   3.211  0.3695  0.1135 -0.3528
14116TIP3    H163839   4.941   5.520   3.158 -0.7707 -0.8889 -1.2561
14116TIP3    H263840   4.969   5.371   3.150 -1.5168 -1.1997  1.0770
14117TIP3   OH263841   4.389   5.644  12.072  0.0764  0.2241  0.1722
14117TIP3    H163842   4.453   5.593  12.121 -0.6148  0.6442  1.5672
14117TIP3    H263843   4.426   5.733  12.069  0.9097 -0.1462 -1.5739
14118TIP3   OH263844   3.993   0.956   4.788  0.0275  0.1124 -0.2828
14118TIP3    H163845   3.957   0.908   4.863 -1.5805 -0.2222 -1.2104
14118TIP3    H263846   4.050   1.022   4.828 -0.6138 -0.1854  1.2312
14119TIP3   OH263847   2.497   5.011   2.094  0.2382 -0.1451 -0.4856
14119TIP3    H163848   2.566   4.945   2.103  1.9237  1.1596 -2.7808
14119TIP3    H263849   2.484   5.019   2.000 -0.3516  2.3430 -0.2425
14120TIP3   OH263850   4.981   6.591  11.357 -0.3706  0.2302  0.2299
14120TIP3    H163851   4.956   6.677  11.392  0.1108  0.4942 -0.0724
14120TIP3    H263852   4.970   6.531  11.431 -0.7890  0.5358  0.4203
14121TIP3   OH263853   5.073   3.861  15.794  0.5603 -0.2265  0.3471
14121TIP3    H163854   5.001   3.807  15.761  1.9811 -2.2147  0.3157
14121TIP3    H263855   5.065   3.943  15.746 -0.8987 -0.8744 -0.6056
14122TIP3   OH263856   2.657   0.490  14.025  0.1983 -0.1888  0.0484
14122TIP3    H163857   2.698   0.428  13.965 -0.1948 -0.0950 -0.3199
14122TIP3    H263858   2.664   0.575  13.981  0.2665 -0.0536  0.3178
14123TIP3   OH263859   5.727   5.502  14.961  0.2368 -0.3028  0.3913
14123TIP3    H163860   5.655   5.563  14.950  0.5305 -0.3501 -2.9137
14123TIP3    H263861   5.686   5.422  14.993 -0.9262  0.1714  0.1323
14124TIP3   OH263862   2.044   1.604   2.213  0.5160  0.4941  0.2168
14124TIP3    H163863   1.954   1.602   2.245  0.2797 -0.4716 -0.4765
14124TIP3    H263864   2.083   1.681   2.256 -1.2535  2.2591 -1.1559
14125TIP3   OH263865   3.504   3.110   0.894 -0.3020  0.1972 -0.2063
14125TIP3    H163866   3.494   3.204   0.911 -1.2407  0.4613 -1.9498
14125TIP3    H263867   3.590   3.102   0.853 -0.2227  0.3040 -0.0614
14126TIP3   OH263868   0.296   5.446  14.362  0.0501  0.2478 -0.1803
14126TIP3    H163869   0.229   5.456  14.429 -1.0224 -0.3316 -1.1355
14126TIP3    H263870   0.354   5.522  14.375 -0.3442  0.3478  1.1388
14127TIP3   OH263871   1.686   6.723  13.213  0.3045  0.1073  0.0187
14127TIP3    H163872   1.728   6.768  13.140  0.3552 -0.7111 -0.4748
14127TIP3    H263873   1.723   6.764  13.291  1.7305 -0.2987 -0.4129
14128TIP3   OH263874   6.421   0.191  14.004  0.1190  0.2999 -0.4184
14128TIP3    H163875   6.392   0.277  14.034 -0.5730 -0.3251  0.8299
14128TIP3    H263876   6.399   0.132  14.077  2.2205 -0.6513 -0.4738
14129TIP3   OH263877   6.746   3.512  14.335 -0.4482 -0.0756  0.5730
14129TIP3    H163878   6.669   3.567  14.347 -0.4642  0.3168 -1.0942
14129TIP3    H263879   6.820   3.568  14.361 -0.4288  0.9439 -1.5077
14130TIP3   OH263880   3.938   0.094  15.220 -0.0479 -0.0258  0.0291
14130TIP3    H163881   3.855   0.065  15.260  0.6452 -2.6499 -0.2407
14130TIP3    H263882   3.915   0.175  15.174 -2.0357  0.2899  1.4123
14131TIP3   OH263883   3.978   6.056  12.987  0.4604  0.2357 -0.1428
14131TIP3    H163884   3.963   6.037  13.080  0.4274 -0.4507 -0.2784
14131TIP3    H263885   4.024   5.978  12.954  1.4588  0.9421 -0.4569
14132TIP3   OH263886   5.719   4.329   2.610  0.2775  0.1946  0.2666
14132TIP3    H163887   5.732   4.388   2.535  0.1740 -0.2875 -0.1391
14132TIP3    H263888   5.652   4.267   2.580  1.0106 -0.6595  0.3569
14133TIP3   OH263889   5.226   4.805   1.003 -0.0976  0.2470 -0.0173
14133TIP3    H163890   5.273   4.790   0.920 -0.8351  0.6023 -0.5071
14133TIP3    H263891   5.290   4.847   1.060  1.0378 -1.7838  0.2823
14134TIP3   OH263892   3.505   5.575   4.107 -0.0842 -0.0645 -0.1410
14134TIP3    H163893   3.595   5.589   4.136  0.2285  1.9952 -1.8958
14134TIP3    H263894   3.452   5.627   4.167  0.0615  0.1799 -0.2264
14135TIP3   OH263895   4.709   5.271   6.574  0.4104 -0.1433  0.5410
14135TIP3    H163896   4.649   5.258   6.647  0.4651  0.3951  0.6902
14135TIP3    H263897   4.655   5.308   6.504  0.1460 -1.6044 -0.0594
14136TIP3   OH263898   6.000   5.612   2.480 -0.0689 -0.2781 -0.0172
14136TIP3    H163899   6.001   5.521   2.451  3.4516 -0.0652 -1.0539
14136TIP3    H263900   5.914   5.645   2.454 -0.0420 -2.2933 -3.0861
14137TIP3   OH263901   3.773   6.548  13.311  0.1019 -0.0142 -0.1432
14137TIP3    H163902   3.693   6.528  13.263  0.7012  1.2447 -1.7565
14137TIP3    H263903   3.842   6.501  13.263  0.5382  0.0916  0.3652
14138TIP3   OH263904   2.398   5.180   3.011 -0.0191 -0.3610 -0.5574
14138TIP3    H163905   2.391   5.269   3.046 -1.3698 -0.4011 -0.6776
14138TIP3    H263906   2.398   5.190   2.916 -0.6500 -0.5218 -0.5740
14139TIP3   OH263907   2.423   5.285   3.970  0.1011 -0.2206 -0.1348
14139TIP3    H163908   2.495   5.297   4.032 -0.1428 -2.6144  0.7230
14139TIP3    H263909   2.439   5.350   3.903  3.1213 -0.6545 -0.0057
14140TIP3   OH263910   5.329   6.491   0.135 -0.0931  0.2511 -0.0672
14140TIP3    H163911   5.248   6.542   0.140  0.0288  0.5315 -0.8291
14140TIP3    H263912   5.397   6.555   0.116  0.1743 -0.0990 -0.3065
14141TIP3   OH263913   2.659   6.141  14.721 -0.3192  0.0065 -0.3372
14141TIP3    H163914   2.747   6.133  14.758 -0.7947 -0.7845  0.6659
14141TIP3    H263915   2.631   6.051  14.704 -1.0248  0.2302 -0.4175
14142TIP3   OH263916   2.945   0.068   5.859  0.4337 -0.9820  0.2801
14142TIP3    H163917   2.874   0.084   5.921  2.5470  2.1632  2.2040
14142TIP3    H263918   3.015   0.030   5.912  1.9458  0.8406 -0.3162
14143TIP3   OH263919   6.734   6.431  11.396 -0.4674  0.4140 -0.2425
14143TIP3    H163920   6.728   6.526  11.402  0.1363  0.5424 -1.3311
14143TIP3    H263921   6.824   6.411  11.424 -0.1837  0.3055 -1.1698
14144TIP3   OH263922   6.386   2.965   2.614 -0.1730  0.3727  0.1096
14144TIP3    H163923   6.348   2.942   2.530 -0.9807  0.4856  0.4363
14144TIP3    H263924   6.313   2.960   2.676  0.5589 -0.4744  0.9414
14145TIP3   OH263925   5.633   3.171   5.245 -0.2653  0.3818 -0.7776
14145TIP3    H163926   5.724   3.185   5.271 -0.5242  1.4540 -0.3977
14145TIP3    H263927   5.638   3.107   5.174  0.8461  0.9633 -1.2474
14146TIP3   OH263928   2.792   2.914   2.590  0.5837  0.4020  0.2676
14146TIP3    H163929   2.813   2.963   2.670  2.0695  0.1954  0.0308
14146TIP3    H263930   2.770   2.982   2.526  2.1592  0.7931  0.0811
14147TIP3   OH263931   0.256   3.478  15.474  0.2502 -0.3053  0.6875
14147TIP3    H163932   0.331   3.427  15.505 -0.0050 -0.5055  0.9826
14147TIP3    H263933   0.214   3.421  15.409  1.1187  0.3478 -0.4798
14148TIP3   OH263934   0.282   6.609   1.473  0.4518 -0.3778  0.3131
14148TIP3    H163935   0.269   6.529   1.523 -0.5358  0.2514  1.0966
14148TIP3    H263936   0.217   6.670   1.507 -2.3083 -0.7483 -3.6099
14149TIP3   OH263937   0.140   6.043   4.743 -0.4109  0.3315 -0.0209
14149TIP3    H163938   0.184   6.128   4.742  0.4064 -0.0444  1.4270
14149TIP3    H263939   0.210   5.979   4.747 -0.7999 -0.2515  5.1050
14150TIP3   OH263940   2.456   5.322  15.607  0.5587 -0.2308  0.5346
14150TIP3    H163941   2.450   5.308  15.513 -1.7669  0.7759  0.4656
14150TIP3    H263942   2.454   5.234  15.645  1.2535 -0.6289 -0.3383
14151TIP3   OH263943   6.413   5.960  15.924  0.3794 -0.2849 -0.2484
14151TIP3    H163944   6.356   5.939  15.998  1.4490  0.7155  0.8995
14151TIP3    H263945   6.354   5.958  15.848 -0.9331 -0.4693  0.7274
14152TIP3   OH263946   3.929   1.847  16.773 -0.0920 -0.1726 -0.2398
14152TIP3    H163947   3.972   1.777  16.824  0.7234 -0.4026 -1.1971
14152TIP3    H263948   3.886   1.801  16.701  0.4928  0.2921 -0.9095
14153TIP3   OH263949   1.689   6.753  16.435 -0.3411  0.3308  0.1776
14153TIP3    H163950   1.728   6.765  16.521 -1.2248  2.5013  0.3274
14153TIP3    H263951   1.595   6.765  16.448 -0.3980  1.7600 -1.2349
14154TIP3   OH263952   1.230   1.158  10.889  0.0458 -0.3779 -0.2108
14154TIP3    H163953   1.185   1.161  10.804  0.7483  0.0668 -0.5780
14154TIP3    H263954   1.320   1.135  10.868 -0.2895 -2.6826  0.6562
14155TIP3   OH263955   5.164   2.441   1.265 -0.6284  0.1583 -0.5034
14155TIP3    H163956   5.229   2.374   1.245 -0.5347  0.5612 -1.5832
14155TIP3    H263957   5.105   2.441   1.189 -1.7695 -0.0408  0.3435
14156TIP3   OH263958   3.135   2.708   3.821 -0.0870  0.1249  0.2569
14156TIP3    H163959   3.184   2.665   3.751  0.6484 -0.5417  1.1572
14156TIP3    H263960   3.045   2.675   3.812 -0.1713  0.6247 -0.8167
14157TIP3   OH263961   0.691   1.033  14.345  0.0718  0.6517 -0.0031
14157TIP3    H163962   0.736   1.048  14.261 -1.4140  0.0141 -0.9623
14157TIP3    H263963   0.731   0.952  14.378  0.8124  1.0160  0.0227
14158TIP3   OH263964   5.214   4.599   4.427 -0.1762 -0.2344 -0.5423
14158TIP3    H163965   5.205   4.529   4.363 -1.2257 -0.5206 -0.1073
14158TIP3    H263966   5.174   4.563   4.507 -1.0720  0.9857 -0.4134
14159TIP3   OH263967   2.048   6.308   3.438 -0.1695  0.2053 -0.8910
14159TIP3    H163968   2.080   6.398   3.436  1.2146 -0.1942  0.9812
14159TIP3    H263969   2.101   6.262   3.373 -0.8318  0.7008 -1.7989
14160TIP3   OH263970   0.264   4.692   2.302 -0.0026  0.1696  0.5957
14160TIP3    H163971   0.324   4.699   2.227 -1.1573  0.0536 -0.3680
14160TIP3    H263972   0.234   4.781   2.317 -0.4923  0.0533  0.3104
14161TIP3   OH263973   6.044   4.541  15.192 -0.0885  0.4294  0.8353
14161TIP3    H163974   6.138   4.557  15.200  0.4153 -1.2332 -0.9177
14161TIP3    H263975   6.018   4.590  15.114  0.1244 -1.8219 -0.7365
14162TIP3   OH263976   4.170   3.807   0.074 -0.4044 -0.0252 -0.4098
14162TIP3    H163977   4.107   3.842   0.137  0.1885  1.3436 -0.5567
14162TIP3    H263978   4.252   3.799   0.124 -0.6026 -1.6041 -0.2749
14163TIP3   OH263979   4.354   1.327   0.718  0.4322 -0.4260 -0.2559
14163TIP3    H163980   4.301   1.288   0.788  0.9060 -1.0169 -0.2186
14163TIP3    H263981   4.418   1.381   0.763 -0.3894  0.6382 -0.3177
14164TIP3   OH263982   2.030   5.013   4.384  0.5489 -0.4888 -0.0544
14164TIP3    H163983   2.095   4.969   4.329  0.9748  0.7786 -0.5851
14164TIP3    H263984   2.070   5.096   4.407  0.8552 -1.3751  3.0990
14165TIP3   OH263985   5.773   0.319  11.271 -0.0370 -0.0855  0.4037
14165TIP3    H163986   5.846   0.267  11.235 -0.3458 -1.7158  1.9888
14165TIP3    H263987   5.710   0.325  11.200  1.0802  0.2646 -0.5920
14166TIP3   OH263988   1.811   5.678  14.817 -0.1412 -0.6994 -0.3944
14166TIP3    H163989   1.789   5.644  14.731  0.6638  0.4051 -1.0699
14166TIP3    H263990   1.907   5.677  14.819 -0.1110  0.6128 -0.0974
14167TIP3   OH263991   5.566   4.338   5.583  0.1777 -0.2468  0.0097
14167TIP3    H163992   5.591   4.357   5.674 -0.0508  2.9879 -0.4850
14167TIP3    H263993   5.638   4.374   5.531 -0.4480 -0.6407 -1.1471
14168TIP3   OH263994   2.254   3.817   5.076  0.1498  0.0269 -0.1443
14168TIP3    H163995   2.343   3.782   5.080 -0.6919 -2.7513 -2.1006
14168TIP3    H263996   2.198   3.742   5.096 -1.7914  1.1658 -1.0058
14169TIP3   OH263997   1.579   6.429  14.710 -0.1311  0.0351 -0.1256
14169TIP3    H163998   1.566   6.335  14.719 -1.6459  0.3103  0.9194
14169TIP3    H263999   1.667   6.438  14.673 -0.4490 -1.8218 -1.4595
14170TIP3   OH264000   4.760   4.087  12.202  0.3345 -0.4569  0.0332
14170TIP3    H164001   4.706   4.082  12.281  1.6849  1.3198  1.1515
14170TIP3    H264002   4.758   3.999  12.166 -2.2076 -0.7645  0.7384
14171TIP3   OH264003   4.077   6.457   1.238  0.5997  0.2160  0.1396
14171TIP3    H164004   4.049   6.383   1.183  1.0606  0.9520 -1.1417
14171TIP3    H264005   4.046   6.435   1.325 -0.0842 -1.0550 -0.3882
14172TIP3   OH264006   4.976   4.279   6.385  0.6044  0.9012  0.3235
14172TIP3    H164007   5.062   4.241   6.368  0.1955  0.4019 -0.7226
14172TIP3    H264008   4.949   4.242   6.469  0.2496 -1.0958 -0.6147
14173TIP3   OH264009   1.344   4.262   5.592  1.0657  0.2991 -0.5062
14173TIP3    H164010   1.294   4.180   5.591 -0.2834  1.0953 -0.5397
14173TIP3    H264011   1.358   4.283   5.500  0.7060  0.5216 -0.5102
14174TIP3   OH264012   1.747   6.058  11.856 -0.6999 -0.2675 -0.4869
14174TIP3    H164013   1.783   6.029  11.772 -0.4488 -0.0607 -0.4497
14174TIP3    H264014   1.708   6.143  11.837  1.0462  0.6798  0.0197
14175TIP3   OH264015   2.854   1.137  17.028 -0.6448 -0.1998 -0.0656
14175TIP3    H164016   2.849   1.053  16.982 -0.2160 -0.6671  0.7371
14175TIP3    H264017   2.913   1.190  16.975 -0.6810 -0.5016 -0.4125
14176TIP3   OH264018   3.819   3.730   2.831  0.1182  0.5328  0.8044
14176TIP3    H164019   3.850   3.785   2.759 -2.2408  1.7358  0.5808
14176TIP3    H264020   3.819   3.642   2.795  1.5505  0.7218  0.2791
14177TIP3   OH264021   4.854   5.836  12.304 -0.3227  0.6529  0.5001
14177TIP3    H164022   4.890   5.833  12.393  1.1878  0.2638 -0.1136
14177TIP3    H264023   4.760   5.848  12.318  0.0918  2.6914  2.1394
14178TIP3   OH264024   6.348   2.178   3.323  0.0511 -0.2557 -0.6312
14178TIP3    H164025   6.313   2.163   3.410 -1.7645 -1.2916 -1.4907
14178TIP3    H264026   6.413   2.248   3.335 -0.8074  0.2659  1.3780
14179TIP3   OH264027   5.133   0.004  13.669 -0.5248 -0.0366 -0.4131
14179TIP3    H164028   5.184  -0.046  13.605  0.7282  0.2058  0.3770
14179TIP3    H264029   5.182  -0.004  13.751 -2.3576 -0.7666  0.6806
14180TIP3   OH264030   1.681   6.270   6.400 -0.0666 -0.1316  0.1952
14180TIP3    H164031   1.761   6.317   6.420  0.8281 -0.4995 -2.2591
14180TIP3    H264032   1.622   6.336   6.365 -0.7058  0.0468  1.5410
14181TIP3   OH264033   0.599   4.839  13.952  0.5328 -0.3809  0.4220
14181TIP3    H164034   0.589   4.878  14.038  0.4091 -0.7363  0.5687
14181TIP3    H264035   0.663   4.895  13.907  0.0026  0.2612  0.4613
14182TIP3   OH264036   6.412   1.901   5.194  0.2369 -0.3154 -0.0660
14182TIP3    H164037   6.334   1.927   5.244  0.1268  0.7161 -0.7307
14182TIP3    H264038   6.386   1.912   5.102  1.0194 -0.3818 -0.3017
14183TIP3   OH264039   1.170   6.163   3.123  1.3295  0.1577  0.3684
14183TIP3    H164040   1.089   6.213   3.131  1.3125 -0.0157  1.4083
14183TIP3    H264041   1.231   6.224   3.079  1.2093  0.9822  1.3088
14184TIP3   OH264042   6.305   0.038   1.161  0.1367  0.7061 -0.0869
14184TIP3    H164043   6.238  -0.007   1.110  0.1421  1.1751 -0.5177
14184TIP3    H264044   6.374  -0.027   1.173  0.5149  0.8221 -1.4154
14185TIP3   OH264045   1.969   1.104  12.213 -0.4272 -0.3694  0.1403
14185TIP3    H164046   2.036   1.035  12.216 -0.7241 -0.6550  2.1608
14185TIP3    H264047   2.013   1.179  12.174  0.4347 -1.1811 -0.4895
14186TIP3   OH264048   4.637   5.122   2.758  0.2878 -0.8395 -0.2285
14186TIP3    H164049   4.568   5.125   2.692  0.2225 -1.0605 -0.1715
14186TIP3    H264050   4.609   5.186   2.825  0.9638  0.2921 -0.9951
14187TIP3   OH264051   6.448   0.445  15.654  0.4659 -0.2550  0.4010
14187TIP3    H164052   6.364   0.481  15.679 -0.0425 -0.9935 -0.1867
14187TIP3    H264053   6.499   0.444  15.735 -0.5199 -0.9407  1.0302
14188TIP3   OH264054   4.694   2.818   2.616  0.5213 -0.1085 -0.1984
14188TIP3    H164055   4.672   2.903   2.579 -0.2351 -0.1994  0.0095
14188TIP3    H264056   4.612   2.768   2.610  1.2173 -1.1919 -1.3055
14189TIP3   OH264057   3.605   4.169   6.576  0.3853 -0.6180  0.4343
14189TIP3    H164058   3.517   4.138   6.556 -0.2726  0.5104  1.4105
14189TIP3    H264059   3.631   4.119   6.653  0.8396 -1.3515 -0.1874
14190TIP3   OH264060   3.725   0.311  12.703  0.2594 -0.0672 -0.6556
14190TIP3    H164061   3.649   0.346  12.749  0.9176 -0.7137  1.0108
14190TIP3    H264062   3.792   0.379  12.711 -0.1612  0.5759 -2.2746
14191TIP3   OH264063   1.810   3.013   0.325  0.1299  0.0217 -0.5628
14191TIP3    H164064   1.792   2.920   0.324 -5.7849  0.8310 -1.1919
14191TIP3    H264065   1.792   3.042   0.235  2.5565  1.8225 -0.5834
14192TIP3   OH264066   3.205   3.709  14.962 -0.2607 -0.0451  0.1007
14192TIP3    H164067   3.134   3.676  15.018 -1.4082 -0.7606 -1.6753
14192TIP3    H264068   3.280   3.653  14.982 -0.9385 -0.9271  0.2159
14193TIP3   OH264069   3.818   1.054   4.078 -0.2381  0.4329  0.0924
14193TIP3    H164070   3.769   1.110   4.138 -0.7453  0.1272 -0.0283
14193TIP3    H264071   3.848   1.113   4.009 -0.5750  0.5907  0.0807
14194TIP3   OH264072   2.375   6.448   3.814  0.5777  0.3759 -0.2010
14194TIP3    H164073   2.399   6.416   3.901  2.6923  1.0430 -0.4722
14194TIP3    H264074   2.438   6.518   3.796 -1.3118  1.8932 -1.3188
14195TIP3   OH264075   0.146   3.135   1.858  0.2434 -0.1642  0.3943
14195TIP3    H164076   0.233   3.150   1.893  0.3031 -0.0166  0.1861
14195TIP3    H264077   0.144   3.185   1.776  0.0609 -0.3967  0.2556
14196TIP3   OH264078   5.920   5.688  12.254  0.6496 -0.3104 -0.7183
14196TIP3    H164079   5.945   5.595  12.260 -1.8715 -1.0506 -0.7238
14196TIP3    H264080   5.938   5.711  12.163 -1.4585 -1.7209 -1.5616
14197TIP3   OH264081   3.835   0.345  11.465  0.0114 -0.0818 -0.1111
14197TIP3    H164082   3.747   0.317  11.491 -0.7877  2.5006  0.2052
14197TIP3    H264083   3.834   0.341  11.369 -1.6098  2.8025 -0.3317
14198TIP3   OH264084   3.224   4.917   5.342 -0.0701  0.1788  0.2783
14198TIP3    H164085   3.151   4.950   5.395  1.0143  0.8835  1.3804
14198TIP3    H264086   3.202   4.945   5.253 -1.9920 -1.1513  0.2547
14199TIP3   OH264087   4.025   0.862  10.972 -0.0438  0.2656  0.1808
14199TIP3    H164088   3.971   0.937  10.949 -0.0506  0.2036 -0.0093
14199TIP3    H264089   4.030   0.811  10.891 -0.9401 -0.5002  0.5794
14200TIP3   OH264090   6.171   4.263  14.620 -0.1057 -0.3454 -0.3746
14200TIP3    H164091   6.132   4.179  14.643  0.9355 -1.0335 -1.0578
14200TIP3    H264092   6.265   4.247  14.619  0.1896  1.0901  0.4895
14201TIP3   OH264093   2.789   5.400  11.217  0.0751 -0.1130  0.0784
14201TIP3    H164094   2.773   5.307  11.199  3.0527 -1.0916  1.7390
14201TIP3    H264095   2.795   5.441  11.131 -0.1018 -1.6943 -0.7220
14202TIP3   OH264096   2.719   0.743   0.072  0.5053 -0.2502  0.8408
14202TIP3    H164097   2.687   0.676   0.012  3.0227 -0.2193 -0.6826
14202TIP3    H264098   2.748   0.694   0.149  0.6657 -0.7376  0.4808
14203TIP3   OH264099   1.488   5.755   2.993  0.1873  0.9073  0.0102
14203TIP3    H164100   1.400   5.731   2.963  0.0044  0.2420  1.0367
14203TIP3    H264101   1.544   5.684   2.960  0.3103  1.1923 -0.4119
14204TIP3   OH264102   2.652   2.720   4.352  0.0659 -0.4042 -0.1686
14204TIP3    H164103   2.747   2.726   4.365  0.1034  0.9592 -0.9382
14204TIP3    H264104   2.622   2.665   4.424  1.3567 -0.3063  0.4739
14205TIP3   OH264105   2.850   6.781   1.517 -0.0704 -0.2957 -0.0719
14205TIP3    H164106   2.911   6.839   1.563 -0.5537  0.5246 -0.4524
14205TIP3    H264107   2.896   6.697   1.512 -0.5922 -0.9525  3.3391
14206TIP3   OH264108   3.175   5.786  12.250 -0.9336  0.0935 -0.2373
14206TIP3    H164109   3.099   5.816  12.299 -2.7085 -2.4166 -1.2700
14206TIP3    H264110   3.209   5.712  12.300  0.2617  0.5457 -0.3252
14207TIP3   OH264111   1.140   5.667  13.017  0.0414  1.0054  0.6374
14207TIP3    H164112   1.150   5.740  13.078 -2.2890  0.3886  1.8663
14207TIP3    H264113   1.195   5.598  13.055  0.4886  1.3903  0.7030
14208TIP3   OH264114   3.783   3.441   4.794 -0.7514  0.3142  0.0168
14208TIP3    H164115   3.745   3.522   4.760  1.6606  1.4593 -0.1722
14208TIP3    H264116   3.794   3.385   4.717 -3.5400 -0.7876  0.3078
14209TIP3   OH264117   6.418   2.156   3.637  0.1755  0.0837  0.2515
14209TIP3    H164118   6.492   2.108   3.601  0.5097  2.0231 -1.8842
14209TIP3    H264119   6.457   2.215   3.702  0.1424 -0.5023  0.8187
14210TIP3   OH264120   5.069   3.205  16.447 -0.2459 -0.6640 -0.1085
14210TIP3    H164121   4.999   3.209  16.381  0.2204 -0.8352 -0.6183
14210TIP3    H264122   5.119   3.285  16.434 -0.5608 -0.3545  0.5129
14211TIP3   OH264123   5.337   3.045  12.035  0.0740 -0.3905 -0.3684
14211TIP3    H164124   5.366   3.064  11.946 -1.8981  2.0866 -0.5719
14211TIP3    H264125   5.283   2.967  12.026  0.6784 -0.7437 -1.1387
14212TIP3   OH264126   3.456   6.607  11.879 -0.4541  0.1915 -0.4578
14212TIP3    H164127   3.529   6.605  11.817 -0.4065  0.6531 -0.4192
14212TIP3    H264128   3.499   6.597  11.965 -0.3835  0.9804 -0.3964
14213TIP3   OH264129   5.999   0.040  14.400  0.1732 -0.4499  0.7587
14213TIP3    H164130   6.085   0.080  14.410 -0.3743  1.0810 -0.3265
14213TIP3    H264131   5.948   0.104  14.350 -0.9365 -2.2436 -0.5331
14214TIP3   OH264132   4.731   0.397   2.157  0.1997 -0.3418 -0.0299
14214TIP3    H164133   4.677   0.317   2.154 -0.1662 -0.0863 -0.4048
14214TIP3    H264134   4.820   0.366   2.139  0.0631 -0.6705 -0.1534
14215TIP3   OH264135   1.291   5.794   0.092 -0.0346 -0.0438 -0.0377
14215TIP3    H164136   1.240   5.873   0.110 -2.3044 -1.7560  1.6259
14215TIP3    H264137   1.280   5.779  -0.002  0.2671  1.4764 -0.3354
14216TIP3   OH264138   5.846   5.618   3.086 -0.1475 -0.1215  0.0507
14216TIP3    H164139   5.799   5.580   3.160  0.6929  0.5407  0.9390
14216TIP3    H264140   5.934   5.580   3.090  0.1254  0.4672 -0.1749
14217TIP3   OH264141   3.992   5.776   0.401  0.0065 -0.4827  0.2541
14217TIP3    H164142   4.080   5.789   0.436 -0.3324  0.4076  0.8216
14217TIP3    H264143   3.957   5.704   0.454  0.2703 -0.5972  0.2744
14218TIP3   OH264144   2.530   0.539  15.124  0.0416 -0.3263  0.2867
14218TIP3    H164145   2.471   0.473  15.161 -2.2621  0.5899 -1.5283
14218TIP3    H264146   2.479   0.581  15.055  2.3673  1.5419 -0.4232
14219TIP3   OH264147   2.501   1.223   3.329 -0.0323  0.2801  0.0533
14219TIP3    H164148   2.594   1.229   3.307 -0.1915  2.2261 -0.3306
14219TIP3    H264149   2.488   1.133   3.357  1.5396 -0.6167 -1.8508
14220TIP3   OH264150   1.931   2.209   5.916 -0.3436 -0.3248 -0.2756
14220TIP3    H164151   1.946   2.268   5.842  0.1002  0.6903  0.6048
14220TIP3    H264152   1.860   2.249   5.965  1.1838  0.5292  1.3555
14221TIP3   OH264153   1.888   5.980  12.685 -0.4742  0.4245 -0.7506
14221TIP3    H164154   1.928   5.894  12.701 -0.0656  0.1607 -2.8563
14221TIP3    H264155   1.806   5.978  12.734 -0.5646 -1.2615 -0.8975
14222TIP3   OH264156   5.329   0.578   5.207 -0.3210  0.3472  0.3933
14222TIP3    H164157   5.364   0.537   5.128  1.6489  0.5138  1.1005
14222TIP3    H264158   5.407   0.602   5.258 -1.4601  2.2550  1.3775
14223TIP3   OH264159   4.332   0.575  13.737  0.1266  0.3756 -0.1434
14223TIP3    H164160   4.368   0.663  13.748 -0.1392  0.2198  2.8504
14223TIP3    H264161   4.393   0.518  13.784 -1.4507 -0.5596  0.8519
14224TIP3   OH264162   3.515   5.580   3.370 -0.0184  0.3149  0.4219
14224TIP3    H164163   3.586   5.517   3.381 -0.0578  0.1542 -0.1796
14224TIP3    H264164   3.467   5.549   3.292 -0.5031  0.6461  0.5821
14225TIP3   OH264165   1.946   5.600  16.842 -0.2083  0.0444  0.1114
14225TIP3    H164166   1.970   5.535  16.907 -0.2974  0.0212  0.1206
14225TIP3    H264167   1.882   5.556  16.786 -1.7304  0.7174  1.2461
14226TIP3   OH264168   5.776   2.499   3.736  0.4840  0.5050 -0.0409
14226TIP3    H164169   5.772   2.595   3.738 -2.3808  0.4845 -0.8449
14226TIP3    H264170   5.742   2.473   3.822  0.6834  0.1933 -0.0568
14227TIP3   OH264171   5.755   1.953   3.441  0.1957 -0.8183  0.0196
14227TIP3    H164172   5.823   1.893   3.411  0.6749  0.3020 -1.2644
14227TIP3    H264173   5.787   1.988   3.523  0.5136 -1.3352  0.1180
14228TIP3   OH264174   4.133   3.620   3.828  0.1717  0.0171  0.0090
14228TIP3    H164175   4.051   3.662   3.803  0.1461 -0.2947 -0.4545
14228TIP3    H264176   4.118   3.587   3.916 -0.6020 -1.0199 -0.4863
14229TIP3   OH264177   1.804   3.249  16.019 -0.1886  0.2580 -0.3848
14229TIP3    H164178   1.835   3.168  15.979  2.3811  0.7946  0.3259
14229TIP3    H264179   1.737   3.282  15.958 -0.3854 -1.7261 -1.3145
14230TIP3   OH264180   0.856   6.615   1.084 -0.3089 -0.5069  0.7022
14230TIP3    H164181   0.944   6.648   1.104 -0.2286 -0.7271  0.7158
14230TIP3    H264182   0.828   6.667   1.008 -0.2139 -0.3571  0.7698
14231TIP3   OH264183   1.535   4.346  16.778 -0.3775 -0.1550 -0.0495
14231TIP3    H164184   1.554   4.311  16.691  0.1994 -0.9846  0.3971
14231TIP3    H264185   1.616   4.335  16.826 -1.0692 -0.9280  0.9836
14232TIP3   OH264186   3.508   0.403  13.355 -0.1724  0.0843  0.2389
14232TIP3    H164187   3.522   0.465  13.427 -0.3294 -0.5532  0.8304
14232TIP3    H264188   3.570   0.429  13.287  1.5611 -0.6672  1.4801
14233TIP3   OH264189   3.808   1.551  11.381  0.0717 -0.5330  0.3289
14233TIP3    H164190   3.828   1.586  11.294  1.6806 -0.3220  0.7682
14233TIP3    H264191   3.853   1.467  11.384  0.8459 -0.0962  1.3083
14234TIP3   OH264192   4.363   4.236   5.824  0.2203 -0.0814  0.0116
14234TIP3    H164193   4.392   4.191   5.744  0.9380 -1.1668  0.8468
14234TIP3    H264194   4.436   4.226   5.885 -0.6829 -0.1380  1.1261
14235TIP3   OH264195   6.250   3.448   4.095  0.0405  0.7138  0.2644
14235TIP3    H164196   6.155   3.438   4.094  0.1101 -1.7137  2.8950
14235TIP3    H264197   6.275   3.426   4.185  3.1602  0.7181 -0.4780
14236TIP3   OH264198   0.903   4.399   6.005 -1.0421 -0.0528 -0.0772
14236TIP3    H164199   0.974   4.374   6.065 -0.9608  0.8418  0.2080
14236TIP3    H264200   0.909   4.494   6.000 -0.7253 -0.1377 -1.8981
14237TIP3   OH264201   6.734   6.032   1.434  0.0347  0.1580  0.1286
14237TIP3    H164202   6.767   6.107   1.484  0.3604 -1.0618  1.8301
14237TIP3    H264203   6.645   6.018   1.467 -0.3582  0.3297 -0.8281
14238TIP3   OH264204   1.722   4.852   5.732  0.1133 -0.5835  0.2107
14238TIP3    H164205   1.718   4.885   5.822 -0.3013  1.4048 -0.4711
14238TIP3    H264206   1.656   4.783   5.729 -1.0607  0.4601  1.0278
14239TIP3   OH264207   2.511   6.592  16.454 -0.2013  0.6473 -0.3591
14239TIP3    H164208   2.459   6.639  16.519  1.5989  1.2213  0.7456
14239TIP3    H264209   2.484   6.501  16.463  1.5669  0.3175  2.8874
14240TIP3   OH264210   5.902   6.309   0.928  0.7750  0.2359  0.2697
14240TIP3    H164211   5.874   6.228   0.887  0.0454 -0.2459  1.6362
14240TIP3    H264212   5.978   6.285   0.981 -0.0116  0.2073  1.4257
14241TIP3   OH264213   4.624   1.062   4.326  0.1716 -0.1017 -0.2312
14241TIP3    H164214   4.701   1.081   4.380 -0.0862  0.4735 -0.0507
14241TIP3    H264215   4.647   1.096   4.240 -0.4078  1.3964  0.1654
14242TIP3   OH264216   2.428   0.732   4.183  0.3068 -0.2866 -0.3084
14242TIP3    H164217   2.511   0.767   4.150  0.2271 -0.6669 -0.9070
14242TIP3    H264218   2.384   0.697   4.106 -0.5115  0.1074 -0.0317
14243TIP3   OH264219   1.659   4.289   4.642 -0.1653 -0.7179  0.3549
14243TIP3    H164220   1.573   4.315   4.608 -0.2026 -0.9136  0.2938
14243TIP3    H264221   1.718   4.300   4.567  0.1399  0.7975  0.8000
14244TIP3   OH264222   0.523   1.446   6.291 -0.1390  0.9608  0.3139
14244TIP3    H164223   0.476   1.404   6.218  1.1898  1.7207 -1.0395
14244TIP3    H264224   0.458   1.454   6.360 -1.1925 -0.7069 -0.4194
14245TIP3   OH264225   3.711   4.698  12.840 -0.6953 -0.1266 -0.3750
14245TIP3    H164226   3.766   4.764  12.883 -0.6039 -0.4049 -0.0571
14245TIP3    H264227   3.646   4.675  12.906  1.9765 -3.7399  1.3712
14246TIP3   OH264228   5.238   0.473  14.996 -0.3064 -0.0239  0.0081
14246TIP3    H164229   5.216   0.561  14.966 -0.1804 -0.6958 -2.2162
14246TIP3    H264230   5.154   0.429  15.009 -0.4100  0.7068  2.2445
14247TIP3   OH264231   3.723   5.543  16.644  0.3764 -0.0093  0.4185
14247TIP3    H164232   3.643   5.533  16.696  0.5933 -0.6783  0.6378
14247TIP3    H264233   3.715   5.630  16.603 -0.4187 -0.0383  0.5006
14248TIP3   OH264234   1.720   1.012  11.970  0.4625 -0.9250 -0.4230
14248TIP3    H164235   1.762   1.098  11.968 -0.6114 -0.1607  3.0455
14248TIP3    H264236   1.791   0.951  11.987  0.7407 -0.0594  1.8903
14249TIP3   OH264237   2.372   4.061  15.947  0.1389  0.2911  0.6530
14249TIP3    H164238   2.378   3.980  15.999 -0.3359 -0.9980 -1.1769
14249TIP3    H264239   2.305   4.042  15.882  0.5879  1.8902 -0.3190
14250TIP3   OH264240   4.170   4.114  10.934  0.7665  0.1085 -0.2318
14250TIP3    H164241   4.121   4.132  11.014 -1.2101  3.2192 -1.9324
14250TIP3    H264242   4.241   4.179  10.934  1.1613 -0.3138 -0.6882
14251TIP3   OH264243   2.462   1.434  16.220 -0.3663  0.3876 -0.2103
14251TIP3    H164244   2.447   1.340  16.225 -1.6291  0.5985  0.2676
14251TIP3    H264245   2.509   1.455  16.300  1.4349 -0.0613 -1.0802
14252TIP3   OH264246   6.532   5.052  11.106  0.1678  0.6077  0.1533
14252TIP3    H164247   6.558   5.144  11.112 -0.0300  0.5771  2.3350
14252TIP3    H264248   6.550   5.028  11.016 -0.6157  3.0306 -0.7240
14253TIP3   OH264249   0.277   4.535   2.763  0.0295  0.4327 -0.2599
14253TIP3    H164250   0.229   4.505   2.840 -0.3650 -0.0969 -0.7083
14253TIP3    H264251   0.328   4.610   2.795 -0.3405  0.3945  0.4471
14254TIP3   OH264252   2.514   0.911   4.429  0.3075  0.0322  0.0812
14254TIP3    H164253   2.518   0.925   4.335 -0.4053 -2.1033 -0.3006
14254TIP3    H264254   2.604   0.892   4.455  0.3947 -0.0482 -0.2862
14255TIP3   OH264255   0.869   3.297  14.364  0.0804  0.1119 -0.7546
14255TIP3    H164256   0.843   3.276  14.274  0.1770  3.3773 -1.6842
14255TIP3    H264257   0.956   3.336  14.354 -0.6284  2.1496  0.4570
14256TIP3   OH264258   3.468   3.365  11.820  0.6614  0.3295  0.3665
14256TIP3    H164259   3.445   3.360  11.727  0.3886 -1.2456  0.4924
14256TIP3    H264260   3.511   3.450  11.829  0.5471  0.5854 -1.1647
14257TIP3   OH264261   3.569   2.744   4.077  0.4376  0.0564  0.0649
14257TIP3    H164262   3.598   2.793   4.000  0.1797 -2.0010 -1.4068
14257TIP3    H264263   3.478   2.772   4.090  1.2335  2.3489  1.2896
14258TIP3   OH264264   4.407   1.306  13.811  0.3650  0.4399 -0.6069
14258TIP3    H164265   4.465   1.249  13.862 -1.2862 -0.2841  0.5250
14258TIP3    H264266   4.448   1.392  13.817  0.6326  0.2198  1.2944
14259TIP3   OH264267   1.886   3.087   5.111 -0.5581  0.2323  0.0593
14259TIP3    H164268   1.854   3.175   5.089  0.5966  0.4143 -1.0138
14259TIP3    H264269   1.885   3.085   5.206 -2.0865  0.8325  0.0958
14260TIP3   OH264270   1.296   5.680   4.898 -0.5511 -0.1232 -0.7825
14260TIP3    H164271   1.347   5.669   4.818  0.5285  1.1392 -0.3092
14260TIP3    H264272   1.329   5.612   4.957 -0.6453 -0.4272 -1.0817
14261TIP3   OH264273   5.478   5.920   2.241  0.0766  0.5761  0.1002
14261TIP3    H164274   5.477   5.984   2.313 -0.8924 -0.6286  1.2205
14261TIP3    H264275   5.397   5.937   2.194 -1.1074 -0.9420  1.4903
14262TIP3   OH264276   2.418   3.208  14.618 -0.2171 -0.3136 -0.2518
14262TIP3    H164277   2.514   3.208  14.607 -0.1433 -1.6298  0.2187
14262TIP3    H264278   2.405   3.193  14.711 -0.8975  0.3997 -0.2222
14263TIP3   OH264279   2.236   3.181  16.960  0.4032  0.2394  0.3994
14263TIP3    H164280   2.250   3.118  16.889 -2.1962  2.0068 -1.8645
14263TIP3    H264281   2.316   3.234  16.961  0.9062 -0.4776 -0.4530
14264TIP3   OH264282   2.215   5.234  12.555  0.1889 -0.0155  0.4501
14264TIP3    H164283   2.224   5.175  12.629  1.1504  0.7593  0.9736
14264TIP3    H264284   2.303   5.271  12.542 -0.4326  1.5338  0.3573
14265TIP3   OH264285   0.437   3.142   5.384 -0.1753  0.5250  0.3759
14265TIP3    H164286   0.407   3.071   5.327 -0.0047 -2.9652  4.1657
14265TIP3    H264287   0.512   3.180   5.338 -0.2878 -1.7166 -1.8709
14266TIP3   OH264288   4.907   0.993  16.432  0.5824 -0.0501 -0.1815
14266TIP3    H164289   4.897   1.084  16.460 -0.2376 -0.5003  1.0323
14266TIP3    H264290   5.001   0.976  16.440  0.7390  0.6684 -0.3808
14267TIP3   OH264291   4.868   1.369   4.720  0.0633 -0.2056  0.4113
14267TIP3    H164292   4.864   1.436   4.788 -1.5178  0.3904 -0.2185
14267TIP3    H264293   4.961   1.349   4.711  1.0924  4.3232 -1.7067
14268TIP3   OH264294   6.758   6.759   3.037  0.3091  0.3391  0.1989
14268TIP3    H164295   6.709   6.797   2.964 -0.6081 -0.6768  0.2636
14268TIP3    H264296   6.694   6.706   3.085  1.0341  0.5038  1.4039
14269TIP3   OH264297   3.822   0.488  16.844  0.0726  0.5406  0.8309
14269TIP3    H164298   3.763   0.539  16.788  0.3992 -0.5911 -0.5967
14269TIP3    H264299   3.774   0.407  16.862  0.5057  0.3418  1.1006
14270TIP3   OH264300   1.838   5.210   0.352  0.3785  0.3142 -0.1178
14270TIP3    H164301   1.893   5.180   0.280  1.6993  1.1732  0.4876
14270TIP3    H264302   1.766   5.257   0.310 -0.6324 -1.8598 -0.9759
14271TIP3   OH264303   2.439   6.273  14.828 -0.4410 -0.3194 -0.0380
14271TIP3    H164304   2.519   6.231  14.859  0.0913 -0.3920 -1.4333
14271TIP3    H264305   2.468   6.359  14.797 -1.2239  0.3934  1.1144
14272TIP3   OH264306   6.319   4.472  14.817  0.2449 -0.2211 -0.8857
14272TIP3    H164307   6.298   4.548  14.763  2.0917 -0.8349 -2.5851
14272TIP3    H264308   6.283   4.397  14.769  0.3504 -0.6250 -0.3501
14273TIP3   OH264309   5.879   4.196   0.631 -0.4768  0.1165  0.3940
14273TIP3    H164310   5.858   4.245   0.711 -2.7314 -1.0903  0.6197
14273TIP3    H264311   5.974   4.183   0.635 -0.4756  0.3920  2.6855
14274TIP3   OH264312   4.862   2.084   2.428 -0.4587 -0.9297  0.0167
14274TIP3    H164313   4.848   2.173   2.394 -2.3199 -1.1950 -0.0221
14274TIP3    H264314   4.956   2.079   2.445 -0.4452  1.4262  1.0297
14275TIP3   OH264315   4.906   3.933   5.470 -0.2162  0.1767 -0.1820
14275TIP3    H164316   4.882   3.936   5.378  0.1312  0.6234 -0.2630
14275TIP3    H264317   4.918   4.025   5.495 -2.3234  0.2124  0.8561
14276TIP3   OH264318   4.320   3.567  16.723  0.3512 -0.4749  0.1530
14276TIP3    H164319   4.281   3.481  16.733  0.0443 -0.3472  0.0530
14276TIP3    H264320   4.347   3.571  16.631  0.9174 -0.6958  0.3051
14277TIP3   OH264321   4.125   4.801  16.107  0.2727 -0.2633 -0.1173
14277TIP3    H164322   4.198   4.814  16.168  0.3689 -3.3955  0.5945
14277TIP3    H264323   4.164   4.757  16.032 -0.8598 -2.1896  0.3704
14278TIP3   OH264324   1.500   5.832   0.445  0.5377  0.7534 -0.2875
14278TIP3    H164325   1.426   5.798   0.496  0.2535  1.4038 -0.2643
14278TIP3    H264326   1.553   5.754   0.427 -0.5866  0.1274 -1.0427
14279TIP3   OH264327   3.556   5.423   1.638  0.6359 -0.2535  0.2998
14279TIP3    H164328   3.548   5.518   1.631  0.4656 -0.2857  0.0616
14279TIP3    H264329   3.630   5.400   1.582  1.5982 -0.1073  1.4641
14280TIP3   OH264330   5.947   1.852   3.809  0.3050  0.0964  0.3717
14280TIP3    H164331   5.938   1.810   3.723  2.8167 -0.0095  0.1070
14280TIP3    H264332   5.886   1.925   3.806 -1.3473 -1.2390 -0.5966
14281TIP3   OH264333   1.789   0.464   0.929  0.3219  0.1028  0.1164
14281TIP3    H164334   1.837   0.404   0.872  1.3625  1.7476 -0.7943
14281TIP3    H264335   1.737   0.518   0.870  0.0375  0.6677  0.8613
14282TIP3   OH264336   3.666   2.717  11.860 -0.2569 -0.3354  0.5086
14282TIP3    H164337   3.617   2.636  11.844 -1.1790  0.3811 -0.3572
14282TIP3    H264338   3.605   2.773  11.908 -0.6922  0.9329 -1.4186
14283TIP3   OH264339   1.735   0.128  14.352  0.3665 -0.3172 -0.2599
14283TIP3    H164340   1.685   0.075  14.290 -2.0416 -1.1001  2.1314
14283TIP3    H264341   1.669   0.165  14.411  2.4687 -0.5356  2.4829
14284TIP3   OH264342   0.078   3.281  14.604 -0.2068  0.0355  0.6282
14284TIP3    H164343   0.093   3.186  14.600  1.1078  0.2669 -2.0688
14284TIP3    H264344   0.164   3.317  14.626 -0.4618  0.6774  0.5822
14285TIP3   OH264345   0.645   4.103  13.145  0.3701  0.1080  0.5509
14285TIP3    H164346   0.607   4.129  13.061  0.0208  0.8058  0.9210
14285TIP3    H264347   0.701   4.028  13.123 -0.7430 -0.5757 -0.1083
14286TIP3   OH264348   6.717   4.859   5.982 -0.2332 -0.6445 -0.6401
14286TIP3    H164349   6.737   4.765   5.980  2.1690 -0.1861 -1.7030
14286TIP3    H264350   6.752   4.890   6.065  1.9320 -0.1968 -1.6454
14287TIP3   OH264351   3.363   4.445  12.672 -0.2092 -0.1659  0.3057
14287TIP3    H164352   3.279   4.404  12.692  0.0062 -0.6841  0.1631
14287TIP3    H264353   3.343   4.512  12.607 -0.2232 -1.6431 -1.2583
14288TIP3   OH264354   3.132   0.313   6.059 -0.5599 -0.2939  0.0009
14288TIP3    H164355   3.121   0.218   6.063  0.0054 -0.3207  1.6641
14288TIP3    H264356   3.225   0.328   6.077 -0.0560  0.4938 -2.7582
14289TIP3   OH264357   6.420   1.412  14.442  0.0950 -0.5105  0.0552
14289TIP3    H164358   6.386   1.422  14.353 -0.5412 -0.5074  0.2903
14289TIP3    H264359   6.373   1.335  14.476 -1.1772  0.6628  1.0695
14290TIP3   OH264360   6.263   6.499   4.899  0.4951 -0.8880 -0.2326
14290TIP3    H164361   6.199   6.431   4.882  1.7066 -2.2577  0.4416
14290TIP3    H264362   6.213   6.571   4.938 -0.8274 -1.3046 -1.1056
14291TIP3   OH264363   1.500   3.252   6.186  0.1519 -0.2894  0.1100
14291TIP3    H164364   1.508   3.207   6.102  0.3675  2.4643 -1.4628
14291TIP3    H264365   1.444   3.328   6.167  1.5651  1.3274  2.0152
14292TIP3   OH264366   2.195   6.396   0.166  0.8628  0.2809  0.6791
14292TIP3    H164367   2.194   6.310   0.125 -0.3171  0.9234 -0.7107
14292TIP3    H264368   2.269   6.392   0.227  0.2457 -2.0076  1.3595
14293TIP3   OH264369   2.344   5.731   5.134  0.1450 -0.1750 -0.1375
14293TIP3    H164370   2.376   5.817   5.162  0.3291 -0.3658  0.2508
14293TIP3    H264371   2.257   5.723   5.174 -0.9473  0.8516 -2.1813
14294TIP3   OH264372   1.990   2.186   3.187  0.0852 -0.1341 -0.1572
14294TIP3    H164373   1.894   2.185   3.188  0.0593 -2.1575  0.3408
14294TIP3    H264374   2.015   2.197   3.278  0.3653  1.0464 -0.3593
14295TIP3   OH264375   1.423   3.719  14.455 -0.1818 -0.7568 -1.0121
14295TIP3    H164376   1.499   3.661  14.454 -0.5881 -1.3464 -3.2411
14295TIP3    H264377   1.349   3.662  14.478  0.0173 -0.1097  1.5497
14296TIP3   OH264378   6.553   3.582  17.063  0.2914 -0.5320 -0.1444
14296TIP3    H164379   6.498   3.510  17.093  0.1092 -0.5715 -0.5655
14296TIP3    H264380   6.555   3.573  16.968  0.8826 -0.4261 -0.1480
14297TIP3   OH264381   4.313   5.837  11.826 -0.1209  0.3241 -0.5354
14297TIP3    H164382   4.235   5.858  11.775  0.8997 -0.1533 -2.3786
14297TIP3    H264383   4.281   5.782  11.898 -1.5864  0.9395 -0.6838
14298TIP3   OH264384   6.035   4.418   3.537 -1.0520  0.1552 -0.3521
14298TIP3    H164385   6.027   4.378   3.624 -0.0496  2.1119  0.7015
14298TIP3    H264386   5.978   4.494   3.540  0.9864  1.7626 -0.4192
14299TIP3   OH264387   4.327   1.125   6.211 -0.2699  0.4611 -0.6589
14299TIP3    H164388   4.387   1.133   6.136 -1.8370  3.6669 -1.7822
14299TIP3    H264389   4.243   1.103   6.172 -1.0806  2.0140  0.1379
14300TIP3   OH264390   4.140   3.218   2.919  0.0437  0.3551  0.7491
14300TIP3    H164391   4.167   3.282   2.853 -0.1786 -0.4495 -0.1355
14300TIP3    H264392   4.220   3.172   2.943 -0.1223 -0.4005 -0.1084
14301TIP3   OH264393   1.668   0.977  11.305  0.2304 -0.2469  0.5463
14301TIP3    H164394   1.726   1.004  11.376  0.9437  0.1768 -0.1852
14301TIP3    H264395   1.624   0.899  11.339 -0.8325  0.9935  2.1595
14302TIP3   OH264396   2.720   6.735   4.043  0.3214  0.2066  0.0336
14302TIP3    H164397   2.786   6.791   4.002  1.2930  0.0670  1.3506
14302TIP3    H264398   2.685   6.788   4.114 -0.3078 -0.0814 -0.0585
14303TIP3   OH264399   5.994   0.899  11.477  0.3591  0.7068  0.5106
14303TIP3    H164400   5.997   0.849  11.558  0.2607  2.7983  1.8886
14303TIP3    H264401   5.918   0.866  11.430  1.4288 -1.7520  0.3885
14304TIP3   OH264402   5.608   6.381   5.328  0.1415 -0.5553  0.2764
14304TIP3    H164403   5.674   6.320   5.359  0.4236  0.0624  0.9316
14304TIP3    H264404   5.646   6.468   5.343 -0.7583 -0.1885  0.5672
14305TIP3   OH264405   0.638   6.032   3.605 -0.0398 -0.6447 -0.3940
14305TIP3    H164406   0.719   5.997   3.639 -1.7939 -2.2825  2.4675
14305TIP3    H264407   0.623   6.113   3.655  0.1917  0.1218 -1.5150
14306TIP3   OH264408   6.779   3.192  15.787 -0.0851 -0.3550 -0.1551
14306TIP3    H164409   6.841   3.242  15.840 -0.1407 -0.7775  0.3240
14306TIP3    H264410   6.788   3.102  15.819 -0.2352 -0.5898 -0.7623
14307TIP3   OH264411   4.769   3.367   3.781  0.0835 -0.0273  0.0856
14307TIP3    H164412   4.716   3.424   3.837 -0.8139 -2.3983  1.8233
14307TIP3    H264413   4.822   3.316   3.842  2.0430  0.0390 -1.4757
14308TIP3   OH264414   4.933   4.249   3.750  0.0349  0.4778  0.0959
14308TIP3    H164415   4.860   4.187   3.754  0.4047  0.0124 -0.2905
14308TIP3    H264416   4.991   4.215   3.681  1.7543 -0.4291  1.8798
14309TIP3   OH264417   2.384   4.493  12.830 -0.1420 -0.1799  0.0536
14309TIP3    H164418   2.444   4.567  12.836  0.7644 -0.8929  0.1137
14309TIP3    H264419   2.337   4.506  12.748  1.1113 -0.3194 -0.7210
14310TIP3   OH264420   3.025   2.259  13.055  0.2023  0.3570 -0.1683
14310TIP3    H164421   3.083   2.334  13.069  0.9184 -0.1166 -0.5102
14310TIP3    H264422   3.020   2.250  12.960  0.3906 -0.2219 -0.1267
14311TIP3   OH264423   4.558   1.390   1.477  0.2601 -0.0302 -0.5321
14311TIP3    H164424   4.596   1.305   1.499  0.5058 -0.3990 -2.1911
14311TIP3    H264425   4.546   1.386   1.382  0.0222  1.6902 -0.6022
14312TIP3   OH264426   4.707   1.241  15.318 -0.5540  0.7939 -0.3227
14312TIP3    H164427   4.659   1.322  15.338 -0.8661  0.3053  0.9822
14312TIP3    H264428   4.786   1.271  15.272 -1.3289  1.7279 -1.0814
14313TIP3   OH264429   6.498   4.942  15.370 -0.6409 -0.0262 -0.6024
14313TIP3    H164430   6.583   4.944  15.415 -0.6689 -0.1845 -0.5408
14313TIP3    H264431   6.509   4.878  15.300 -0.6771  0.0289 -0.6580
14314TIP3   OH264432   0.495   5.666   5.335 -0.3671  0.2167 -0.5296
14314TIP3    H164433   0.413   5.713   5.342 -0.5980 -0.3239  0.7233
14314TIP3    H264434   0.471   5.580   5.299 -0.3221  0.1246 -0.3407
14315TIP3   OH264435   6.663   3.686   5.207 -0.3350 -0.0054 -0.6370
14315TIP3    H164436   6.573   3.685   5.240 -0.1998  0.2839 -0.2433
14315TIP3    H264437   6.696   3.773   5.230  0.7878 -0.8588  1.2641
14316TIP3   OH264438   0.178   2.754  13.584 -0.4263  0.7316  0.0628
14316TIP3    H164439   0.250   2.768  13.646  0.6605 -1.3636 -0.6051
14316TIP3    H264440   0.102   2.795  13.625  0.8338  1.7653  1.4734
14317TIP3   OH264441   6.625   1.153   0.438  0.2923 -0.1773 -0.3921
14317TIP3    H164442   6.673   1.232   0.461  0.1828  0.2447 -1.5711
14317TIP3    H264443   6.533   1.180   0.438  0.2023 -0.4760 -0.1405
14318TIP3   OH264444   4.362   5.547  16.529  0.3757  0.1395 -0.1202
14318TIP3    H164445   4.344   5.585  16.615  1.1284 -0.0642  0.1382
14318TIP3    H264446   4.411   5.467  16.548 -0.1443 -0.3266 -0.7109
14319TIP3   OH264447   5.491   5.769  15.274 -0.2163 -0.2378 -0.3342
14319TIP3    H164448   5.517   5.785  15.364 -0.5078  1.8028 -0.5601
14319TIP3    H264449   5.462   5.677  15.273 -0.4021 -0.2392  1.6745
14320TIP3   OH264450   4.286   2.691  12.540 -0.2113 -0.1100 -0.7941
14320TIP3    H164451   4.329   2.744  12.608 -0.4158  1.5889 -1.9163
14320TIP3    H264452   4.206   2.660  12.581 -0.2158  0.6930 -0.1568
14321TIP3   OH264453   6.064   6.638   0.518  0.8777  0.0626 -0.2702
14321TIP3    H164454   6.155   6.608   0.521  0.5952 -0.7585  1.4184
14321TIP3    H264455   6.015   6.570   0.564 -0.5983  0.4970 -1.1642
14322TIP3   OH264456   1.907   5.338   1.225  0.1171 -0.2985  0.4534
14322TIP3    H164457   1.832   5.284   1.199 -0.5386  0.4484  0.7473
14322TIP3    H264458   1.868   5.421   1.254  0.9200 -0.4920  2.2465
14323TIP3   OH264459   5.522   3.096   0.652 -0.2809 -0.2531  0.3663
14323TIP3    H164460   5.604   3.048   0.654 -0.0436  0.1243  2.7032
14323TIP3    H264461   5.485   3.084   0.740 -1.0687  2.3247  0.4788
14324TIP3   OH264462   6.490   0.257  13.266 -0.8560 -0.0448  0.0188
14324TIP3    H164463   6.581   0.246  13.237 -0.9133 -0.2823 -0.0764
14324TIP3    H264464   6.438   0.222  13.193 -1.0241  0.1392  0.0507
14325TIP3   OH264465   5.568   1.983  16.447 -0.3163  0.8617 -0.5296
14325TIP3    H164466   5.556   2.033  16.366  0.0748  1.7368 -0.0504
14325TIP3    H264467   5.480   1.952  16.468 -0.5886  1.4644 -0.7544
14326TIP3   OH264468   0.023   2.875   1.932  0.3254 -0.1497  0.5223
14326TIP3    H164469   0.062   2.800   1.887 -1.4134 -0.7417 -0.0582
14326TIP3    H264470   0.054   2.951   1.882 -0.4216 -0.7067 -0.8593
14327TIP3   OH264471   3.162   4.961   5.741 -0.1065 -0.2971  0.4147
14327TIP3    H164472   3.199   5.030   5.686  0.2417 -0.0776  0.9123
14327TIP3    H264473   3.235   4.900   5.754 -0.4290 -0.7906 -0.0726
14328TIP3   OH264474   5.071   2.684   1.614  0.0689 -0.0718 -0.1411
14328TIP3    H164475   5.136   2.742   1.652  0.9319 -1.3247  0.3568
14328TIP3    H264476   5.001   2.680   1.679  0.2010  0.0883  0.0100
14329TIP3   OH264477   4.970   4.377  15.438  0.7420  0.2937  0.2313
14329TIP3    H164478   5.018   4.409  15.514 -0.2497  0.3684  0.8510
14329TIP3    H264479   4.878   4.378  15.466  0.5202 -1.3876 -0.3452
14330TIP3   OH264480   6.547   2.633  14.332  0.3275  0.3527  0.4983
14330TIP3    H164481   6.568   2.680  14.412 -0.3194  2.2416 -0.3808
14330TIP3    H264482   6.631   2.625  14.286  0.4887  0.4301  0.7776
14331TIP3   OH264483   2.707   3.457  15.110  0.5591 -0.1886 -0.7646
14331TIP3    H164484   2.641   3.417  15.054 -0.1683 -1.8909  1.1567
14331TIP3    H264485   2.747   3.383  15.156  2.3437  0.9797 -0.3437
14332TIP3   OH264486   4.690   5.047  16.381 -0.8949 -0.5870  0.5281
14332TIP3    H164487   4.606   5.081  16.350 -1.1319 -0.8628  0.8657
14332TIP3    H264488   4.667   4.979  16.444 -0.4187 -0.7936  0.4845
14333TIP3   OH264489   2.949   5.220   5.020 -0.3089 -0.0490 -0.4587
14333TIP3    H164490   2.906   5.306   5.022 -0.3466 -0.0679 -0.4533
14333TIP3    H264491   2.877   5.158   5.032  0.0560  0.0168  3.5594
14334TIP3   OH264492   5.753   3.859   1.330  0.1575 -0.0747  0.4227
14334TIP3    H164493   5.670   3.831   1.292  1.1617 -0.1609 -1.8086
14334TIP3    H264494   5.749   3.955   1.330  0.0018 -0.0815  0.4825
14335TIP3   OH264495   5.662   0.384  16.038  0.1647  0.5144 -0.0513
14335TIP3    H164496   5.728   0.399  15.971 -0.9285  1.1397 -1.0014
14335TIP3    H264497   5.594   0.448  16.021 -0.5767  0.0689  1.0913
14336TIP3   OH264498   0.928   2.140   2.836  0.4887 -0.2953  0.7623
14336TIP3    H164499   0.989   2.066   2.838  0.3549 -0.4172  0.4572
14336TIP3    H264500   0.955   2.191   2.759  1.3500  0.6401  1.6484
14337TIP3   OH264501   6.060   4.870  12.063  0.2323 -0.2981 -0.1672
14337TIP3    H164502   6.023   4.792  12.103 -0.3444 -0.5721 -1.2044
14337TIP3    H264503   5.997   4.895  11.995  0.7049  0.7119 -0.2549
14338TIP3   OH264504   5.745   6.097   0.364 -0.4926  0.7258  0.2618
14338TIP3    H164505   5.768   6.088   0.271  1.0965  0.9081  0.6111
14338TIP3    H264506   5.715   6.010   0.390 -0.0148  0.4264 -0.1806
14339TIP3   OH264507   3.530   2.819  17.079  0.4707 -0.0901 -0.2192
14339TIP3    H164508   3.543   2.802  16.986  1.8338  4.0336 -0.9941
14339TIP3    H264509   3.615   2.804  17.119 -0.1027 -1.8168  0.4444
14340TIP3   OH264510   6.741   0.221   3.510  0.1192  0.0309 -0.1525
14340TIP3    H164511   6.686   0.148   3.483  0.5166 -0.0098 -0.8861
14340TIP3    H264512   6.728   0.287   3.441  2.0154 -0.5094 -1.0883
14341TIP3   OH264513   4.501   0.828  14.584 -0.1460  0.1915  1.0963
14341TIP3    H164514   4.462   0.873  14.510  3.9016 -0.0998 -1.5350
14341TIP3    H264515   4.437   0.838  14.655 -2.2488  4.6196 -1.0008
14342TIP3   OH264516   5.358   6.396  15.938 -0.0176 -0.8075 -0.1815
14342TIP3    H164517   5.415   6.323  15.959  0.9964  0.0132  0.0139
14342TIP3    H264518   5.278   6.356  15.904  0.4679 -1.9931  0.0461
14343TIP3   OH264519   3.175   3.560   0.553 -0.2812 -0.5891 -0.2164
14343TIP3    H164520   3.246   3.624   0.546 -0.6542 -0.2005 -0.5125
14343TIP3    H264521   3.096   3.611   0.535 -0.5134 -1.2801 -1.2028
14344TIP3   OH264522   5.409   2.178  16.653 -0.3980  0.0716 -0.6089
14344TIP3    H164523   5.432   2.215  16.567 -0.7739  0.8515 -0.3842
14344TIP3    H264524   5.343   2.111  16.633 -0.1814 -0.0395 -0.9666
14345TIP3   OH264525   1.177   5.526   0.891 -0.3668  0.1966  0.0941
14345TIP3    H164526   1.125   5.497   0.966  0.8552 -1.0271  0.5185
14345TIP3    H264527   1.126   5.498   0.815 -0.4436 -0.8112  0.4971
14346TIP3   OH264528   2.636   4.499   5.908 -0.8061 -0.0811  0.4579
14346TIP3    H164529   2.687   4.552   5.847  0.1845  0.7824  1.9546
14346TIP3    H264530   2.548   4.538   5.905 -0.3796  0.9537  0.6794
14347TIP3   OH264531   4.984   3.691   2.843 -0.1744 -0.4616  0.3135
14347TIP3    H164532   4.895   3.720   2.827  0.3442  0.6426 -0.7411
14347TIP3    H264533   5.021   3.676   2.756  1.2654  1.0651  0.5923
14348TIP3   OH264534   0.447   2.757  14.854  0.4898 -0.9639  0.1929
14348TIP3    H164535   0.527   2.808  14.842 -0.6342  0.8857  0.1301
14348TIP3    H264536   0.429   2.719  14.768  0.1413  0.4361 -0.3776
14349TIP3   OH264537   3.735   4.533   6.016 -0.1745  0.5129 -0.2203
14349TIP3    H164538   3.727   4.623   6.047  1.8590  0.2920  1.0905
14349TIP3    H264539   3.657   4.489   6.051 -2.3084  2.0871 -2.5494
14350TIP3   OH264540   4.042   3.953   0.339  0.0226  0.2588  0.1825
14350TIP3    H164541   4.004   4.029   0.383  0.7626  1.6120 -1.4177
14350TIP3    H264542   4.033   3.882   0.403  0.0056  1.8369  2.0358
14351TIP3   OH264543   5.378   3.118   0.408 -0.0821  0.6533  0.1486
14351TIP3    H164544   5.429   3.051   0.363  1.0132 -0.1023  2.3183
14351TIP3    H264545   5.408   3.113   0.499 -2.2513  1.9563  1.0185
14352TIP3   OH264546   4.839   6.090  14.923 -0.6188 -0.2352  0.6327
14352TIP3    H164547   4.802   6.002  14.926 -1.4759  0.0808 -0.2168
14352TIP3    H264548   4.931   6.078  14.943 -0.3232 -1.5773 -1.2838
14353TIP3   OH264549   0.973   0.331  16.568 -0.3883 -0.8061 -0.3092
14353TIP3    H164550   1.028   0.277  16.624  0.3933  0.9035  0.6390
14353TIP3    H264551   1.014   0.325  16.482  1.7902  0.9933  0.5170
14354TIP3   OH264552   5.406   6.456   5.696  0.0602 -0.5254 -0.2930
14354TIP3    H164553   5.479   6.404   5.663  0.3271  0.2768 -0.9994
14354TIP3    H264554   5.416   6.454   5.791  0.1829 -1.5759 -0.3119
14355TIP3   OH264555   3.164   4.226   4.417 -0.2817  0.2517  0.2251
14355TIP3    H164556   3.116   4.173   4.354  0.3339 -0.6364  0.4797
14355TIP3    H264557   3.099   4.286   4.452 -1.0494 -0.4615  0.0629
14356TIP3   OH264558   4.879   4.475   3.925  0.1811 -0.2023 -0.0634
14356TIP3    H164559   4.922   4.405   3.875  2.1390  0.1190  1.0625
14356TIP3    H264560   4.950   4.532   3.953 -1.4538  3.0657 -2.0306
14357TIP3   OH264561   5.079   2.417   2.883  0.0113  0.0179  0.1867
14357TIP3    H164562   5.093   2.324   2.897  0.0536 -0.1126 -0.6758
14357TIP3    H264563   5.084   2.429   2.789 -0.9883  0.7341  0.1938
14358TIP3   OH264564   1.996   4.407   1.408  0.2642  0.0924  1.2910
14358TIP3    H164565   2.089   4.394   1.427  0.1853 -0.3530  1.3726
14358TIP3    H264566   1.950   4.355   1.474 -0.0727  1.2343  1.9728
14359TIP3   OH264567   4.027   5.786   5.782  0.1365 -0.6867  0.8336
14359TIP3    H164568   3.945   5.825   5.753  1.2193  2.5776  1.6393
14359TIP3    H264569   4.003   5.700   5.815 -2.4226 -1.0669 -1.6455
14360TIP3   OH264570   3.007   0.530  14.961 -0.2738 -1.1615  0.0850
14360TIP3    H164571   2.969   0.459  15.014 -1.1837  1.4759  3.3519
14360TIP3    H264572   2.960   0.608  14.990  1.0170  0.9263 -2.9517
14361TIP3   OH264573   4.744   2.530  12.713 -0.2057  0.6533  0.1623
14361TIP3    H164574   4.650   2.512  12.721 -0.2199 -0.8407 -2.3886
14361TIP3    H264575   4.753   2.571  12.627  1.5396  0.2893  0.1332
14362TIP3   OH264576   0.184   0.558   3.964  0.1964 -0.1400  0.1436
14362TIP3    H164577   0.107   0.505   3.987  0.0657  0.3326  0.8231
14362TIP3    H264578   0.202   0.535   3.873 -2.0102  1.2585 -0.7476
14363TIP3   OH264579   6.814   5.934   4.459  0.4326 -0.5234 -0.5336
14363TIP3    H164580   6.844   5.994   4.527  0.0949 -0.1073 -0.7436
14363TIP3    H264581   6.867   5.956   4.382  1.7099 -1.8560 -0.0706
14364TIP3   OH264582   1.224   2.623   0.968 -0.6543 -0.2862  0.3304
14364TIP3    H164583   1.220   2.706   0.919  2.0803  0.7111  1.6027
14364TIP3    H264584   1.212   2.648   1.059  2.1766 -0.8954  0.9721
14365TIP3   OH264585   3.309   4.894   6.456 -0.5238 -0.0288  0.4259
14365TIP3    H164586   3.230   4.864   6.502 -0.7291 -1.7523 -0.9166
14365TIP3    H264587   3.285   4.889   6.363  0.8195  0.4956  0.0312
14366TIP3   OH264588   0.582   3.432   5.781 -0.0730 -0.8828 -0.4897
14366TIP3    H164589   0.494   3.393   5.783  0.1135 -1.3804 -1.4633
14366TIP3    H264590   0.584   3.490   5.857 -2.1716  1.0977 -1.7825
14367TIP3   OH264591   0.867   3.141   2.940  0.8681  0.4852 -0.5467
14367TIP3    H164592   0.890   3.104   2.855  0.8944 -0.4156 -0.1656
14367TIP3    H264593   0.816   3.219   2.920 -1.3779 -1.0967 -1.4376
14368TIP3   OH264594   4.817   3.158  15.756 -0.0755  0.7566  0.1883
14368TIP3    H164595   4.737   3.200  15.786 -1.9062 -1.0610 -1.8211
14368TIP3    H264596   4.810   3.067  15.786 -0.0161 -0.0536 -2.0654
14369TIP3   OH264597   1.521   0.703  11.038 -0.1555  0.2580  0.3063
14369TIP3    H164598   1.556   0.681  11.125 -0.8796  1.3843  0.9098
14369TIP3    H264599   1.591   0.752  10.996 -0.1251  0.4934  0.6201
14370TIP3   OH264600   1.940   1.290   1.183  1.0999  0.5390 -0.2809
14370TIP3    H164601   1.931   1.385   1.174  1.5847  0.6129 -0.0092
14370TIP3    H264602   1.940   1.275   1.278 -3.5870 -0.1846 -0.1208
14371TIP3   OH264603   3.625   0.895   3.919 -0.6790 -0.0562 -0.3663
14371TIP3    H164604   3.612   0.926   3.829 -1.1533  1.1275  0.0836
14371TIP3    H264605   3.683   0.960   3.958 -1.6902  0.2978  0.6039
14372TIP3   OH264606   2.939   5.267  16.629 -0.1440  0.1886 -0.6570
14372TIP3    H164607   2.873   5.335  16.615 -2.4465 -1.6914  0.3378
14372TIP3    H264608   2.972   5.283  16.717 -0.1260  0.4542 -0.7121
14373TIP3   OH264609   6.667   2.212   3.909 -0.3575  0.1396  0.8369
14373TIP3    H164610   6.665   2.220   4.004  0.5246  0.7726  0.8153
14373TIP3    H264611   6.628   2.293   3.877  1.5715  1.0562  0.6645
14374TIP3   OH264612   6.668   0.735  16.650 -0.2420 -0.0906  0.0581
14374TIP3    H164613   6.752   0.732  16.697  0.3370 -0.3892 -0.9670
14374TIP3    H264614   6.666   0.653  16.601 -1.6745 -0.6213  0.9389
14375TIP3   OH264615   3.022   4.947  15.921  0.1364  0.4694 -0.1263
14375TIP3    H164616   3.012   5.008  15.994 -0.4045 -0.0808  0.2700
14375TIP3    H264617   3.054   4.867  15.961 -0.8660 -0.0731 -0.3713
14376TIP3   OH264618   1.231   3.109  12.755 -0.1272  0.3300  0.4419
14376TIP3    H164619   1.307   3.073  12.710 -1.1852 -2.5147  0.7647
14376TIP3    H264620   1.266   3.141  12.839  0.7621 -0.6354  0.4569
14377TIP3   OH264621   4.709   6.382   2.634  0.1082  0.1383  0.3522
14377TIP3    H164622   4.790   6.331   2.633 -0.5665 -0.9631 -0.2910
14377TIP3    H264623   4.689   6.393   2.727  0.1826 -0.9374  0.5115
14378TIP3   OH264624   1.041   5.086  14.316 -0.2814 -0.3797  0.2290
14378TIP3    H164625   0.996   5.132  14.245  1.9620  1.1095 -0.3507
14378TIP3    H264626   1.105   5.031  14.271  1.1987  0.6148  1.0219
14379TIP3   OH264627   1.147   1.265  16.238  0.0037 -0.3076 -0.0339
14379TIP3    H164628   1.133   1.351  16.279 -0.0322  0.2776 -1.2457
14379TIP3    H264629   1.144   1.204  16.311 -0.9668  0.6146  0.7339
14380TIP3   OH264630   2.881   1.207   5.105  0.7102  0.1020  0.1728
14380TIP3    H164631   2.851   1.153   5.032  2.8016 -0.7690 -0.1333
14380TIP3    H264632   2.871   1.297   5.075 -2.6102 -0.0145  0.5959
14381TIP3   OH264633   4.196   6.591  12.547  0.6213  0.1003  0.8811
14381TIP3    H164634   4.126   6.542  12.590 -0.7745  0.3700 -0.9608
14381TIP3    H264635   4.233   6.529  12.484  0.5333  0.6382  0.2923
14382TIP3   OH264636   3.719   1.837   1.335  0.8965 -0.3396  0.0037
14382TIP3    H164637   3.768   1.876   1.407  0.6948 -0.2941  0.1167
14382TIP3    H264638   3.662   1.772   1.377 -1.5053  1.8103  0.2870
14383TIP3   OH264639   1.418   3.105  10.500  0.2263 -0.6426  0.2578
14383TIP3    H164640   1.377   3.161  10.434 -0.9572  0.5518  1.9237
14383TIP3    H264641   1.401   3.016  10.469  0.3890 -0.1367 -1.4275
14384TIP3   OH264642   2.240   5.831   3.862 -0.2938  0.7096  0.5152
14384TIP3    H164643   2.263   5.913   3.818 -0.6897  1.7867  2.1936
14384TIP3    H264644   2.146   5.823   3.848 -0.0763 -0.0731 -0.5881
14385TIP3   OH264645   0.286   0.107   1.836  0.2843  0.0470  0.2122
14385TIP3    H164646   0.223   0.104   1.908  0.8655 -0.5881  0.7138
14385TIP3    H264647   0.320   0.018   1.830  1.3711  0.4440  0.1747
14386TIP3   OH264648   3.058   3.790   2.842 -0.0593  0.0206 -0.5842
14386TIP3    H164649   3.106   3.873   2.839  0.1329 -0.0730 -0.1063
14386TIP3    H264650   3.119   3.726   2.806  0.5671 -0.2833  0.9571
14387TIP3   OH264651   5.286   0.633   1.667  0.7294  0.1369  0.4654
14387TIP3    H164652   5.302   0.600   1.756  1.4639 -0.3241  0.1680
14387TIP3    H264653   5.360   0.690   1.648  0.0501  1.0719  0.5305
14388TIP3   OH264654   0.875   4.290  13.633 -0.0686  0.2247  0.2792
14388TIP3    H164655   0.936   4.218  13.646 -3.2544 -2.2787  3.0261
14388TIP3    H264656   0.858   4.290  13.538  1.2352 -1.5040 -0.0033
14389TIP3   OH264657   3.086   2.898  14.767  0.4557 -0.4752  0.1021
14389TIP3    H164658   3.068   2.977  14.818  2.8046 -0.6763  1.3891
14389TIP3    H264659   3.071   2.826  14.827  0.3260 -0.9111 -0.4443
14390TIP3   OH264660   0.851   4.667  16.096 -0.4810  0.2318  0.0059
14390TIP3    H164661   0.883   4.598  16.153 -1.1750  0.0855  0.2208
14390TIP3    H264662   0.757   4.655  16.094 -0.6695  1.4900  0.4672
14391TIP3   OH264663   0.391   4.054   0.966 -0.3243  0.4757  0.5333
14391TIP3    H164664   0.313   4.081   0.918 -0.7769 -0.5512  0.6704
14391TIP3    H264665   0.358   4.011   1.045  0.2729 -2.1282 -0.5278
14392TIP3   OH264666   3.881   2.741  12.870  0.5482 -0.1302  0.1270
14392TIP3    H164667   3.898   2.757  12.963  2.0373 -0.1223 -0.1173
14392TIP3    H264668   3.871   2.829  12.832 -0.2627 -0.1387  0.2924
14393TIP3   OH264669   3.728   5.991  13.824  0.2688 -0.4680 -0.5074
14393TIP3    H164670   3.764   6.074  13.856  0.6978  0.2091 -2.6382
14393TIP3    H264671   3.650   5.977  13.878  1.4073  0.1286  1.4178
14394TIP3   OH264672   4.539   4.996  15.472  0.1628 -0.0739  0.6974
14394TIP3    H164673   4.575   4.974  15.558  1.4466  1.3434  0.5774
14394TIP3    H264674   4.583   4.936  15.412  0.0427 -0.3687  0.9016
14395TIP3   OH264675   3.142   2.466  16.742 -0.0842 -0.6697 -0.2238
14395TIP3    H164676   3.156   2.560  16.755 -0.5159 -0.6666  0.2379
14395TIP3    H264677   3.167   2.426  16.825  0.9579 -1.0616 -0.7063
14396TIP3   OH264678   0.504   2.214   2.756 -0.2267 -0.1703  0.4404
14396TIP3    H164679   0.436   2.153   2.726 -0.7801  0.5688  0.1734
14396TIP3    H264680   0.460   2.269   2.821  0.3018 -0.1309  0.7707
14397TIP3   OH264681   4.215   3.730   5.795  0.3227 -0.0836 -0.0849
14397TIP3    H164682   4.154   3.714   5.722  1.4048 -1.0066 -0.8312
14397TIP3    H264683   4.159   3.762   5.866 -0.9370 -0.2714 -0.9455
14398TIP3   OH264684   2.692   0.553   3.862 -0.6957  0.6653  0.0895
14398TIP3    H164685   2.705   0.471   3.815  0.8472  1.3078 -0.6892
14398TIP3    H264686   2.738   0.618   3.809 -0.4731  1.7419  1.5429
14399TIP3   OH264687   1.704   2.209  14.777  0.4240 -0.5173  0.3210
14399TIP3    H164688   1.632   2.146  14.769  0.3272 -0.2375 -1.3073
14399TIP3    H264689   1.661   2.291  14.804  0.0486 -0.2659 -0.9592
14400TIP3   OH264690   2.673   1.161  14.088  0.2520 -0.4677 -0.0834
14400TIP3    H164691   2.730   1.085  14.096 -0.6030 -1.0000  1.3963
14400TIP3    H264692   2.588   1.125  14.064  0.2403  0.1992 -1.1037
14401TIP3   OH264693   4.406   5.461  15.094 -0.3018  0.1084  0.1742
14401TIP3    H164694   4.342   5.482  15.027  1.1754  0.2457 -1.2491
14401TIP3    H264695   4.387   5.370  15.118 -0.1959 -0.2940 -1.2046
14402TIP3   OH264696   1.632   5.242  16.265 -0.4539 -0.8862  0.2151
14402TIP3    H164697   1.652   5.176  16.331  2.4863  0.4455  0.7924
14402TIP3    H264698   1.670   5.209  16.184  0.3562 -0.2814  0.3370
14403TIP3   OH264699   5.366   4.926  14.565 -0.1294  0.1772 -0.1291
14403TIP3    H164700   5.406   4.858  14.512 -1.1880  1.0772 -2.2187
14403TIP3    H264701   5.332   4.880  14.642  1.5615 -1.1655 -0.1253
14404TIP3   OH264702   0.114   3.039  14.091  0.2001  0.2175  0.9220
14404TIP3    H164703   0.033   2.991  14.077 -0.1856  0.8394  0.9741
14404TIP3    H264704   0.088   3.115  14.143  0.2452  2.0751 -1.5820
14405TIP3   OH264705   0.020   0.175   2.784  0.6314  0.7816  0.1356
14405TIP3    H164706   0.083   0.208   2.847  2.4314  1.4357 -1.8915
14405TIP3    H264707   0.073   0.136   2.714 -1.2859 -1.5376 -0.2007
14406TIP3   OH264708   4.108   5.886  12.672 -0.0594 -0.0069  0.2158
14406TIP3    H164709   4.024   5.841  12.663 -0.8269  1.1937  1.0224
14406TIP3    H264710   4.130   5.876  12.765  0.8302 -0.5331 -0.0432
14407TIP3   OH264711   4.985   5.129   1.048  0.2345  0.3634  0.8417
14407TIP3    H164712   4.919   5.183   1.092  0.2995  0.8990  0.3006
14407TIP3    H264713   4.953   5.120   0.958  1.2688  1.3221  0.3319
14408TIP3   OH264714   3.372   1.689  15.977 -0.4882  0.7428  0.6248
14408TIP3    H164715   3.414   1.618  15.929  2.4112  2.3766  0.5155
14408TIP3    H264716   3.333   1.745  15.909  0.4342  1.1420  0.4108
14409TIP3   OH264717   4.853   3.841  12.569  0.1729  0.0991 -0.1318
14409TIP3    H164718   4.839   3.910  12.504 -1.4069  1.0311  1.1130
14409TIP3    H264719   4.841   3.760  12.521  0.0063  0.7425 -1.2094
14410TIP3   OH264720   1.395   6.649   2.438 -0.8398 -0.2660  0.3609
14410TIP3    H164721   1.387   6.722   2.376  2.6945  0.0303  0.0076
14410TIP3    H264722   1.384   6.688   2.524  0.2580  0.6049  0.1329
14411TIP3   OH264723   4.971   5.163   6.511  0.3317  0.2997 -0.3305
14411TIP3    H164724   5.041   5.224   6.533  0.4022 -0.0408  0.4168
14411TIP3    H264725   4.890   5.210   6.531  0.2989  0.8864 -1.6800
14412TIP3   OH264726   2.145   4.767   3.228 -0.1280 -0.2493  0.3689
14412TIP3    H164727   2.212   4.824   3.190 -1.0351 -0.0439 -0.9841
14412TIP3    H264728   2.193   4.689   3.255  0.6107 -0.2908 -0.9693
14413TIP3   OH264729   4.124   1.230   5.999 -0.1044 -1.1675 -0.2132
14413TIP3    H164730   4.062   1.262   6.065  0.5849 -1.2646  0.4893
14413TIP3    H264731   4.082   1.152   5.964 -0.2320 -1.4355  0.5116
14414TIP3   OH264732   2.345   3.097  14.922  0.2883  0.1323  0.1253
14414TIP3    H164733   2.285   3.043  14.870 -0.3059  1.4694 -0.6107
14414TIP3    H264734   2.346   3.054  15.008 -1.4471 -0.1433  0.0558
14415TIP3   OH264735   0.424   2.344  13.073 -0.1789 -0.0014 -0.2610
14415TIP3    H164736   0.478   2.352  12.994  1.7659 -0.5664  0.9332
14415TIP3    H264737   0.463   2.270  13.121 -1.7421 -0.1116  0.9041
14416TIP3   OH264738   4.523   4.150  16.106  0.3469 -0.4392  0.4632
14416TIP3    H164739   4.552   4.237  16.081  1.6479 -0.7766  0.7184
14416TIP3    H264740   4.493   4.159  16.197  1.4469 -0.4462  0.8424
14417TIP3   OH264741   2.269   3.281   0.261  0.1583 -0.0125 -0.7507
14417TIP3    H164742   2.268   3.191   0.230  3.5738 -0.0115 -1.2233
14417TIP3    H264743   2.210   3.281   0.337  0.2408 -2.6909 -0.6006
14418TIP3   OH264744   5.939   6.147  11.967  0.0604  0.0402  0.1737
14418TIP3    H164745   5.964   6.220  12.023  1.4838  0.6790 -1.2267
14418TIP3    H264746   5.942   6.183  11.878 -1.3022 -1.1669 -0.4104
14419TIP3   OH264747   4.673   4.775  17.151  0.2771 -0.6250  0.2176
14419TIP3    H164748   4.766   4.789  17.169  0.3013  1.9905 -1.4391
14419TIP3    H264749   4.667   4.769  17.056 -1.0698 -2.8684  0.3626
14420TIP3   OH264750   1.591   4.396   1.359 -0.0750 -0.3613  0.5106
14420TIP3    H164751   1.563   4.485   1.382 -1.5649 -0.3061 -1.2318
14420TIP3    H264752   1.560   4.384   1.269  2.0033 -1.8910 -0.0770
14421TIP3   OH264753   2.994   1.677  16.693 -0.2590 -0.0744 -0.7230
14421TIP3    H164754   2.936   1.623  16.639 -1.0624  0.8145 -0.7677
14421TIP3    H264755   2.957   1.765  16.689  0.6013  0.3415 -0.0403
14422TIP3   OH264756   5.029   2.787  14.779 -0.4306 -0.3893 -0.1166
14422TIP3    H164757   5.064   2.736  14.705 -1.5065 -1.7787  0.2858
14422TIP3    H264758   4.974   2.854  14.738 -0.0989 -0.4121 -0.6102
14423TIP3   OH264759   4.533   4.209  11.392 -0.1628 -0.2817  0.5023
14423TIP3    H164760   4.454   4.159  11.410 -0.5374 -0.1995 -0.7962
14423TIP3    H264761   4.544   4.204  11.297  0.5407  0.9778  0.4865
14424TIP3   OH264762   6.074   1.123  12.352  0.7331 -0.6365  0.0943
14424TIP3    H164763   6.151   1.164  12.391  1.4538 -0.3129 -1.5999
14424TIP3    H264764   6.016   1.195  12.330  0.1082 -0.8520  0.9719
14425TIP3   OH264765   5.793   0.491   1.104 -0.2249  0.1032 -0.2758
14425TIP3    H164766   5.811   0.493   1.010  0.1510 -0.0060 -0.2079
14425TIP3    H264767   5.717   0.434   1.113 -3.1737  3.5943 -0.9636
14426TIP3   OH264768   3.289   1.002   4.366 -0.0577  0.2697 -0.3103
14426TIP3    H164769   3.275   1.047   4.449 -0.4647 -0.7791  0.2140
14426TIP3    H264770   3.205   0.958   4.349  0.1010  0.2857 -1.1505
14427TIP3   OH264771   5.493   3.139  12.820 -0.1686 -0.5192  0.0749
14427TIP3    H164772   5.525   3.230  12.819 -0.5163 -0.3994 -1.1239
14427TIP3    H264773   5.560   3.089  12.774 -1.7749 -0.1953 -2.8764
14428TIP3   OH264774   3.596   5.386  13.220  0.3422 -0.1305  0.2091
14428TIP3    H164775   3.621   5.341  13.139  1.8282  0.9434  0.0240
14428TIP3    H264776   3.515   5.431  13.199  1.4083  1.2478 -1.1458
14429TIP3   OH264777   6.024   1.035   1.144 -0.7041  0.3886 -0.7442
14429TIP3    H164778   6.120   1.036   1.142 -0.7114  0.5324 -1.0449
14429TIP3    H264779   6.002   1.078   1.226 -0.4700 -1.9996  0.6899
14430TIP3   OH264780   6.562   0.319  10.981  0.3699  0.1573 -0.3239
14430TIP3    H164781   6.629   0.292  10.918 -0.2031 -1.4868 -0.2924
14430TIP3    H264782   6.520   0.237  11.007 -0.0395  0.8992  1.4995
14431TIP3   OH264783   2.692   1.513  11.946 -0.6432  0.7785  0.5819
14431TIP3    H164784   2.762   1.470  11.897 -0.6674 -1.6328  2.4889
14431TIP3    H264785   2.623   1.447  11.952 -0.8253  1.0978  3.3867
14432TIP3   OH264786   1.905   5.076  12.594  0.2762 -0.3978 -0.3991
14432TIP3    H164787   1.969   5.069  12.665 -0.9507  2.5529  1.1947
14432TIP3    H264788   1.957   5.069  12.514  2.1573 -0.9215  0.8114
14433TIP3   OH264789   5.005   4.720   4.653  0.2117 -0.2644 -0.3238
14433TIP3    H164790   4.927   4.760   4.615  0.8011  1.0634 -0.1787
14433TIP3    H264791   5.078   4.769   4.616  1.0259 -1.7932 -0.8231
14434TIP3   OH264792   1.396   6.798   5.540  0.1208 -0.0818  0.3087
14434TIP3    H164793   1.327   6.764   5.597 -0.6439 -0.4491 -0.8136
14434TIP3    H264794   1.450   6.722   5.519 -1.0692 -0.4881 -1.4719
14435TIP3   OH264795   1.850   0.010   3.097  0.4037 -0.0295  0.4121
14435TIP3    H164796   1.779   0.055   3.050 -0.0622 -0.9753  0.1853
14435TIP3    H264797   1.863  -0.072   3.048 -0.0964 -1.0446  1.9044
14436TIP3   OH264798   0.381   3.921   1.292 -0.6734  0.0445 -0.0748
14436TIP3    H164799   0.292   3.935   1.258 -0.4995 -1.0512 -1.0311
14436TIP3    H264800   0.428   4.002   1.271 -0.9867 -0.0337 -1.1242
14437TIP3   OH264801   6.194   5.041  16.464  0.3208  0.8161 -0.1468
14437TIP3    H164802   6.177   5.013  16.554 -1.3634  0.0975 -0.6504
14437TIP3    H264803   6.151   5.126  16.456  0.3228  0.8012 -0.3295
14438TIP3   OH264804   3.959   0.172   5.001 -0.1619  0.4508 -0.8931
14438TIP3    H164805   4.033   0.185   5.060  0.5004 -0.8269 -1.4015
14438TIP3    H264806   3.979   0.227   4.925  0.6398 -0.4072 -1.3291
14439TIP3   OH264807   3.670   6.342  11.376 -0.0770 -0.3894  0.0550
14439TIP3    H164808   3.684   6.422  11.325  0.1761 -1.4158 -1.5434
14439TIP3    H264809   3.754   6.326  11.419  0.6498 -1.0952 -1.5671
14440TIP3   OH264810   3.803   5.125   5.565 -0.1129 -0.5507 -0.2472
14440TIP3    H164811   3.859   5.098   5.492 -1.0369 -0.1385 -1.1200
14440TIP3    H264812   3.778   5.043   5.607  0.9011 -0.7590 -0.0160
14441TIP3   OH264813   0.464   6.584  13.868  0.2865 -0.3324  0.0492
14441TIP3    H164814   0.488   6.567  13.959  2.4913  0.6056 -0.2873
14441TIP3    H264815   0.382   6.634  13.874 -0.1588 -1.1810  1.4512
14442TIP3   OH264816   4.413   5.516   2.301  0.1988  0.2836 -0.0189
14442TIP3    H164817   4.453   5.439   2.260  1.0003  0.4935  0.3513
14442TIP3    H264818   4.332   5.483   2.339 -0.5829  0.0722 -1.7461
14443TIP3   OH264819   0.800   2.564  12.989 -0.3259  0.0612 -0.0206
14443TIP3    H164820   0.827   2.492  13.045  0.0273  1.6648  1.9591
14443TIP3    H264821   0.867   2.567  12.920 -0.5377 -1.6724 -0.3491
14444TIP3   OH264822   6.643   4.509  11.569  0.6206 -0.0810 -0.3821
14444TIP3    H164823   6.687   4.592  11.589 -1.4339  1.1488 -0.6789
14444TIP3    H264824   6.551   4.527  11.586 -0.0819 -1.7951 -2.1457
14445TIP3   OH264825   5.759   2.256  11.754  0.0437 -0.5010  0.0945
14445TIP3    H164826   5.799   2.283  11.672 -1.1415 -1.0908 -0.6966
14445TIP3    H264827   5.804   2.176  11.779 -1.6769 -2.0895 -1.6509
14446TIP3   OH264828   5.463   6.268  15.643 -0.2774 -0.3148  0.4594
14446TIP3    H164829   5.548   6.297  15.678  0.5668 -2.1347  0.0459
14446TIP3    H264830   5.400   6.290  15.712  0.6307  0.4432  1.0752
14447TIP3   OH264831   6.707   3.362  16.581  0.2243  0.5260 -0.7643
14447TIP3    H164832   6.617   3.376  16.609  0.3882 -0.0714  0.1157
14447TIP3    H264833   6.759   3.376  16.660  0.6632 -1.7246 -0.5735
14448TIP3   OH264834   2.823   4.658   5.372 -0.3364  0.5016  0.0111
14448TIP3    H164835   2.874   4.664   5.452  0.3100  0.0739 -0.3636
14448TIP3    H264836   2.862   4.723   5.313  0.3094 -0.3942 -0.5637
14449TIP3   OH264837   2.895   0.272  10.138  0.1210 -0.0253 -0.1382
14449TIP3    H164838   2.939   0.236  10.216 -0.0321 -2.7515 -1.2041
14449TIP3    H264839   2.802   0.269  10.160  0.0933 -0.5390 -0.3203
14450TIP3   OH264840   1.579   5.387   1.834  0.2388 -0.0378  0.3938
14450TIP3    H164841   1.590   5.432   1.750 -1.1285 -1.2479 -0.5002
14450TIP3    H264842   1.668   5.368   1.863  0.7432 -0.2648 -1.1954
14451TIP3   OH264843   6.047   1.489  13.051 -0.0391  0.7776  0.0969
14451TIP3    H164844   6.121   1.510  12.994  0.5168 -0.5681  0.2836
14451TIP3    H264845   5.969   1.506  12.997  0.4250  1.4048 -0.3828
14452TIP3   OH264846   4.079   0.388   3.747  0.4646 -0.4235 -0.3766
14452TIP3    H164847   4.112   0.472   3.778 -0.2268 -0.5983  0.9192
14452TIP3    H264848   4.156   0.331   3.745  1.2605  0.6156 -2.8216
14453TIP3   OH264849   4.580   4.381  12.219  0.3508 -0.1121  0.4248
14453TIP3    H164850   4.560   4.473  12.238  0.5999 -0.1577  0.9259
14453TIP3    H264851   4.494   4.338  12.217  0.0481  0.4654 -1.7919
14454TIP3   OH264852   2.750   4.679   0.930  0.2932  0.3836 -0.1000
14454TIP3    H164853   2.788   4.652   0.846 -1.0400 -0.0799 -0.5789
14454TIP3    H264854   2.773   4.772   0.938  0.1034  0.5346 -1.1709
14455TIP3   OH264855   5.121   5.632  13.687  0.0744 -1.1317 -0.0520
14455TIP3    H164856   5.029   5.612  13.669  0.1260  1.2647 -4.2261
14455TIP3    H264857   5.168   5.550  13.670 -1.1034 -2.0273  0.8433
14456TIP3   OH264858   2.364   3.917   2.171  0.0500  0.2748 -0.5396
14456TIP3    H164859   2.387   3.842   2.116  2.5585  0.3391  0.2854
14456TIP3    H264860   2.419   3.989   2.139 -1.6591  1.5577 -0.7359
14457TIP3   OH264861   6.339   0.587  11.412  0.7510 -0.1626  0.6988
14457TIP3    H164862   6.285   0.654  11.370  2.4791  0.3628 -0.8754
14457TIP3    H264863   6.395   0.635  11.472  0.9658 -0.3965  0.6887
14458TIP3   OH264864   5.050   4.974  15.026  0.3918 -0.0307 -0.9245
14458TIP3    H164865   5.028   5.064  15.049 -1.9346 -0.0774 -2.6363
14458TIP3    H264866   5.079   4.934  15.108 -0.1917  1.7986  0.2195
14459TIP3   OH264867   1.835   5.451  11.296 -0.0580  0.3745  0.3303
14459TIP3    H164868   1.757   5.397  11.293  0.0848  0.2170 -0.5693
14459TIP3    H264869   1.808   5.536  11.261  0.3372  0.1020 -0.6741
14460TIP3   OH264870   5.529   6.175  15.999  0.0525  0.3399 -0.1802
14460TIP3    H164871   5.599   6.193  16.063  1.1995  0.1994 -1.3492
14460TIP3    H264872   5.498   6.087  16.022 -0.9484  1.0540  1.3949
14461TIP3   OH264873   2.746   4.333   6.435  0.7535  0.2819 -0.5209
14461TIP3    H164874   2.687   4.277   6.386  1.3332 -0.0848 -0.8124
14461TIP3    H264875   2.800   4.272   6.486  0.0837  0.6586  0.6653
14462TIP3   OH264876   4.317   2.532   4.239  0.5275 -0.3459  0.4412
14462TIP3    H164877   4.228   2.511   4.210  0.1310 -1.7879  2.4422
14462TIP3    H264878   4.305   2.605   4.300  0.5301 -1.2322  1.5377
14463TIP3   OH264879   1.287   4.639  15.729 -0.0395 -0.3173  0.0043
14463TIP3    H164880   1.206   4.679  15.762  0.2442 -0.0485  0.3889
14463TIP3    H264881   1.292   4.666  15.637 -1.1482 -1.5616 -0.4534
14464TIP3   OH264882   6.392   3.391  14.827 -0.0198  0.6450  0.2505
14464TIP3    H164883   6.474   3.412  14.782  1.2009 -0.4082  1.8614
14464TIP3    H264884   6.337   3.468  14.814  1.0702  1.2310 -1.1841
14465TIP3   OH264885   6.399   5.430  12.502 -0.1349  0.1427  0.0498
14465TIP3    H164886   6.393   5.338  12.529  0.7115 -0.1729 -0.8066
14465TIP3    H264887   6.467   5.466  12.558  0.6584 -0.1662 -0.7001
14466TIP3   OH264888   2.922   5.679  15.756  0.4721  0.0332  0.2441
14466TIP3    H164889   2.879   5.603  15.796  0.8870 -1.1976 -1.5215
14466TIP3    H264890   2.865   5.702  15.682  0.8031  0.9143  0.2581
14467TIP3   OH264891   4.131   3.965  17.066 -0.7345  0.8881 -0.3355
14467TIP3    H164892   4.037   3.985  17.064 -0.5701  1.7596  0.1112
14467TIP3    H264893   4.139   3.896  17.132 -0.6134  3.7290  2.9656
14468TIP3   OH264894   1.778   3.799  15.037  0.1848  0.1833 -0.5174
14468TIP3    H164895   1.714   3.860  15.000  0.1145  0.5448  0.1946
14468TIP3    H264896   1.744   3.712  15.014 -0.2541  0.3878 -0.6470
14469TIP3   OH264897   6.081   5.294  16.433  0.5685  0.1355 -0.3619
14469TIP3    H164898   6.002   5.275  16.484  0.8717 -0.3790 -0.0755
14469TIP3    H264899   6.057   5.270  16.343  0.7425 -1.0946 -0.1033
14470TIP3   OH264900   6.720   1.306   0.870  0.2536  0.3830 -0.0092
14470TIP3    H164901   6.632   1.283   0.840 -0.2948  1.9632  0.2952
14470TIP3    H264902   6.707   1.379   0.930  1.9359  2.1929 -1.6983
14471TIP3   OH264903   4.677   0.641  16.880  0.2516 -0.7838  0.4323
14471TIP3    H164904   4.766   0.606  16.884  0.1388 -1.1614 -0.3090
14471TIP3    H264905   4.666   0.688  16.963  0.3909 -2.5207  1.4764
14472TIP3   OH264906   2.531   4.733   2.769  0.8226 -0.1478 -0.6223
14472TIP3    H164907   2.480   4.795   2.716  0.6068  0.0277 -0.2137
14472TIP3    H264908   2.611   4.781   2.790  0.6451  0.0020 -0.2861
14473TIP3   OH264909   5.313   5.379  11.231  0.3098 -0.1734 -0.4959
14473TIP3    H164910   5.241   5.316  11.223  0.7163 -0.7632  0.2895
14473TIP3    H264911   5.391   5.328  11.208  0.7419 -0.2035  0.9559
14474TIP3   OH264912   3.674   4.534  14.604  0.5569 -0.1549 -0.4309
14474TIP3    H164913   3.627   4.454  14.582  0.6188  0.2448 -2.2279
14474TIP3    H264914   3.606   4.597  14.626  0.2988 -0.0126 -1.5370
14475TIP3   OH264915   5.127   0.199   1.294 -0.4343  1.2215  0.3100
14475TIP3    H164916   5.198   0.263   1.286  1.3349 -0.8374 -2.2223
14475TIP3    H264917   5.171   0.114   1.298 -2.7491 -0.0607  0.7493
14476TIP3   OH264918   5.563   5.701   0.793  0.4217  0.5099 -0.5004
14476TIP3    H164919   5.569   5.796   0.794  1.2806  0.4702  0.7591
14476TIP3    H264920   5.580   5.676   0.702  0.5524  1.5348 -0.7629
14477TIP3   OH264921   1.389   1.312  16.068  0.4429 -0.3870 -0.3732
14477TIP3    H164922   1.440   1.282  16.144 -0.5803  0.0588  0.5062
14477TIP3    H264923   1.298   1.306  16.096  0.0553  5.1736  0.6483
14478TIP3   OH264924   3.111   2.002  12.131  0.0827 -0.4681 -0.3560
14478TIP3    H164925   3.103   2.041  12.044 -0.2996  1.5070  0.5252
14478TIP3    H264926   3.147   2.071  12.186 -0.1319 -1.5186  1.1748
14479TIP3   OH264927   3.553   2.348   4.329 -0.4025  0.3957 -0.5772
14479TIP3    H164928   3.597   2.392   4.256 -0.2331  0.6805 -0.3046
14479TIP3    H264929   3.474   2.311   4.290 -0.7677  1.3117 -0.7275
14480TIP3   OH264930   1.704   5.480   4.772  0.1629  0.5310 -0.5452
14480TIP3    H164931   1.656   5.409   4.815 -1.9078  0.8875 -2.1195
14480TIP3    H264932   1.782   5.438   4.736 -0.0776 -0.5450  0.1575
14481TIP3   OH264933   0.616   6.337   4.373 -0.7808  0.2959  0.4096
14481TIP3    H164934   0.660   6.413   4.333 -1.9375  1.8838  1.9769
14481TIP3    H264935   0.537   6.325   4.321 -0.6840  0.2733  0.2668
14482TIP3   OH264936   4.424   2.568   5.232 -0.0915  0.1817 -0.3211
14482TIP3    H164937   4.390   2.479   5.227 -1.4335  0.6426  0.0577
14482TIP3    H264938   4.456   2.577   5.322 -0.0577  0.1104 -0.3262
14483TIP3   OH264939   3.948   1.023  11.794 -0.1340 -0.3863 -0.2987
14483TIP3    H164940   3.998   1.058  11.720 -0.1588  0.8245  0.2397
14483TIP3    H264941   4.013   1.013  11.864 -0.2788 -0.6899 -0.2055
14484TIP3   OH264942   0.165   3.622  14.627  0.5047  0.4144  0.1677
14484TIP3    H164943   0.237   3.569  14.662 -1.0167 -0.7266  1.8109
14484TIP3    H264944   0.149   3.586  14.540 -0.3897 -1.8697  1.1886
14485TIP3   OH264945   4.619   3.534  15.699  0.2858  0.2648  0.2298
14485TIP3    H164946   4.540   3.550  15.647  0.9613  0.5977 -0.7199
14485TIP3    H264947   4.684   3.595  15.665  0.5440  1.0600  2.0196
14486TIP3   OH264948   4.886   3.221  14.876 -0.1134  0.2810 -0.2308
14486TIP3    H164949   4.830   3.297  14.864 -2.4749 -1.5731 -1.7052
14486TIP3    H264950   4.936   3.214  14.794 -1.8772 -1.1919 -1.2557
14487TIP3   OH264951   1.384   1.019  13.856 -0.0629  0.9743 -0.0084
14487TIP3    H164952   1.427   1.104  13.844  0.0478  0.8357 -0.6460
14487TIP3    H264953   1.328   1.030  13.932  1.1807  1.1372  0.9030
14488TIP3   OH264954   4.187   1.799   0.221 -0.1149 -0.2888 -0.2252
14488TIP3    H164955   4.179   1.874   0.279 -1.7834  1.1454 -2.1866
14488TIP3    H264956   4.280   1.796   0.199 -0.0309  1.2730 -0.1894
14489TIP3   OH264957   3.253   6.201  13.771 -0.2115  0.1142 -0.2761
14489TIP3    H164958   3.331   6.220  13.823  0.1822  0.7069 -1.0547
14489TIP3    H264959   3.287   6.183  13.683 -0.9205 -0.0052 -0.5337
14490TIP3   OH264960   5.021   6.512   1.738  0.3147  0.3136  0.3383
14490TIP3    H164961   5.002   6.574   1.809 -0.6564  0.2930  0.1206
14490TIP3    H264962   4.970   6.434   1.760  1.2239 -0.2771  0.4065
14491TIP3   OH264963   4.646   5.586  15.030  0.2062  0.2528  0.9105
14491TIP3    H164964   4.563   5.587  15.076 -0.5495 -0.1310 -0.4034
14491TIP3    H264965   4.627   5.546  14.945  1.8881 -0.6524  0.8983
14492TIP3   OH264966   1.736   2.230  16.863  0.3386 -0.6177  0.0609
14492TIP3    H164967   1.784   2.168  16.808  0.0733  0.0825 -0.9738
14492TIP3    H264968   1.661   2.179  16.896 -0.0537 -0.7862 -1.0332
14493TIP3   OH264969   0.993   6.362  16.955 -0.2627  0.0078  0.1503
14493TIP3    H164970   0.939   6.437  16.928 -1.6325 -1.4825 -1.4520
14493TIP3    H264971   0.948   6.327  17.032  0.0487  0.4239  0.5355
14494TIP3   OH264972   3.119   5.478  14.729  0.4329 -0.2919 -0.3186
14494TIP3    H164973   3.026   5.493  14.746  0.4246 -0.1690 -0.4763
14494TIP3    H264974   3.126   5.470  14.634  0.7623  0.9833 -0.4266
14495TIP3   OH264975   6.816   4.609   6.539 -0.3942 -0.2898 -0.0419
14495TIP3    H164976   6.812   4.550   6.615 -2.1565 -0.7082 -0.4126
14495TIP3    H264977   6.898   4.656   6.550  0.7348 -2.2890  0.6740
14496TIP3   OH264978   3.873   3.493  12.452 -0.1799 -0.0505  0.3203
14496TIP3    H164979   3.895   3.570  12.400  1.1185 -0.7419 -0.1892
14496TIP3    H264980   3.818   3.527  12.523 -0.3185  1.2012 -0.3632
14497TIP3   OH264981   1.818   5.292  11.980 -0.3891 -0.0068  0.0541
14497TIP3    H164982   1.726   5.310  11.964 -0.4008 -0.1394 -0.0283
14497TIP3    H264983   1.821   5.250  12.066 -0.6084 -1.7601 -0.7638
14498TIP3   OH264984   0.641   6.229  11.101  0.4588  0.6365  0.2123
14498TIP3    H164985   0.649   6.135  11.082  1.9266  1.1369 -2.1576
14498TIP3    H264986   0.716   6.249  11.156  1.4364  0.7615 -1.1094
14499TIP3   OH264987   1.374   1.556  11.474  0.3227  0.5463  0.4582
14499TIP3    H164988   1.415   1.610  11.542 -1.6392  1.8353  0.7149
14499TIP3    H264989   1.324   1.490  11.522  0.3487  0.3495  0.2181
14500TIP3   OH264990   6.820   0.579   2.919  0.0919  0.0330  0.0420
14500TIP3    H164991   6.855   0.540   2.839  0.4555 -0.2242  0.3201
14500TIP3    H264992   6.767   0.509   2.958  0.9218 -0.2649  0.6538
14501TIP3   OH264993   6.750   0.033   5.614 -0.1406 -0.1092 -0.0843
14501TIP3    H164994   6.785  -0.045   5.656  0.6025  0.5092  0.4846
14501TIP3    H264995   6.671   0.054   5.664  0.6004  0.4786  0.8972
14502TIP3   OH264996   2.329   1.732   4.878 -0.6274 -0.4321 -0.0165
14502TIP3    H164997   2.283   1.650   4.891 -0.9622  0.0130  1.9271
14502TIP3    H264998   2.411   1.722   4.927 -0.0333 -0.0951 -0.9054
14503TIP3   OH264999   0.691   4.878  14.285 -0.2458 -0.1737 -0.1354
14503TIP3    H165000   0.777   4.837  14.289  0.4711  1.1038 -1.4166
14503TIP3    H265001   0.629   4.808  14.308  1.0010 -1.5954 -0.9625
14504TIP3   OH265002   5.015   6.164   3.082  0.2272  0.4037 -0.1312
14504TIP3    H165003   4.948   6.130   3.023  0.0629  1.2272 -0.4223
14504TIP3    H265004   5.053   6.086   3.122 -2.3239 -0.0656  1.6565
14505TIP3   OH265005   1.055   4.564   5.684  0.0243  0.3433 -0.2317
14505TIP3    H165006   0.987   4.618   5.724 -1.3936 -0.6474 -1.2183
14505TIP3    H265007   1.133   4.621   5.683 -0.5414  1.2477  1.5862
14506TIP3   OH265008   1.529   4.838   3.234  0.0860 -0.2544  0.2079
14506TIP3    H165009   1.624   4.837   3.245  0.0404  1.0370  0.8718
14506TIP3    H265010   1.504   4.929   3.251 -1.3285 -0.6878  0.5547
14507TIP3   OH265011   1.518   0.522   4.545  0.3345  0.2012  0.1970
14507TIP3    H165012   1.494   0.545   4.634 -0.3141 -4.1899  1.3876
14507TIP3    H265013   1.593   0.463   4.554  1.2010  0.7897 -2.3090
14508TIP3   OH265014   6.149   0.524  11.639 -0.1084  0.6823  0.1195
14508TIP3    H165015   6.140   0.522  11.543 -0.4314  0.4339  0.1529
14508TIP3    H265016   6.216   0.459  11.658  0.9536  1.7168 -0.0437
14509TIP3   OH265017   2.614   5.439   1.647 -0.2522 -0.3942  0.2034
14509TIP3    H165018   2.591   5.516   1.594 -1.9624 -0.9717  0.0420
14509TIP3    H265019   2.674   5.473   1.713 -0.7080  1.0342 -0.0678
14510TIP3   OH265020   6.425   5.710   5.756 -0.1976  0.3339  0.1418
14510TIP3    H165021   6.433   5.633   5.700  0.7993 -0.3047  1.1253
14510TIP3    H265022   6.447   5.784   5.699  2.6989 -0.4449  0.0816
14511TIP3   OH265023   0.998   5.451  16.140  0.6440  0.9366  0.3915
14511TIP3    H165024   0.945   5.413  16.069 -0.3052  3.0868 -0.1157
14511TIP3    H265025   1.080   5.476  16.098  0.4388  1.3724  0.2460
14512TIP3   OH265026   5.819   5.034  16.768 -0.0361 -0.0394  0.5015
14512TIP3    H165027   5.832   4.953  16.719 -0.6300 -0.3707  0.8691
14512TIP3    H265028   5.778   5.005  16.850  0.7634  0.5138  1.1175
14513TIP3   OH265029   2.661   3.776  14.319 -0.1248 -0.2839 -0.3075
14513TIP3    H165030   2.753   3.772  14.292 -0.4498 -0.8320 -1.4140
14513TIP3    H265031   2.639   3.869  14.313  0.0084 -0.3068 -1.3334
14514TIP3   OH265032   2.781   0.917  13.297 -0.1464  0.1290  0.5290
14514TIP3    H165033   2.687   0.925  13.311 -0.1243  0.9740  0.2875
14514TIP3    H265034   2.810   1.007  13.282  0.9119  0.0473  1.9386
14515TIP3   OH265035   5.069   5.726  11.573 -0.1120  0.3849 -0.3653
14515TIP3    H165036   5.073   5.797  11.510 -0.9347  0.6208 -0.1692
14515TIP3    H265037   5.160   5.695  11.582 -0.2648 -1.4783 -3.6784
14516TIP3   OH265038   0.196   6.617  16.765  0.6197 -0.5985 -0.1201
14516TIP3    H165039   0.271   6.660  16.723  0.8710  1.3219  2.0386
14516TIP3    H265040   0.168   6.550  16.703  3.0032 -0.1825 -1.7834
14517TIP3   OH265041   4.984   2.786   5.351 -0.4544 -0.1080  0.4097
14517TIP3    H165042   4.908   2.804   5.406 -0.0350 -0.3970  1.1051
14517TIP3    H265043   5.030   2.715   5.396  1.5382  1.6426  1.3382
14518TIP3   OH265044   3.084   5.543   5.957 -0.5171  0.2327  0.0414
14518TIP3    H165045   3.104   5.618   5.901 -0.0485 -0.4146 -0.6761
14518TIP3    H265046   3.021   5.492   5.907 -1.0143  0.2635  0.6276
14519TIP3   OH265047   2.947   4.178   3.466 -0.1298 -0.2091 -0.0625
14519TIP3    H165048   2.911   4.186   3.554  0.3427 -1.8899  0.3247
14519TIP3    H265049   2.919   4.257   3.421  0.2754  1.0519  1.8141
14520TIP3   OH265050   5.664   2.342  13.114 -0.0402 -0.8517  0.5210
14520TIP3    H165051   5.650   2.436  13.113 -2.7454 -1.1614  1.7423
14520TIP3    H265052   5.694   2.323  13.203  0.6753 -1.1396  0.2251
14521TIP3   OH265053   1.450   0.033  16.626  0.1121 -0.6149 -0.2895
14521TIP3    H165054   1.491   0.102  16.677 -0.5072 -0.6047  0.2036
14521TIP3    H265055   1.434  -0.038  16.688 -0.3253 -0.7397 -0.5337
14522TIP3   OH265056   4.993   6.699  10.455  0.1919  0.9928  0.2251
14522TIP3    H165057   4.903   6.731  10.463 -0.4186  0.0713 -2.1271
14522TIP3    H265058   5.004   6.640  10.530 -0.8704  1.7160  0.9830
14523TIP3   OH265059   1.978   4.092  12.935  0.3003  0.0958 -0.1403
14523TIP3    H165060   2.056   4.128  12.977  0.3575 -0.8524  0.6121
14523TIP3    H265061   1.991   4.110  12.842  1.0233  0.6746  0.0606
14524TIP3   OH265062   2.462   0.611  15.885  0.5366 -0.9057  0.4023
14524TIP3    H165063   2.481   0.613  15.791 -2.1029 -0.1380 -0.1986
14524TIP3    H265064   2.513   0.684  15.922 -0.6217  0.6812 -0.9774
14525TIP3   OH265065   5.506   1.902   1.552 -0.1372  0.2425 -0.0810
14525TIP3    H165066   5.475   1.878   1.464  1.4179  2.1336 -1.2244
14525TIP3    H265067   5.517   1.818   1.597 -0.8129 -0.7941 -1.7485
14526TIP3   OH265068   2.744   4.655   5.713  0.8610 -0.1793 -0.1741
14526TIP3    H165069   2.715   4.735   5.668  0.4295 -0.4400 -0.3672
14526TIP3    H265070   2.826   4.680   5.754  0.2672  0.6475  0.5561
14527TIP3   OH265071   6.644   3.147   4.571 -0.1086  0.3101  0.0148
14527TIP3    H165072   6.549   3.155   4.564 -0.0473  0.9616 -0.0985
14527TIP3    H265073   6.674   3.234   4.596  0.5040  0.2313 -0.4147
14528TIP3   OH265074   0.279   4.727  15.415  0.0683  0.2899 -0.0448
14528TIP3    H165075   0.190   4.759  15.432 -0.2530 -0.0628 -1.0065
14528TIP3    H265076   0.291   4.738  15.321  0.1044 -1.9770 -0.3625
14529TIP3   OH265077   2.417   1.839  14.752 -0.0824  0.6817 -0.4157
14529TIP3    H165078   2.412   1.766  14.814  0.4324  1.4615  0.5802
14529TIP3    H265079   2.505   1.874  14.765 -0.6060  1.9932 -0.2595
14530TIP3   OH265080   2.486   2.250  14.149 -0.5641  0.3759  0.6291
14530TIP3    H165081   2.480   2.345  14.142  1.2682  0.4969  0.2303
14530TIP3    H265082   2.447   2.218  14.068  0.5026  0.8838 -0.1036
14531TIP3   OH265083   6.483   5.223   1.338  0.3668 -0.2650  0.0650
14531TIP3    H165084   6.500   5.135   1.304 -0.0834 -0.0382 -0.7873
14531TIP3    H265085   6.547   5.279   1.293  1.5140 -0.3205  1.5502
14532TIP3   OH265086   5.287   1.196   1.286  0.0772 -0.0779 -0.0581
14532TIP3    H165087   5.213   1.143   1.256  1.4164 -0.6952 -2.5124
14532TIP3    H265088   5.247   1.276   1.320 -1.9067 -1.8762  2.2956
14533TIP3   OH265089   5.636   3.130  15.035 -0.0907  0.1289  0.0672
14533TIP3    H165090   5.578   3.055  15.051 -0.3588  0.1322 -0.8256
14533TIP3    H265091   5.582   3.206  15.058 -0.1988  0.0975 -0.0783
14534TIP3   OH265092   0.685   4.062   3.392 -0.3017 -0.3935 -0.0798
14534TIP3    H165093   0.667   4.071   3.485 -0.0146 -1.4004  0.0862
14534TIP3    H265094   0.725   4.145   3.366 -2.0350  0.5952  0.2850
14535TIP3   OH265095   5.063   4.490   5.664  0.3171 -0.7763  0.3997
14535TIP3    H165096   4.968   4.481   5.664  0.2571 -0.2112  0.0684
14535TIP3    H265097   5.080   4.575   5.704  0.7042 -1.0213  0.7683
14536TIP3   OH265098   5.422   3.753   4.357 -0.5740  0.0132 -0.2672
14536TIP3    H165099   5.514   3.737   4.336 -0.7833 -0.7602 -0.6138
14536TIP3    H265100   5.377   3.753   4.273 -0.7596  1.3745 -0.1908
14537TIP3   OH265101   4.269   2.024   0.995 -0.8335 -0.3577 -0.6051
14537TIP3    H165102   4.326   2.008   1.071  1.0362 -1.5328 -2.1550
14537TIP3    H265103   4.243   2.116   1.003  1.4135  0.2697  0.1114
14538TIP3   OH265104   0.957   3.691   3.937  0.1684  0.0769 -0.3820
14538TIP3    H165105   0.953   3.643   4.020  0.4358 -1.1689 -1.0736
14538TIP3    H265106   0.866   3.716   3.921 -0.0418 -0.5666 -0.2226
14539TIP3   OH265107   0.146   5.722  16.791 -0.1643 -0.5678  0.5656
14539TIP3    H165108   0.173   5.660  16.859 -0.9808 -0.3676  1.0877
14539TIP3    H265109   0.161   5.675  16.709  1.6843 -0.4847  0.8190
14540TIP3   OH265110   6.686   2.077   1.132 -0.6420  0.1375 -0.2668
14540TIP3    H165111   6.696   2.162   1.089  0.1697 -0.2540 -0.8605
14540TIP3    H265112   6.695   2.097   1.226 -0.1343  0.6535 -0.4188
14541TIP3   OH265113   0.056   6.175  15.553 -0.2196  0.2055 -0.2841
14541TIP3    H165114  -0.005   6.235  15.510  0.9411  1.2898 -0.4823
14541TIP3    H265115   0.071   6.106  15.490  2.5825  2.4909 -2.4036
14542TIP3   OH265116   4.275   1.689   3.958 -0.9285 -0.0099 -0.2842
14542TIP3    H165117   4.199   1.741   3.984 -2.3223 -2.1016  0.0962
14542TIP3    H265118   4.277   1.695   3.862 -0.7084  1.1531 -0.2245
14543TIP3   OH265119   3.588   5.560  13.445  0.0091  0.3432  0.1867
14543TIP3    H165120   3.596   5.481  13.391  0.0505  1.3165 -1.2983
14543TIP3    H265121   3.608   5.530  13.534  0.3239 -1.2484 -0.3753
14544TIP3   OH265122   3.627   0.653  16.762  1.2178  0.2004  0.3781
14544TIP3    H165123   3.648   0.734  16.716 -0.0399  0.5310  0.3368
14544TIP3    H265124   3.583   0.681  16.842  2.4400 -0.4040  1.3028
14545TIP3   OH265125   3.696   4.163   4.880 -0.0143 -0.2087  0.1673
14545TIP3    H165126   3.701   4.238   4.821  2.4434 -0.4842 -0.0508
14545TIP3    H265127   3.602   4.146   4.889 -0.5232  1.1039 -2.0279
14546TIP3   OH265128   0.426   3.100   1.131  0.3849 -0.2159 -0.3453
14546TIP3    H165129   0.342   3.107   1.175 -0.4635  0.1310 -1.9383
14546TIP3    H265130   0.480   3.169   1.169 -0.3700  0.1904 -0.0026
14547TIP3   OH265131   0.593   6.335  14.804  0.1579 -0.3638  0.0548
14547TIP3    H165132   0.530   6.282  14.755  0.7335 -1.0048  0.0042
14547TIP3    H265133   0.581   6.424  14.769 -1.3158 -0.2949  0.6421
14548TIP3   OH265134   6.389   1.203   5.456 -0.0068 -0.4116  0.0224
14548TIP3    H165135   6.400   1.112   5.482 -0.2744 -0.4785 -0.0972
14548TIP3    H265136   6.405   1.203   5.361  1.5292 -0.0764  0.2503
14549TIP3   OH265137   1.079   3.751   6.480  0.2668  0.3701  0.0303
14549TIP3    H165138   1.078   3.662   6.516  1.8464 -0.0226 -0.7934
14549TIP3    H265139   1.014   3.748   6.409  0.1320 -0.0638  0.1696
14550TIP3   OH265140   0.230   1.453   5.338  0.1457 -1.0148 -0.0440
14550TIP3    H165141   0.213   1.546   5.355 -0.8667 -1.6208  2.9069
14550TIP3    H265142   0.299   1.453   5.272  0.4643  1.8253  0.1506
14551TIP3   OH265143   5.234   1.939   6.282  0.2432  0.1080 -0.0954
14551TIP3    H165144   5.294   1.890   6.338  1.2499  0.7596 -0.5853
14551TIP3    H265145   5.157   1.954   6.337  0.6815 -0.3791  0.6749
14552TIP3   OH265146   4.954   5.081   2.256  0.1681 -0.3968  0.0308
14552TIP3    H165147   4.875   5.135   2.248  0.7551  0.3794 -0.7187
14552TIP3    H265148   4.942   5.012   2.190 -0.4972 -1.0908  0.8590
14553TIP3   OH265149   0.406   3.612   0.206  0.9989 -0.6604  0.2501
14553TIP3    H165150   0.411   3.707   0.206  0.9243 -0.6212 -1.4678
14553TIP3    H265151   0.481   3.584   0.259  0.8996  0.3379  0.9490
14554TIP3   OH265152   6.135   2.312  14.344 -0.5158  1.4219 -0.0096
14554TIP3    H165153   6.200   2.305  14.274 -0.5493 -0.6606  0.1218
14554TIP3    H265154   6.140   2.229  14.391 -1.6444  2.1286  1.4765
14555TIP3   OH265155   1.737   1.842  16.166  0.6337 -0.2628  0.1276
14555TIP3    H165156   1.697   1.923  16.197  0.2437 -0.4954  0.2574
14555TIP3    H265157   1.692   1.823  16.083  0.1324 -0.7629  0.4978
14556TIP3   OH265158   2.338   2.755  11.011  0.4632 -0.3163 -0.0016
14556TIP3    H165159   2.348   2.837  11.059 -2.1851  0.4098 -0.5163
14556TIP3    H265160   2.406   2.757  10.944 -0.3247  2.1594 -0.8546
14557TIP3   OH265161   3.276   3.324  12.942  0.5294  0.6403  0.2204
14557TIP3    H165162   3.267   3.284  12.855  1.2371  0.3475  0.2766
14557TIP3    H265163   3.206   3.284  12.994 -1.8003  2.8856 -0.9178
14558TIP3   OH265164   3.600   1.428  12.942 -0.1695  0.1424  0.1422
14558TIP3    H165165   3.655   1.399  12.869  3.3258 -1.0807  2.9618
14558TIP3    H265166   3.612   1.523  12.945  0.2465  0.1155 -0.4179
14559TIP3   OH265167   2.234   2.959  12.062 -0.4652  0.1644  0.2434
14559TIP3    H165168   2.227   3.019  12.136  1.5912  0.9742 -0.1464
14559TIP3    H265169   2.325   2.966  12.033 -0.9332 -0.8843 -1.7360
14560TIP3   OH265170   2.055   4.668  15.742 -0.4770  0.2966 -0.5930
14560TIP3    H165171   1.996   4.632  15.676 -0.7706  1.5189 -1.0267
14560TIP3    H265172   2.023   4.633  15.825 -0.0695 -1.3006 -1.0844
14561TIP3   OH265173   4.203   5.399   2.435 -0.6253 -0.6484 -0.2617
14561TIP3    H165174   4.151   5.323   2.409 -1.1221 -1.0830  1.8826
14561TIP3    H265175   4.154   5.439   2.507  0.6431  0.5440 -0.0080
14562TIP3   OH265176   3.057   2.464  10.630 -1.0264 -0.3546 -0.0745
14562TIP3    H165177   3.102   2.453  10.546 -0.9367  0.1743 -0.1025
14562TIP3    H265178   3.027   2.555  10.630  1.8897  0.7704  1.8221
14563TIP3   OH265179   6.498   4.707   2.440  0.4804 -0.3445  0.1938
14563TIP3    H165180   6.428   4.726   2.377  0.9419 -0.6709 -0.4234
14563TIP3    H265181   6.562   4.656   2.391 -0.1053 -2.4030  1.4351
14564TIP3   OH265182   6.514   1.721   2.869  0.4686 -0.3256 -0.1614
14564TIP3    H165183   6.553   1.773   2.940  0.0446  2.1233 -1.5782
14564TIP3    H265184   6.443   1.673   2.912  0.8702  0.2849  1.2728
14565TIP3   OH265185   3.196   5.984  11.462  0.2244  0.0171  1.3418
14565TIP3    H165186   3.113   5.937  11.473  0.5887 -0.8393  0.6295
14565TIP3    H265187   3.177   6.073  11.489 -2.0684  0.9482 -2.5413
14566TIP3   OH265188   1.512   2.388   4.080 -0.6020 -0.3877  0.0429
14566TIP3    H165189   1.481   2.385   4.170  0.2411  0.3951  0.3689
14566TIP3    H265190   1.437   2.421   4.030 -0.4400  1.2099  0.7775
14567TIP3   OH265191   1.267   5.755  15.923  0.0693 -0.2799  0.4305
14567TIP3    H165192   1.258   5.660  15.924  1.4414 -0.5314 -2.2425
14567TIP3    H265193   1.353   5.771  15.885 -0.4662  2.0451  0.0301
14568TIP3   OH265194   0.911   3.619  12.735 -0.2126  0.0985  0.5571
14568TIP3    H165195   0.960   3.577  12.665  0.4148 -1.8001  2.0475
14568TIP3    H265196   0.942   3.709  12.736  2.2637 -0.6986  0.5628
14569TIP3   OH265197   1.897   2.842   1.067 -0.0476  0.4006 -0.2938
14569TIP3    H165198   1.838   2.777   1.105  0.5992 -0.8022 -1.2661
14569TIP3    H265199   1.949   2.793   1.003  2.2229  1.3467  0.7319
14570TIP3   OH265200   0.015   5.046  11.154  0.2917 -0.0716 -0.0629
14570TIP3    H165201   0.036   5.040  11.060  0.4283 -0.3352 -0.0182
14570TIP3    H265202  -0.017   5.135  11.166  0.9793  0.2053 -0.2185
14571TIP3   OH265203   4.245   4.591  14.591  0.2984 -0.1580 -0.0618
14571TIP3    H165204   4.182   4.519  14.583  0.1737 -0.2789  1.6454
14571TIP3    H265205   4.331   4.550  14.578  0.0983  0.3123 -4.3401
14572TIP3   OH265206   2.342   1.551  13.300  0.5211 -0.4833  0.0690
14572TIP3    H165207   2.297   1.576  13.219  3.4407  0.2907 -1.4538
14572TIP3    H265208   2.297   1.472  13.329 -0.0723 -1.3543 -2.8833
14573TIP3   OH265209   6.122   2.323  15.980 -0.2363 -0.0812 -0.4571
14573TIP3    H165210   6.122   2.307  16.075 -2.1577  1.5420 -0.1231
14573TIP3    H265211   6.095   2.240  15.942  0.4474 -0.7223  0.4046
14574TIP3   OH265212   0.102   3.040   3.998  0.0414 -0.6705 -0.6935
14574TIP3    H165213   0.059   3.114   4.040 -0.3993 -0.3457 -1.6718
14574TIP3    H265214   0.114   3.068   3.907  0.8159 -1.4022 -0.8287
14575TIP3   OH265215   1.231   6.337  16.857  0.4490  0.2235  0.4031
14575TIP3    H165216   1.242   6.273  16.927 -0.7251 -2.2558 -1.5046
14575TIP3    H265217   1.143   6.373  16.871  0.0190 -0.6349 -0.0502
14576TIP3   OH265218   6.302   4.388   2.510  0.1565 -0.5436 -0.2810
14576TIP3    H165219   6.268   4.303   2.482 -0.8810 -0.0967 -0.4253
14576TIP3    H265220   6.271   4.397   2.600  1.2821 -0.8325  0.1529
14577TIP3   OH265221   6.049   0.899   0.572  0.4336  0.2930 -0.2632
14577TIP3    H165222   6.009   0.919   0.656  0.2492  1.4984 -0.6267
14577TIP3    H265223   6.008   0.959   0.510  0.9766 -0.1837 -1.1189
14578TIP3   OH265224   0.129   4.006  15.799 -0.1910 -0.1983  0.1019
14578TIP3    H165225   0.085   3.923  15.817 -1.1558 -0.0317 -1.3097
14578TIP3    H265226   0.183   3.989  15.722  1.1658 -0.0148  0.9810
14579TIP3   OH265227   4.431   2.736  16.306  0.6850 -1.0762  0.5334
14579TIP3    H165228   4.383   2.816  16.287  0.1178 -1.0653  1.8774
14579TIP3    H265229   4.401   2.673  16.239 -0.1407 -0.6579  0.4990
14580TIP3   OH265230   2.820   3.494   0.115  0.4386  0.4345  0.1109
14580TIP3    H165231   2.727   3.475   0.103  0.5191  0.2248 -0.1736
14580TIP3    H265232   2.839   3.466   0.205  0.0443  1.2003  0.4428
14581TIP3   OH265233   2.087   6.617  15.393 -0.2522  0.3638  0.3282
14581TIP3    H165234   2.149   6.562  15.344 -0.3293  0.1830  0.4315
14581TIP3    H265235   2.088   6.580  15.482  0.4034  1.1126  0.6422
14582TIP3   OH265236   0.042   5.930  13.116 -0.0258 -0.4887  0.4882
14582TIP3    H165237  -0.045   5.940  13.077 -0.4208  0.6111  1.5833
14582TIP3    H265238   0.050   6.004  13.176  1.3999 -0.9604  0.9187
14583TIP3   OH265239   0.596   6.209   2.674 -0.1274 -0.0030  0.9642
14583TIP3    H165240   0.614   6.196   2.581  0.9759 -0.0539  1.1762
14583TIP3    H265241   0.677   6.244   2.710 -0.2962 -0.6804  2.0617
14584TIP3   OH265242   5.418   6.818  15.930  0.3346  0.0995 -0.0594
14584TIP3    H165243   5.433   6.763  15.853  1.4307  0.9145 -0.4688
14584TIP3    H265244   5.431   6.759  16.004 -0.0073 -0.5304 -0.4890
14585TIP3   OH265245   3.086   3.094  17.155  0.1599  0.0957  0.2653
14585TIP3    H165246   3.111   3.185  17.165  0.9269 -0.2092  1.3393
14585TIP3    H265247   3.126   3.050  17.230  1.7164 -1.5346 -1.4407
14586TIP3   OH265248   2.467   6.142  13.615  0.4381 -0.0010  0.2106
14586TIP3    H165249   2.455   6.123  13.708 -0.6951  0.8610  0.2587
14586TIP3    H265250   2.473   6.056  13.573  1.1417 -0.3952  1.0872
14587TIP3   OH265251   3.910   2.413  12.363 -0.3055  0.0953  0.4207
14587TIP3    H165252   3.884   2.493  12.409  3.7086  2.1018 -0.3931
14587TIP3    H265253   3.958   2.444  12.286 -2.4841 -3.1794 -2.5963
14588TIP3   OH265254   2.712   6.256  16.579 -0.5562  0.8484  0.4050
14588TIP3    H165255   2.706   6.241  16.673  0.3686 -0.0497  0.3430
14588TIP3    H265256   2.630   6.299  16.556 -0.8615  0.9341  1.5942
14589TIP3   OH265257   6.010   2.923   0.733 -0.4046 -0.0057 -0.1886
14589TIP3    H165258   6.013   2.970   0.650  0.7077 -1.3579 -0.9579
14589TIP3    H265259   5.987   2.833   0.709 -3.0627  0.1846  1.2868
14590TIP3   OH265260   2.519   0.284   1.791 -0.5861  0.1729 -0.2546
14590TIP3    H165261   2.550   0.365   1.750 -0.0902  1.1260  1.8575
14590TIP3    H265262   2.424   0.287   1.781 -0.5087  0.5387 -0.9919
14591TIP3   OH265263   1.159   1.916  17.180 -0.1200  0.0056  0.1994
14591TIP3    H165264   1.110   1.938  17.259 -0.7665  0.7836 -0.3991
14591TIP3    H265265   1.251   1.928  17.204 -0.3666  1.9081  0.3623
14592TIP3   OH265266   0.697   4.365   3.325 -0.1888 -0.3420  0.2276
14592TIP3    H165267   0.625   4.405   3.276  1.2433  1.0571 -0.8083
14592TIP3    H265268   0.723   4.432   3.388  2.4626  0.6457 -1.7486
14593TIP3   OH265269   5.520   6.173  13.006 -1.0904  0.0405 -0.2941
14593TIP3    H165270   5.527   6.118  12.928  2.2612  1.1135 -0.9066
14593TIP3    H265271   5.551   6.117  13.077 -1.4620 -0.0580 -0.2062
14594TIP3   OH265272   2.501   3.770  10.495 -0.0180  0.6922  0.4284
14594TIP3    H165273   2.566   3.798  10.431 -0.2803  0.8675  0.2335
14594TIP3    H265274   2.539   3.694  10.538 -0.3857 -0.2473 -0.8514
14595TIP3   OH265275   4.405   6.633  17.047 -0.2927  0.5393  0.1812
14595TIP3    H165276   4.408   6.717  17.094  0.8925  1.7945 -1.9506
14595TIP3    H265277   4.496   6.609  17.034 -0.6199 -1.2889  1.0159
14596TIP3   OH265278   3.168   4.948  16.271  0.0432 -0.0359 -0.5690
14596TIP3    H165279   3.236   4.987  16.325 -1.4890  0.2421  1.2446
14596TIP3    H265280   3.199   4.859  16.254 -0.4122 -0.9931  2.8317
14597TIP3   OH265281   3.253   1.816  11.161  0.3585 -0.0270 -0.0828
14597TIP3    H165282   3.280   1.907  11.151 -1.3011  0.5175  0.0884
14597TIP3    H265283   3.324   1.766  11.121  1.1634  1.3395 -0.4577
14598TIP3   OH265284   4.626   4.161  11.135  0.5676  0.2615  0.4551
14598TIP3    H165285   4.674   4.226  11.084 -0.4942  1.6350  1.1501
14598TIP3    H265286   4.585   4.104  11.070  0.3869  1.1236 -0.1933
14599TIP3   OH265287   5.199   3.637  11.611  0.2303 -0.1449  0.4281
14599TIP3    H165288   5.131   3.627  11.678 -0.1805 -0.4738 -0.0327
14599TIP3    H265289   5.280   3.610  11.656 -0.1578 -1.1066  0.5812
14600TIP3   OH265290   6.202   3.659  13.512  0.0217 -0.4305  0.3272
14600TIP3    H165291   6.211   3.736  13.457  1.0152 -1.0415 -0.4026
14600TIP3    H265292   6.112   3.664  13.546 -0.6073  0.0013 -1.2950
14601TIP3   OH265293   1.754   2.358  13.779  0.0718 -0.0127  0.5864
14601TIP3    H165294   1.668   2.345  13.818 -0.7556  1.4447 -0.6116
14601TIP3    H265295   1.802   2.410  13.844  0.9261 -2.7087  2.2604
14602TIP3   OH265296   1.121   3.409  14.348 -0.5957  0.1465 -0.2223
14602TIP3    H165297   1.177   3.336  14.321 -2.6512 -2.7699  2.5854
14602TIP3    H265298   1.175   3.457  14.411 -0.0631 -0.5736 -0.1047
14603TIP3   OH265299   5.802   4.641  13.362  0.4556  0.4959  0.3101
14603TIP3    H165300   5.765   4.709  13.418 -0.0136  0.6746 -0.2040
14603TIP3    H265301   5.838   4.577  13.423  0.4287  0.9429  0.8070
14604TIP3   OH265302   6.457   4.942  16.375 -0.2836  0.2867  0.4690
14604TIP3    H165303   6.364   4.965  16.373 -0.8570 -1.8984 -0.7848
14604TIP3    H265304   6.492   4.992  16.449 -1.8702  3.0604 -0.5008
14605TIP3   OH265305   4.310   4.588   3.765 -0.2840  0.5969 -0.5367
14605TIP3    H165306   4.364   4.650   3.716 -0.3480  0.9127 -0.2128
14605TIP3    H265307   4.228   4.585   3.717  0.4327 -0.8378 -1.7519
14606TIP3   OH265308   2.293   4.387   0.119 -0.0171  0.4854 -0.5344
14606TIP3    H165309   2.301   4.341   0.035 -1.7074  0.2260 -0.5911
14606TIP3    H265310   2.206   4.428   0.116 -0.2002  0.3047  1.1626
14607TIP3   OH265311   1.815   4.690  17.042  0.1733  0.1969  0.1737
14607TIP3    H165312   1.802   4.775  17.084  0.4039 -0.4855  1.6989
14607TIP3    H265313   1.789   4.704  16.951 -1.1101  1.5369  0.6994
14608TIP3   OH265314   1.967   1.246  15.236  0.1653 -0.1092  0.5125
14608TIP3    H165315   1.898   1.305  15.268  0.5903  0.0342  1.2067
14608TIP3    H265316   1.989   1.279  15.149 -0.1054  0.3128  0.6013
14609TIP3   OH265317   1.762   1.765   2.083  0.3000 -0.9807  0.1030
14609TIP3    H165318   1.707   1.770   2.005  1.1907 -2.7401 -0.6981
14609TIP3    H265319   1.704   1.732   2.151 -0.7269  1.4273  0.5150
14610TIP3   OH265320   3.147   5.272   5.206  0.2893  0.0454  0.2521
14610TIP3    H165321   3.072   5.303   5.155 -0.3210  2.3588  2.3696
14610TIP3    H265322   3.168   5.187   5.168 -1.8129  0.4372 -2.0341
14611TIP3   OH265323   2.962   6.761   0.627  0.3508 -0.0369  0.0460
14611TIP3    H165324   2.881   6.712   0.611  0.0845 -0.3453  2.0812
14611TIP3    H265325   3.006   6.713   0.697  1.1309  1.4524  0.6238
14612TIP3   OH265326   6.406   2.175  14.621 -0.3863 -0.0391  0.0296
14612TIP3    H165327   6.487   2.165  14.672  0.2199 -0.7754 -1.0467
14612TIP3    H265328   6.390   2.089  14.583 -2.1084 -0.1125  0.8047
14613TIP3   OH265329   6.255   1.291  12.488  0.0824  0.0598  0.2097
14613TIP3    H165330   6.346   1.268  12.468 -0.0101 -1.6259  1.5156
14613TIP3    H265331   6.251   1.386  12.477  1.6053  0.0021 -1.3138
14614TIP3   OH265332   1.517   4.769  15.470  0.2296 -0.0051 -0.0857
14614TIP3    H165333   1.465   4.840  15.508  0.4449  0.3267 -0.4061
14614TIP3    H265334   1.477   4.753  15.384  0.7005  0.3109 -0.3711
14615TIP3   OH265335   6.257   3.869   3.962  0.3776 -0.2832 -0.6344
14615TIP3    H165336   6.171   3.891   3.927 -0.9768 -1.1816  1.8981
14615TIP3    H265337   6.290   3.951   3.999  0.5106 -0.0029 -1.3592
14616TIP3   OH265338   6.445   1.116  12.414 -0.3426  0.2177  0.1118
14616TIP3    H165339   6.491   1.038  12.444 -0.9634 -0.0803  0.3050
14616TIP3    H265340   6.391   1.086  12.341 -0.5777  0.4687  0.1774
14617TIP3   OH265341   3.703   0.490   5.430  0.4691  0.1082  0.6092
14617TIP3    H165342   3.740   0.413   5.386 -0.1638 -0.0293  0.3109
14617TIP3    H265343   3.640   0.525   5.368  0.0350  0.2916  1.1459
14618TIP3   OH265344   6.297   4.857   1.440 -0.8696 -0.0705  0.1973
14618TIP3    H165345   6.257   4.942   1.421 -0.1723 -0.0792 -1.3992
14618TIP3    H265346   6.254   4.796   1.381  0.4479 -0.3396 -0.5157
14619TIP3   OH265347   1.039   2.669  12.419  0.2055  0.1030  0.6033
14619TIP3    H165348   0.961   2.690  12.367  0.7274  0.6915  0.0512
14619TIP3    H265349   1.006   2.609  12.487 -0.6362 -0.0417  0.0902
14620TIP3   OH265350   3.231   0.697   2.827  0.0422 -0.4080  0.2357
14620TIP3    H165351   3.280   0.617   2.808  0.5154  0.3203 -1.8518
14620TIP3    H265352   3.289   0.768   2.799 -1.2181  0.5802  0.0636
14621TIP3   OH265353   2.299   3.048   3.668 -0.0224  0.7183 -0.3097
14621TIP3    H165354   2.368   2.982   3.674 -0.9040 -0.1448  0.7157
14621TIP3    H265355   2.345   3.131   3.680  0.7862  0.1257  0.9560
14622TIP3   OH265356   1.073   0.333   4.909  0.7601  0.0821  0.5164
14622TIP3    H165357   0.994   0.285   4.883  1.0199  0.0361 -0.2182
14622TIP3    H265358   1.141   0.266   4.911  0.8264  0.1589  0.9536
14623TIP3   OH265359   3.281   6.291  15.590  0.2383 -0.2740  0.7268
14623TIP3    H165360   3.362   6.339  15.572 -0.2859  0.3037 -0.2067
14623TIP3    H265361   3.278   6.225  15.521 -1.0109  0.9430 -0.4589
14624TIP3   OH265362   4.028   4.929   4.421  0.0696  0.4319  0.3413
14624TIP3    H165363   4.115   4.889   4.417  0.6937  1.8318 -1.0687
14624TIP3    H265364   3.979   4.874   4.482  0.9049 -2.3855 -1.3399
14625TIP3   OH265365   0.531   1.207  11.938  0.1336 -0.7946 -0.0280
14625TIP3    H165366   0.550   1.135  11.877  2.4748 -0.6321  0.3825
14625TIP3    H265367   0.544   1.168  12.025  3.3001  0.4450  0.1909
14626TIP3   OH265368   3.807   3.725   1.776 -0.1630  0.3853 -0.3744
14626TIP3    H165369   3.866   3.771   1.836 -0.6188  1.3826 -0.6767
14626TIP3    H265370   3.853   3.723   1.693  0.6138 -1.2936  0.0462
14627TIP3   OH265371   3.285   5.119   2.443  0.1614 -0.3303  0.1298
14627TIP3    H165372   3.191   5.111   2.460  0.3206 -1.0026  0.7180
14627TIP3    H265373   3.327   5.070   2.513  1.0095  0.9111  0.5262
14628TIP3   OH265374   1.906   3.239  17.200  0.7657 -0.4345  0.6008
14628TIP3    H165375   1.879   3.316  17.250 -0.7276 -0.6090  0.1076
14628TIP3    H265376   1.846   3.170  17.229  0.2656 -0.6918 -0.9557
14629TIP3   OH265377   6.152   6.594  17.177 -0.0462  1.0441 -0.3052
14629TIP3    H165378   6.097   6.588  17.098 -0.7062  0.2670  0.1979
14629TIP3    H265379   6.107   6.540  17.242  0.4550  1.7244  0.6350
14630TIP3   OH265380   4.778   4.810   1.258 -0.0753  0.7599 -0.3862
14630TIP3    H165381   4.692   4.819   1.217 -0.8137 -0.7742  0.7369
14630TIP3    H265382   4.838   4.792   1.186 -1.2548 -1.3341 -0.9218
14631TIP3   OH265383   2.273   4.081  13.983 -0.2729  0.4038  0.3322
14631TIP3    H165384   2.178   4.085  13.977 -0.3358  0.1985  1.0248
14631TIP3    H265385   2.290   4.004  14.038  0.0688  2.8032  3.9644
14632TIP3   OH265386   3.877   2.078   6.164 -0.6056 -0.1044  0.3350
14632TIP3    H165387   3.866   2.075   6.068  0.0691  0.4391  0.2355
14632TIP3    H265388   3.877   1.986   6.190 -0.6209 -0.2650 -0.2064
14633TIP3   OH265389   4.073   6.171  13.689 -0.4978  0.1775 -0.2177
14633TIP3    H165390   4.095   6.127  13.771  0.4068 -0.5530 -0.8328
14633TIP3    H265391   3.999   6.228  13.712  0.1958  0.5443  1.2629
14634TIP3   OH265392   6.658   4.151  15.562  0.1158  0.4888 -0.1023
14634TIP3    H165393   6.749   4.171  15.583  1.0151 -1.5264 -1.7196
14634TIP3    H265394   6.639   4.204  15.485  0.7656 -0.8193 -1.2098
14635TIP3   OH265395   5.615   6.627   1.494  0.1410 -0.1412 -0.0890
14635TIP3    H165396   5.688   6.657   1.547 -0.9238 -1.7705  2.4619
14635TIP3    H265397   5.655   6.584   1.419  1.9569 -2.9739  2.3194
14636TIP3   OH265398   0.313   1.990  17.139  0.3496  0.3916 -0.0322
14636TIP3    H165399   0.288   1.957  17.225 -0.3207  1.0414  0.0251
14636TIP3    H265400   0.262   1.937  17.078  0.5288  0.2020 -0.0228
14637TIP3   OH265401   3.574   3.112   5.481 -0.0661 -0.5719  0.3281
14637TIP3    H165402   3.540   3.118   5.392 -2.0325  0.4671  1.0948
14637TIP3    H265403   3.502   3.073   5.531  1.1847 -1.5878  1.3971
14638TIP3   OH265404   5.235   3.625   5.292  0.0712 -0.0872 -0.4991
14638TIP3    H165405   5.227   3.720   5.301 -2.0004 -0.3433  1.3604
14638TIP3    H265406   5.290   3.598   5.366 -1.3654 -0.5008  0.4708
14639TIP3   OH265407   3.453   5.869  12.192 -0.1231  0.2375  0.2927
14639TIP3    H165408   3.363   5.872  12.223 -0.4122 -0.6129 -0.4298
14639TIP3    H265409   3.505   5.845  12.269 -0.4600  1.0849  0.7931
14640TIP3   OH265410   4.098   2.027   5.949  0.7636  0.2394  0.3449
14640TIP3    H165411   4.135   2.012   6.036 -1.1275 -0.3517  1.1140
14640TIP3    H265412   4.174   2.030   5.890  1.9874 -1.7888  1.6670
14641TIP3   OH265413   4.334   2.950  10.978 -0.6979 -0.1768 -0.2813
14641TIP3    H165414   4.403   2.958  11.043 -0.6621 -1.4860 -0.1398
14641TIP3    H265415   4.365   3.001  10.903  1.1236 -1.9061 -0.7870
14642TIP3   OH265416   0.291   2.005   2.706 -0.3163 -0.1842 -0.1493
14642TIP3    H165417   0.279   1.952   2.627  2.1127 -0.3743 -0.4438
14642TIP3    H265418   0.262   1.948   2.777 -2.0638 -0.1850 -0.8094
14643TIP3   OH265419   2.178   4.722  16.231  0.4727 -0.0124  0.6016
14643TIP3    H165420   2.258   4.747  16.184 -0.6684  0.6211 -1.0946
14643TIP3    H265421   2.152   4.639  16.191 -0.0620  0.1167  0.6691
14644TIP3   OH265422   3.184   0.743   3.763  0.1660 -0.0589  0.2149
14644TIP3    H165423   3.272   0.725   3.729  0.1062  1.0550 -0.6080
14644TIP3    H265424   3.150   0.657   3.789  1.4065 -0.5318  0.3452
14645TIP3   OH265425   5.880   0.532  10.544 -0.3448  1.0833 -0.5069
14645TIP3    H165426   5.857   0.450  10.587 -0.0502  0.2046 -1.9625
14645TIP3    H265427   5.878   0.597  10.614  2.2061 -0.6120  1.3346
14646TIP3   OH265428   0.255   2.452   5.979 -0.0779  0.3390  0.1107
14646TIP3    H165429   0.171   2.425   5.943 -0.2102  2.7305 -1.5820
14646TIP3    H265430   0.232   2.508   6.054 -0.1622  2.6146 -1.5213
14647TIP3   OH265431   0.636   6.823  17.007  0.1060  0.3781 -0.2587
14647TIP3    H165432   0.726   6.821  16.976  0.5164  1.5724  0.7430
14647TIP3    H265433   0.637   6.888  17.077 -1.1523 -0.8618  0.9807
14648TIP3   OH265434   2.926   5.656  17.055 -0.5815  0.1553  0.5103
14648TIP3    H165435   3.009   5.702  17.063 -0.7288  0.5614 -0.2836
14648TIP3    H265436   2.945   5.567  17.085  0.5186 -0.1813 -1.0974
14649TIP3   OH265437   0.726   2.127   1.828 -0.0420 -0.1401 -0.5452
14649TIP3    H165438   0.757   2.170   1.908 -0.9061  2.1824 -1.3719
14649TIP3    H265439   0.634   2.108   1.844  0.2750 -1.5162 -0.2796
14650TIP3   OH265440   4.382   4.711  17.002  0.4181  0.0783 -0.4518
14650TIP3    H165441   4.325   4.774  16.958  0.8251 -1.3559 -3.2608
14650TIP3    H265442   4.465   4.718  16.956  1.4726 -0.3349  1.2891
14651TIP3   OH265443   6.288   6.328  10.549 -0.2722 -0.5536 -0.6340
14651TIP3    H165444   6.221   6.381  10.506 -0.5563 -0.9878 -0.7261
14651TIP3    H265445   6.243   6.249  10.577  0.1506 -0.7502 -0.4925
14652TIP3   OH265446   6.563   0.006  13.527 -0.2787  0.0536  0.3884
14652TIP3    H165447   6.485  -0.029  13.570  0.2581 -1.1118  0.4684
14652TIP3    H265448   6.559   0.100  13.543 -0.0517 -0.3156  3.1278
14653TIP3   OH265449   1.026   5.551  11.842  0.4649  0.0792  0.0699
14653TIP3    H165450   0.994   5.513  11.760 -0.8987 -0.7763  0.9625
14653TIP3    H265451   1.121   5.538  11.839  0.3570 -0.5765 -1.0481
14654TIP3   OH265452   3.108   1.532  14.255  0.5888  0.1214  0.4278
14654TIP3    H165453   3.183   1.578  14.217  0.7565  1.5533  2.3359
14654TIP3    H265454   3.147   1.456  14.298  0.4055 -1.4672 -2.0073
14655TIP3   OH265455   0.012   2.013  10.708 -0.1043  0.1101  0.0673
14655TIP3    H165456   0.106   2.029  10.709  0.0268 -0.3402  2.4711
14655TIP3    H265457  -0.027   2.100  10.701  0.5155  0.4153  0.2862
14656TIP3   OH265458   3.632   5.267   4.249  0.1530 -0.0547  0.1517
14656TIP3    H165459   3.695   5.200   4.277 -0.2536  0.6021  2.8907
14656TIP3    H265460   3.549   5.241   4.289 -0.2560  1.4909  0.3767
14657TIP3   OH265461   0.938   1.475   5.469  0.0465  0.0543  0.0185
14657TIP3    H165462   1.021   1.487   5.423 -0.5946  0.1459 -1.1545
14657TIP3    H265463   0.948   1.524   5.551  1.9066 -1.6340  0.8942
14658TIP3   OH265464   1.705   2.243  11.532  0.4980  0.4471  0.2620
14658TIP3    H165465   1.706   2.147  11.534 -1.0703  0.4135  1.1481
14658TIP3    H265466   1.714   2.269  11.623  1.5917  1.1721 -0.0420
14659TIP3   OH265467   3.189   0.053  11.570 -0.2378  0.2527 -0.1050
14659TIP3    H165468   3.229   0.101  11.497 -0.0288 -1.3678 -1.1117
14659TIP3    H265469   3.263   0.028  11.625 -0.1726 -0.1923 -0.3879
14660TIP3   OH265470   3.122   2.078  11.373  0.0263  0.0402 -0.0376
14660TIP3    H165471   3.183   2.094  11.446 -1.5250  0.5226  1.2016
14660TIP3    H265472   3.066   2.007  11.404 -0.0542 -0.3908 -1.1540
14661TIP3   OH265473   1.199   6.273   3.783  0.1096 -0.5397  0.3410
14661TIP3    H165474   1.275   6.264   3.842 -0.6148 -0.7381  1.2623
14661TIP3    H265475   1.221   6.348   3.727  0.5983 -0.0234  1.1969
14662TIP3   OH265476   5.563   3.619  13.049 -0.0994  0.3150  0.5686
14662TIP3    H165477   5.649   3.620  13.091  0.6178 -1.6594 -0.7240
14662TIP3    H265478   5.504   3.587  13.116  0.1676  1.4974  1.4103
14663TIP3   OH265479   5.517   4.885  16.335  0.4108  0.0034  0.2290
14663TIP3    H165480   5.473   4.923  16.411  3.6531 -1.7810  3.2709
14663TIP3    H265481   5.563   4.958  16.294 -1.6875  1.0617 -0.3739
14664TIP3   OH265482   4.950   4.055   6.574 -0.1920 -0.0450  0.0174
14664TIP3    H165483   4.951   4.085   6.664 -2.3304  1.1367 -0.2982
14664TIP3    H265484   4.858   4.035   6.556 -0.3969  2.6160 -2.7591
14665TIP3   OH265485   5.896   2.291  11.500  0.1813  0.2715  0.2387
14665TIP3    H165486   5.953   2.340  11.441  1.6649  0.5417  1.8093
14665TIP3    H265487   5.827   2.255  11.444  0.4956  2.0248 -1.3331
14666TIP3   OH265488   5.527   6.174   1.434  0.0682 -0.3732  0.0823
14666TIP3    H165489   5.550   6.094   1.483  0.8392  0.7122  1.5663
14666TIP3    H265490   5.602   6.189   1.377 -0.0352 -0.6458 -0.1289
14667TIP3   OH265491   5.012   3.906  16.075 -0.1376  0.6557 -0.2886
14667TIP3    H165492   4.934   3.961  16.080  0.0715  1.0730 -1.4929
14667TIP3    H265493   5.023   3.888  15.982  0.8210  0.0522 -0.0643
14668TIP3   OH265494   4.267   5.486   1.527 -0.2099  0.2453  0.1315
14668TIP3    H165495   4.306   5.568   1.556 -1.0284  0.6306  0.1612
14668TIP3    H265496   4.330   5.419   1.553 -0.0088  0.7689  1.0292
14669TIP3   OH265497   2.788   2.924   3.943 -0.2080 -0.8498  0.2642
14669TIP3    H165498   2.792   2.886   3.855 -0.7566  0.2984 -0.2914
14669TIP3    H265499   2.826   3.011   3.933  1.9516 -1.5612  1.7193
14670TIP3   OH265500   2.205   2.625   3.331  0.5000 -0.0732  0.1091
14670TIP3    H165501   2.249   2.709   3.315  0.8787 -0.4794 -1.1071
14670TIP3    H265502   2.154   2.610   3.251 -0.6498 -0.3514  0.8749
14671TIP3   OH265503   0.759   6.558   5.161  0.6349 -0.4496 -0.6855
14671TIP3    H165504   0.836   6.527   5.209  1.4655  0.9568 -1.0525
14671TIP3    H265505   0.766   6.516   5.075 -0.5474 -2.5170  0.1450
14672TIP3   OH265506   1.338   4.197   3.190 -0.4608 -0.4101  0.4520
14672TIP3    H165507   1.256   4.208   3.239 -0.8243 -0.3423 -0.1531
14672TIP3    H265508   1.385   4.279   3.202 -0.4721 -0.4564  0.8181
14673TIP3   OH265509   4.545   3.190  12.862 -0.2156  0.1405 -0.0391
14673TIP3    H165510   4.569   3.213  12.952  0.4417 -0.8491  0.0508
14673TIP3    H265511   4.612   3.127  12.835 -1.6211 -1.2273 -0.4534
14674TIP3   OH265512   2.801   6.543  10.471 -0.1132 -0.0426 -0.4575
14674TIP3    H165513   2.854   6.617  10.440 -0.5620  0.2764 -0.4882
14674TIP3    H265514   2.864   6.475  10.492  0.3519  0.5644  0.1429
14675TIP3   OH265515   0.089   3.151   5.667  0.4550  0.5166 -0.0491
14675TIP3    H165516   0.054   3.206   5.737 -0.4971 -1.9812  1.5782
14675TIP3    H265517   0.011   3.113   5.625  1.0811 -0.3980 -0.4242
14676TIP3   OH265518   4.078   5.490  16.822 -0.0393  0.4825  0.1712
14676TIP3    H165519   4.106   5.460  16.909  0.6736  1.2127  0.2079
14676TIP3    H265520   4.090   5.414  16.766  2.1780  0.7641  0.1730
14677TIP3   OH265521   4.087   2.851  11.530  0.2769 -0.2759 -0.3631
14677TIP3    H165522   3.996   2.880  11.533  0.9435  2.0917 -0.8541
14677TIP3    H265523   4.087   2.780  11.465 -1.3792 -1.1679  0.5381
14678TIP3   OH265524   3.191   0.450   1.558  0.1754  0.1352 -0.0133
14678TIP3    H165525   3.164   0.361   1.580  2.8758 -0.8488 -0.3733
14678TIP3    H265526   3.113   0.490   1.520 -0.6890 -2.6142 -1.3792
14679TIP3   OH265527   4.458   5.946  13.930  0.1392 -0.0724  0.1676
14679TIP3    H165528   4.467   6.035  13.897 -0.8391 -0.6931 -1.9227
14679TIP3    H265529   4.526   5.896  13.884 -0.5810 -0.7578 -0.1947
14680TIP3   OH265530   4.696   0.018   2.814 -0.0337  0.0788  0.2981
14680TIP3    H165531   4.695  -0.076   2.830 -3.5312 -0.2471 -1.0065
14680TIP3    H265532   4.654   0.056   2.891  0.5967  0.5131  0.4350
14681TIP3   OH265533   1.055   2.272   3.585  0.4117  0.1511 -0.3153
14681TIP3    H165534   0.960   2.275   3.598  0.5390  0.6911  0.5776
14681TIP3    H265535   1.066   2.218   3.507 -0.7546  2.1942 -1.9848
14682TIP3   OH265536   2.697   6.778   0.122  0.3800 -0.0242 -0.5312
14682TIP3    H165537   2.614   6.732   0.114 -0.6112  1.6183 -0.1959
14682TIP3    H265538   2.749   6.747   0.048 -0.9695 -0.2110 -1.4299
14683TIP3   OH265539   4.078   5.167  14.461  0.0424 -0.8352  0.2760
14683TIP3    H165540   4.150   5.112  14.491  2.3329  0.9763 -1.6084
14683TIP3    H265541   4.066   5.231  14.531  0.0892 -1.2616  0.6792
14684TIP3   OH265542   0.614   5.031  12.655 -0.3922 -0.8294 -0.0878
14684TIP3    H165543   0.539   4.977  12.631 -0.0971 -1.0264 -0.5819
14684TIP3    H265544   0.596   5.116  12.614  0.0296 -1.1150 -0.8910
14685TIP3   OH265545   0.673   3.026   4.630 -0.7410 -0.7651 -0.2350
14685TIP3    H165546   0.680   2.932   4.650 -2.0248 -0.4875  1.8804
14685TIP3    H265547   0.579   3.044   4.638 -0.2741  1.1826  2.2154
14686TIP3   OH265548   4.875   0.559  14.674  0.2678 -0.1323  0.1019
14686TIP3    H165549   4.900   0.629  14.734 -0.5857 -0.6527  1.0944
14686TIP3    H265550   4.813   0.601  14.613  1.4966  0.5118 -0.7343
14687TIP3   OH265551   5.216   2.657   0.341  0.2714 -0.2481  0.2777
14687TIP3    H165552   5.232   2.649   0.247  2.4589  1.1234  0.4602
14687TIP3    H265553   5.166   2.578   0.364 -0.1896 -0.6806 -1.9817
14688TIP3   OH265554   2.872   4.786   4.907  0.3024  0.1663  0.0350
14688TIP3    H165555   2.934   4.819   4.841 -0.0603 -1.2315 -1.0506
14688TIP3    H265556   2.862   4.693   4.886 -1.9760  0.2984  0.3275
14689TIP3   OH265557   1.301   3.464  15.366 -0.3717 -1.0139 -0.6130
14689TIP3    H165558   1.388   3.475  15.404 -0.9281 -0.7479  0.6266
14689TIP3    H265559   1.318   3.422  15.281  1.1723  1.6876 -1.7691
14690TIP3   OH265560   6.305   3.898   1.664 -0.2715 -0.4467  0.3153
14690TIP3    H165561   6.239   3.961   1.695 -0.0108 -0.2936  0.5606
14690TIP3    H265562   6.313   3.916   1.571  0.7973  0.8211  0.6243
14691TIP3   OH265563   4.249   4.549   5.991  0.4774  0.1138 -0.7290
14691TIP3    H165564   4.294   4.469   6.018 -1.5508 -0.7341  0.2973
14691TIP3    H265565   4.259   4.609   6.065  0.5696  0.2049 -0.8147
14692TIP3   OH265566   1.926   5.679   5.764  0.3819 -0.1833  0.4189
14692TIP3    H165567   1.861   5.701   5.830  0.0363 -0.2746  0.1099
14692TIP3    H265568   1.898   5.727   5.686  0.6562 -0.2632  0.2705
14693TIP3   OH265569   1.893   1.221  16.775 -0.2054 -0.4201 -0.1787
14693TIP3    H165570   1.800   1.202  16.786 -0.1871 -0.7118 -0.4985
14693TIP3    H265571   1.937   1.142  16.807 -0.0246  0.1079  0.9119
14694TIP3   OH265572   3.932   4.994  14.310  0.2626 -0.9487  0.1286
14694TIP3    H165573   3.979   4.912  14.300  2.9965  0.3729  1.1135
14694TIP3    H265574   3.997   5.055  14.344 -0.8438  2.3941 -3.0698
14695TIP3   OH265575   4.723   5.745  13.057  0.3253  0.2710  1.1475
14695TIP3    H165576   4.789   5.781  12.997 -1.1643 -0.2957 -0.9430
14695TIP3    H265577   4.687   5.821  13.102  0.8789  0.8061  0.7017
14696TIP3   OH265578   3.148   3.873  12.054 -0.2219  0.3629  0.5422
14696TIP3    H165579   3.109   3.932  12.118 -0.0632  2.0096 -0.8124
14696TIP3    H265580   3.239   3.902  12.046  0.1884 -0.8169  0.6846
14697TIP3   OH265581   6.097   0.878  15.791 -0.1085 -0.0604 -0.1662
14697TIP3    H165582   6.044   0.827  15.731  0.5469  0.6943 -1.4569
14697TIP3    H265583   6.129   0.815  15.856 -0.1725 -1.0814 -1.0961
14698TIP3   OH265584   6.278   2.859  13.638  0.7729 -0.5363  0.0384
14698TIP3    H165585   6.296   2.893  13.551 -0.0302 -1.0128 -0.3129
14698TIP3    H265586   6.361   2.870  13.685  0.5167  2.0957  0.0252
14699TIP3   OH265587   3.374   1.350   0.543 -0.1076 -0.2515 -0.0203
14699TIP3    H165588   3.448   1.410   0.554 -1.2044  0.7058  4.0592
14699TIP3    H265589   3.414   1.263   0.544  1.1063  0.2696  0.9207
14700TIP3   OH265590   2.131   4.790   1.996 -0.4999  0.0799 -0.6263
14700TIP3    H165591   2.088   4.760   2.076  0.0299 -0.7396 -0.6361
14700TIP3    H265592   2.150   4.882   2.012  1.1008 -0.4616  0.8864
14701TIP3   OH265593   2.145   5.442   0.344 -0.3319  0.6105  0.1361
14701TIP3    H165594   2.209   5.386   0.299  0.2854  2.2464 -1.1289
14701TIP3    H265595   2.128   5.397   0.427 -0.6103 -1.9201 -1.1947
14702TIP3   OH265596   3.472   3.917   2.785 -0.6847 -0.1667 -0.0863
14702TIP3    H165597   3.444   4.007   2.805 -0.5814 -0.2980  0.6682
14702TIP3    H265598   3.451   3.868   2.864 -2.2273 -1.1516 -1.0572
14703TIP3   OH265599   0.222   0.909   4.605  0.2541 -0.4839  0.4889
14703TIP3    H165600   0.141   0.910   4.655  0.4731  1.4120  0.8617
14703TIP3    H265601   0.237   1.000   4.580  2.7741 -0.5911  1.2577
14704TIP3   OH265602   5.723   1.556  11.424  0.3933  0.5958  0.3824
14704TIP3    H165603   5.706   1.600  11.340 -1.3574  1.7113  1.2635
14704TIP3    H265604   5.682   1.471  11.415  0.8253  0.4347 -0.1287
14705TIP3   OH265605   4.813   2.371  11.836 -0.0097  0.4107 -0.6700
14705TIP3    H165606   4.806   2.276  11.832  0.1440  0.3534  0.2372
14705TIP3    H265607   4.897   2.387  11.879  0.4403  0.9710 -1.7186
14706TIP3   OH265608   2.540   1.482   2.255  0.1513  0.7398 -0.1428
14706TIP3    H165609   2.487   1.551   2.294 -0.4351 -0.6479  1.6418
14706TIP3    H265610   2.626   1.491   2.297  0.1161  0.4722 -0.0134
14707TIP3   OH265611   6.779   6.688   5.844 -0.5463  0.9111  0.4544
14707TIP3    H165612   6.781   6.593   5.860 -0.6577  0.6403 -1.0431
14707TIP3    H265613   6.718   6.722   5.909  0.4456  0.1422  1.8548
14708TIP3   OH265614   5.023   1.900  17.192 -0.0303 -0.5900 -0.1938
14708TIP3    H165615   5.110   1.939  17.201 -0.8519  0.9716  1.6281
14708TIP3    H265616   5.028   1.820  17.245  0.4052 -0.7544 -0.4715
14709TIP3   OH265617   5.471   3.374  11.572  0.4392 -0.3528 -0.2903
14709TIP3    H165618   5.409   3.302  11.567 -0.2423  0.1309  0.6911
14709TIP3    H265619   5.449   3.431  11.498  0.2210 -0.5732 -0.3921
14710TIP3   OH265620   5.210   1.040  15.796 -0.1716  0.1377 -0.4205
14710TIP3    H165621   5.150   1.111  15.821 -0.5360 -0.5489  0.7378
14710TIP3    H265622   5.161   0.960  15.814  0.8366 -0.4317 -0.1180
14711TIP3   OH265623   0.030   0.674   4.303 -0.0427 -0.5075  0.2483
14711TIP3    H165624   0.023   0.722   4.221 -1.7327 -1.3192 -0.1277
14711TIP3    H265625  -0.043   0.705   4.356 -0.3974 -1.7034  0.4982
14712TIP3   OH265626   5.604   1.919  15.891  0.5799  0.1321  0.2305
14712TIP3    H165627   5.689   1.891  15.857  0.2148  0.0506 -0.6723
14712TIP3    H265628   5.624   1.973  15.966  1.4086 -0.3406  0.3629
14713TIP3   OH265629   3.136   0.202   2.518  0.6940 -0.5508 -0.0930
14713TIP3    H165630   3.190   0.270   2.477  2.0945 -2.1511 -0.9825
14713TIP3    H265631   3.161   0.205   2.611 -0.4871  1.2249  0.2261
14714TIP3   OH265632   3.032   4.198   3.804  0.2127 -0.6214  0.1246
14714TIP3    H165633   3.107   4.257   3.806  0.5877 -1.0639 -0.5118
14714TIP3    H265634   2.967   4.239   3.861  0.2248  0.7326 -0.8121
14715TIP3   OH265635   3.075   4.314  14.206 -0.0588  0.9534 -0.0522
14715TIP3    H165636   3.082   4.273  14.121 -0.0217  0.2889  0.2690
14715TIP3    H265637   3.077   4.242  14.269 -0.8223  1.3740  0.4793
14716TIP3   OH265638   0.820   5.743  14.956  0.2076  0.6406 -0.2079
14716TIP3    H165639   0.912   5.764  14.971 -0.2632  1.6916  1.5311
14716TIP3    H265640   0.784   5.730  15.043 -1.0009 -1.1786 -0.9352
14717TIP3   OH265641   1.401   1.941   1.956  0.0623 -0.2933  0.6085
14717TIP3    H165642   1.399   2.009   2.023  1.3369  0.2340  0.1462
14717TIP3    H265643   1.392   1.988   1.873 -1.1873 -0.9084  0.3668
14718TIP3   OH265644   6.585   0.045   1.519 -0.2141 -0.1052 -0.4465
14718TIP3    H165645   6.657  -0.018   1.518 -0.4603 -0.4207  0.8107
14718TIP3    H265646   6.603   0.102   1.444  0.4765 -1.1387 -1.0899
14719TIP3   OH265647   4.098   4.717  12.917  0.2265  0.1699  0.2081
14719TIP3    H165648   4.039   4.786  12.946  0.6086  1.4423 -1.8790
14719TIP3    H265649   4.176   4.729  12.970  0.4778  1.6933 -0.4585
14720TIP3   OH265650   6.065   5.118  14.185 -0.0112  0.4801  0.4140
14720TIP3    H165651   6.042   5.149  14.097 -0.5829  0.6380  0.6188
14720TIP3    H265652   5.981   5.106  14.229  0.3008  1.4086  1.2877
14721TIP3   OH265653   2.815   6.649  12.086  0.4949 -0.0002 -0.2796
14721TIP3    H165654   2.775   6.604  12.012 -0.3412 -0.5101  0.4652
14721TIP3    H265655   2.752   6.715  12.112 -1.8467 -3.1573  3.2601
14722TIP3   OH265656   1.036   0.093   5.946 -1.0814 -0.4150 -0.0530
14722TIP3    H165657   1.012   0.147   6.021 -1.3833 -1.6149  0.7528
14722TIP3    H265658   0.981   0.015   5.954 -1.7543 -0.1957 -2.0304
14723TIP3   OH265659   6.284   6.066  16.995  0.3528 -0.0108  0.5390
14723TIP3    H165660   6.363   6.113  16.969 -0.0758  0.5824  0.3014
14723TIP3    H265661   6.234   6.057  16.914 -1.0917  2.0276  1.1176
14724TIP3   OH265662   2.041   6.598   5.905  0.3480  0.9468 -0.1157
14724TIP3    H165663   2.031   6.692   5.915  0.8933  1.2059 -1.7189
14724TIP3    H265664   2.135   6.583   5.903  0.2814  0.2364  1.0086
14725TIP3   OH265665   4.848   6.032  16.957 -0.3367 -0.8088  0.3196
14725TIP3    H165666   4.809   5.978  17.026 -1.2378 -3.5673 -2.1370
14725TIP3    H265667   4.936   5.997  16.945 -0.2200 -0.4144 -0.0162
14726TIP3   OH265668   4.931   0.486   1.349 -0.1146 -0.4681 -0.3286
14726TIP3    H165669   4.962   0.403   1.313 -0.8383 -0.2287 -1.5794
14726TIP3    H265670   4.896   0.533   1.273 -0.4030  0.6658  0.4841
14727TIP3   OH265671   5.259   4.309   3.756 -0.1383  0.9464  0.2612
14727TIP3    H165672   5.238   4.271   3.670 -0.4948 -0.7007  1.0403
14727TIP3    H265673   5.319   4.247   3.796 -2.7633 -0.3141  2.6391
14728TIP3   OH265674   1.363   3.704  16.878  0.4302 -0.0744 -0.5367
14728TIP3    H165675   1.454   3.700  16.849 -0.1208 -0.0116 -2.3757
14728TIP3    H265676   1.363   3.772  16.945  1.0291  3.1960 -3.5454
14729TIP3   OH265677   4.852   4.823  12.187  0.4757 -0.2579 -0.0557
14729TIP3    H165678   4.895   4.763  12.248 -2.0381 -2.0192  0.1815
14729TIP3    H265679   4.889   4.802  12.102  1.0261 -0.7512  0.2962
14730TIP3   OH265680   2.759   1.836  16.932  0.3954 -0.1312  0.2114
14730TIP3    H165681   2.668   1.811  16.920  0.5520 -0.3999 -0.5001
14730TIP3    H265682   2.793   1.843  16.843  0.6863  1.4181  0.4218
14731TIP3   OH265683   4.590   2.345   3.958  0.0627  0.0424 -0.0460
14731TIP3    H165684   4.615   2.433   3.987  1.5635  0.4399 -2.3036
14731TIP3    H265685   4.598   2.291   4.036  1.2487  1.4975  0.8946
14732TIP3   OH265686   1.402   5.444  10.688 -0.3601 -0.0319  0.1995
14732TIP3    H165687   1.467   5.400  10.743  0.8602 -0.8045 -1.7758
14732TIP3    H265688   1.428   5.537  10.690  0.1527 -0.1752  0.2800
14733TIP3   OH265689   3.046   1.202  11.332 -0.3098  0.2538  0.7013
14733TIP3    H165690   3.100   1.247  11.267  0.7521  0.3302  1.6120
14733TIP3    H265691   2.997   1.272  11.375  0.9268  0.5139  1.7370
14734TIP3   OH265692   2.963   4.037   0.653  0.7060 -0.0555  0.1369
14734TIP3    H165693   3.023   4.070   0.720  0.5130 -2.0651  1.3696
14734TIP3    H265694   2.876   4.058   0.686  0.6095 -1.0843  0.5937
14735TIP3   OH265695   5.559   0.806  17.034  0.0179  0.2757  0.5881
14735TIP3    H165696   5.476   0.811  16.986 -0.1545  1.1172  0.9428
14735TIP3    H265697   5.554   0.725  17.084 -0.1150 -0.2395 -0.2452
14736TIP3   OH265698   5.901   4.490   2.814  0.4484 -0.2951 -0.1866
14736TIP3    H165699   5.856   4.560   2.766 -0.0974 -1.4729 -1.4811
14736TIP3    H265700   5.857   4.410   2.786  1.5660 -1.2392  0.6518
14737TIP3   OH265701   0.220   4.107   3.964  0.5520  0.0333 -0.2983
14737TIP3    H165702   0.287   4.172   3.944  0.2869 -0.0196 -1.4211
14737TIP3    H265703   0.265   4.023   3.956  0.6052  0.0314 -0.0008
14738TIP3   OH265704   1.649   1.599  11.797 -0.5502 -0.3109 -0.1369
14738TIP3    H165705   1.670   1.625  11.887  2.5109  1.5283 -1.2484
14738TIP3    H265706   1.623   1.507  11.805  1.3775 -0.7714  2.4438
14739TIP3   OH265707   1.112   6.229   3.419  0.1336  0.0929 -0.0903
14739TIP3    H165708   1.159   6.252   3.339 -0.1315  1.0125  0.0121
14739TIP3    H265709   1.181   6.199   3.479  0.7710  2.3691  0.4088
14740TIP3   OH265710   1.534   0.509   5.207  0.0553  0.1322  0.0919
14740TIP3    H165711   1.521   0.548   5.294  0.4854 -0.7028  0.5447
14740TIP3    H265712   1.502   0.575   5.146  0.2755  0.9639  0.8601
14741TIP3   OH265713   3.627   0.574  16.000 -0.1881 -0.2745  0.1800
14741TIP3    H165714   3.641   0.543  16.089 -0.5091  1.0678  0.7224
14741TIP3    H265715   3.643   0.497  15.945  1.3819 -0.7776  1.2801
14742TIP3   OH265716   2.352   3.813   4.122  0.3005  0.0266 -0.3222
14742TIP3    H165717   2.336   3.816   4.028  0.9378 -2.4035 -0.5618
14742TIP3    H265718   2.315   3.729   4.151 -1.6229  1.5193  2.0039
14743TIP3   OH265719   2.014   2.554  13.568  0.0511 -0.6596 -0.6806
14743TIP3    H165720   1.951   2.577  13.636  0.2901 -2.7266  0.3211
14743TIP3    H265721   2.096   2.594  13.597 -0.3721  0.5098 -1.0468
14744TIP3   OH265722   0.838   4.325  11.867 -0.2467 -0.6375  0.0663
14744TIP3    H165723   0.802   4.342  11.780  1.1420  1.0887 -0.2526
14744TIP3    H265724   0.781   4.374  11.926  1.0561  1.5450 -0.3645
14745TIP3   OH265725   0.173   5.193  12.299  0.0152 -0.3213 -0.1752
14745TIP3    H165726   0.182   5.221  12.208  1.4180  0.3944  0.1460
14745TIP3    H265727   0.140   5.270  12.345 -2.7779 -1.2865 -0.3686
14746TIP3   OH265728   1.479   6.630  14.365 -0.5408 -0.4379  0.6615
14746TIP3    H165729   1.458   6.547  14.408  0.7056 -0.1895  1.8207
14746TIP3    H265730   1.551   6.666  14.417 -0.2714  0.8092 -0.5238
14747TIP3   OH265731   1.397   3.960   0.309  0.6646 -0.3618  0.0055
14747TIP3    H165732   1.422   4.049   0.282  0.4186 -0.5408 -0.8346
14747TIP3    H265733   1.450   3.943   0.387  0.6523  0.5538  0.2289
14748TIP3   OH265734   1.286   3.730   0.105  0.3001 -0.2191 -0.0990
14748TIP3    H165735   1.293   3.803   0.166  1.5733 -1.7588  1.7150
14748TIP3    H265736   1.306   3.768   0.019  0.5733  1.6052  0.7239
14749TIP3   OH265737   4.768   3.888   3.998  0.0227  0.0956 -0.1281
14749TIP3    H165738   4.831   3.959   4.010 -1.9478  1.8502  0.5411
14749TIP3    H265739   4.757   3.851   4.085  1.1807 -1.2293 -0.5067
14750TIP3   OH265740   2.196   4.127   2.367  0.1394  0.2854  0.3414
14750TIP3    H165741   2.259   4.173   2.311  0.0251 -1.2168 -1.1135
14750TIP3    H265742   2.250   4.079   2.430  0.2775  1.7973  1.4345
14751TIP3   OH265743   4.489   3.582  16.953 -0.6631 -0.1538 -0.7312
14751TIP3    H165744   4.454   3.542  16.873 -4.8753 -2.3396  1.8405
14751TIP3    H265745   4.453   3.671  16.954 -0.5424 -0.0955 -1.2143
14752TIP3   OH265746   6.582   0.948   0.988 -0.0612  0.0855 -0.3867
14752TIP3    H165747   6.576   1.035   1.029 -2.1697  0.5723 -1.5748
14752TIP3    H265748   6.554   0.962   0.898 -0.3216 -1.8183 -0.6346
14753TIP3   OH265749   2.068   4.294  14.198 -0.3274  0.0785  0.2388
14753TIP3    H165750   2.148   4.335  14.229 -1.0020  0.9083  0.9427
14753TIP3    H265751   2.025   4.261  14.278 -0.3511 -1.0030 -0.1959
14754TIP3   OH265752   1.573   2.922   3.891  0.0535 -0.2334 -0.2220
14754TIP3    H165753   1.648   2.863   3.898  0.2385  0.0165 -0.0912
14754TIP3    H265754   1.608   3.001   3.851 -0.1871 -0.1973 -0.3653
14755TIP3   OH265755   5.608   6.817  17.021 -0.1286  0.2991  0.3618
14755TIP3    H165756   5.607   6.733  17.068  0.5259 -1.0890 -1.9454
14755TIP3    H265757   5.515   6.839  17.009 -0.4203 -1.7082 -1.6069
14756TIP3   OH265758   1.280   1.962  14.889 -0.7628  0.3834 -0.3387
14756TIP3    H165759   1.282   2.057  14.889  1.7451  0.4135 -1.6808
14756TIP3    H265760   1.221   1.939  14.961  1.6956  2.9363  2.8160
14757TIP3   OH265761   0.727   0.292  10.479  0.1159 -0.9382 -0.1026
14757TIP3    H165762   0.787   0.357  10.517  0.6283 -1.4791  0.0357
14757TIP3    H265763   0.641   0.317  10.511  0.2257 -0.0025 -0.4933
14758TIP3   OH265764   5.676   2.843  14.012  0.2378 -0.1688  0.0160
14758TIP3    H165765   5.658   2.758  14.052  1.0399 -0.7559 -0.8422
14758TIP3    H265766   5.609   2.901  14.049  0.0149 -1.0332  1.0256
14759TIP3   OH265767   2.317   2.094  13.041  0.4475 -0.0673 -0.1381
14759TIP3    H165768   2.366   2.169  13.007 -1.7938  1.1513 -0.8499
14759TIP3    H265769   2.226   2.123  13.045 -0.9067 -3.3122 -2.3895
14760TIP3   OH265770   6.580   4.073   1.074 -0.2018  0.6856 -0.1508
14760TIP3    H165771   6.670   4.048   1.052 -0.9900 -1.5573 -1.0366
14760TIP3    H265772   6.588   4.117   1.159  1.7518  0.7648 -0.3341
14761TIP3   OH265773   2.481   3.430  10.912 -0.6048  0.0382  0.1436
14761TIP3    H165774   2.574   3.412  10.900 -1.3250 -3.2137 -1.9356
14761TIP3    H265775   2.446   3.435  10.823 -2.4695  0.8574  0.8745
14762TIP3   OH265776   2.004   5.207   0.153  0.3887 -0.6241 -0.3583
14762TIP3    H165777   1.981   5.138   0.091 -0.2259  0.6227 -1.5850
14762TIP3    H265778   2.097   5.223   0.137  0.9311 -2.1528  0.9962
14763TIP3   OH265779   4.015   6.158   5.010  0.6768  0.3867  0.8938
14763TIP3    H165780   3.922   6.141   5.024  0.4894 -0.3502 -0.9702
14763TIP3    H265781   4.018   6.240   4.962  0.8336 -0.4806 -0.6452
14764TIP3   OH265782   6.407   3.349   6.095  0.1107 -0.2702 -0.3870
14764TIP3    H165783   6.497   3.317   6.098  0.5173  0.8852  0.1063
14764TIP3    H265784   6.404   3.420   6.159 -1.2922 -0.6261 -0.0211
14765TIP3   OH265785   0.753   5.762  16.823 -0.0226  0.6647  0.7839
14765TIP3    H165786   0.693   5.719  16.884 -0.6093 -1.0361 -0.8669
14765TIP3    H265787   0.838   5.723  16.841 -0.4334 -0.8221 -0.2721
14766TIP3   OH265788   6.653   4.087  13.925 -0.4147  0.0535  0.1006
14766TIP3    H165789   6.686   4.141  13.853 -0.8361  0.9271  0.5311
14766TIP3    H265790   6.617   4.009  13.883  0.4331 -0.0133 -0.5228
14767TIP3   OH265791   2.708   0.657  16.786  0.0358 -0.0487 -0.6538
14767TIP3    H165792   2.660   0.660  16.703 -0.9350  0.7413 -0.0948
14767TIP3    H265793   2.747   0.570  16.789  0.6098  0.1391 -2.2203
14768TIP3   OH265794   2.973   2.724  11.503  0.2437 -0.1904 -0.3696
14768TIP3    H165795   2.880   2.730  11.525  0.4122 -0.8757  0.5828
14768TIP3    H265796   2.984   2.784  11.429 -0.5108  1.6881  0.9673
14769TIP3   OH265797   5.994   6.000   5.830 -0.4932  0.2776  0.0429
14769TIP3    H165798   6.008   6.025   5.739 -0.0214 -0.2433 -0.0371
14769TIP3    H265799   6.036   5.914   5.837 -0.1407  0.5129  0.8626
14770TIP3   OH265800   0.928   5.957   1.879  0.2468  0.0029  0.5556
14770TIP3    H165801   1.009   5.915   1.850 -0.5131  0.6818 -3.0225
14770TIP3    H265802   0.936   6.048   1.851 -1.0403  0.5356  1.7775
14771TIP3   OH265803   1.446   4.549   0.698  0.0601 -0.0278 -0.5599
14771TIP3    H165804   1.531   4.586   0.721  1.2502 -0.7714 -3.3850
14771TIP3    H265805   1.398   4.623   0.659 -0.7630  0.4497  1.2372
14772TIP3   OH265806   6.449   5.929   4.091  0.3555 -0.0722 -0.0553
14772TIP3    H165807   6.488   5.911   4.005  1.0902 -4.7719  0.9427
14772TIP3    H265808   6.521   5.912   4.153 -1.0979 -0.6537  1.5488
14773TIP3   OH265809   3.779   1.925  12.408 -0.3548 -0.0816  0.5787
14773TIP3    H165810   3.832   1.999  12.378  0.7870 -0.6928  1.0616
14773TIP3    H265811   3.725   1.961  12.479  0.4219  0.2145  1.0218
14774TIP3   OH265812   3.718   4.079  12.207  0.2969 -0.0958  0.2194
14774TIP3    H165813   3.790   4.135  12.180 -1.7394  2.0876 -1.1394
14774TIP3    H265814   3.738   3.994  12.170  1.3691  0.8918 -1.5916
14775TIP3   OH265815   1.380   4.687   1.031  0.2701  0.2305  0.3932
14775TIP3    H165816   1.452   4.642   0.987  1.0022  0.2015  1.5661
14775TIP3    H265817   1.340   4.620   1.086 -1.1645  0.0550 -0.8072
14776TIP3   OH265818   4.611   1.857   3.405 -0.1075  0.4009  0.0003
14776TIP3    H165819   4.649   1.839   3.319 -0.7878 -1.9637  0.1269
14776TIP3    H265820   4.578   1.772   3.435 -2.0699  1.6078  1.5352
14777TIP3   OH265821   4.800   4.879  14.102 -0.1846  0.1718 -0.7168
14777TIP3    H165822   4.716   4.842  14.127  0.2004 -1.0619 -1.2131
14777TIP3    H265823   4.861   4.847  14.169  0.0704  0.2691 -0.9024
14778TIP3   OH265824   4.438   3.915  12.089 -0.3249 -0.0586 -0.4900
14778TIP3    H165825   4.430   4.006  12.059 -2.5542 -0.1282 -0.2993
14778TIP3    H265826   4.373   3.907  12.159 -0.6817 -1.9570 -0.9784
14779TIP3   OH265827   1.415   1.067  12.575 -0.2255  0.2689  0.4975
14779TIP3    H165828   1.510   1.070  12.562 -0.1761 -0.0477  0.7622
14779TIP3    H265829   1.404   1.009  12.650 -0.7528 -1.5583 -0.9269
14780TIP3   OH265830   2.215   0.899  14.377  0.8178 -0.5581 -0.3147
14780TIP3    H165831   2.240   0.808  14.359  3.0333  0.3293 -2.1470
14780TIP3    H265832   2.265   0.922  14.456  3.1782  0.0946 -1.9064
14781TIP3   OH265833   1.362   0.983   4.061  0.2802  0.3308  0.1448
14781TIP3    H165834   1.407   0.973   4.145 -1.3026 -2.6773  0.7882
14781TIP3    H265835   1.269   0.980   4.083 -0.2311  1.8306 -1.5506
14782TIP3   OH265836   2.759   0.422  12.030  0.0864  0.0985  0.0513
14782TIP3    H165837   2.775   0.327  12.024 -1.0326 -0.1264  0.2341
14782TIP3    H265838   2.746   0.450  11.940 -0.1443 -0.0449  0.0371
14783TIP3   OH265839   0.021   3.821   0.592  0.8188  0.0012 -0.1375
14783TIP3    H165840  -0.046   3.775   0.541 -0.7748  1.8952  0.1273
14783TIP3    H265841   0.075   3.866   0.527  0.9631 -0.3741 -0.2821
14784TIP3   OH265842   1.657   3.239  15.491 -0.2221 -0.2529  0.2810
14784TIP3    H165843   1.753   3.240  15.489 -0.1421  0.8357  2.0115
14784TIP3    H265844   1.632   3.167  15.434  1.5674  0.3371 -1.3520
14785TIP3   OH265845   5.236   4.671   0.430  0.8986 -0.0187  0.0340
14785TIP3    H165846   5.170   4.728   0.471 -0.2809 -0.9024 -0.5857
14785TIP3    H265847   5.318   4.721   0.436  0.0220  1.4666  0.0759
14786TIP3   OH265848   0.620   2.222   0.086 -0.3709  0.0742  0.1674
14786TIP3    H165849   0.606   2.139   0.040 -0.5030  1.0325 -1.6174
14786TIP3    H265850   0.559   2.283   0.044 -0.5155  1.0031  1.6673
14787TIP3   OH265851   1.454   4.520   2.711  0.1753  0.3826  0.9820
14787TIP3    H165852   1.526   4.466   2.678  0.2216 -0.6428  2.6519
14787TIP3    H265853   1.406   4.546   2.633  0.3989 -1.7377  0.0875
14788TIP3   OH265854   3.086   4.071   4.827  0.0233  0.2152  0.1641
14788TIP3    H165855   3.109   4.005   4.892 -1.2565  1.4070  1.8862
14788TIP3    H265856   3.100   4.027   4.743  2.3328 -1.1645  1.1734
14789TIP3   OH265857   3.892   4.049  12.921 -0.3120 -0.1186 -0.3112
14789TIP3    H165858   3.968   4.100  12.949 -0.2244 -0.7713  0.6868
14789TIP3    H265859   3.877   3.987  12.992 -1.0352 -0.8187 -1.0490
14790TIP3   OH265860   0.756   5.710  16.088 -0.0927  0.0743 -0.5773
14790TIP3    H165861   0.843   5.747  16.077  0.2055 -0.0911  1.0905
14790TIP3    H265862   0.763   5.653  16.165 -0.5242 -3.4868 -2.9061
14791TIP3   OH265863   4.935   6.463   1.319  0.0413  0.4102 -0.4398
14791TIP3    H165864   4.925   6.557   1.300 -0.4326  0.3322 -0.5923
14791TIP3    H265865   4.848   6.426   1.302  0.2205 -0.0529 -0.3543
14792TIP3   OH265866   1.742   1.390   4.368 -0.2213 -0.2870 -0.8037
14792TIP3    H165867   1.674   1.442   4.324 -0.2860  1.1833  0.9553
14792TIP3    H265868   1.792   1.352   4.296 -0.5207  1.7570 -2.1835
14793TIP3   OH265869   1.423   1.420  15.333 -0.2623  0.9074 -0.1329
14793TIP3    H165870   1.439   1.449  15.243  1.5723  0.0046 -0.1263
14793TIP3    H265871   1.338   1.459  15.355  0.1672  2.7912 -1.5418
14794TIP3   OH265872   6.776   1.537  14.508  0.4320  0.0773 -0.4173
14794TIP3    H165873   6.862   1.496  14.515 -0.0860 -0.9253  0.2520
14794TIP3    H265874   6.779   1.584  14.424  2.8048  2.9613  1.0545
14795TIP3   OH265875   1.704   4.012  11.500  0.2845 -0.3913 -0.5321
14795TIP3    H165876   1.722   3.995  11.592 -2.0951  0.0243  0.0825
14795TIP3    H265877   1.618   3.973  11.485  0.9424 -1.1282 -2.8081
14796TIP3   OH265878   1.245   2.211  12.747  0.9085  0.3467 -0.1250
14796TIP3    H165879   1.217   2.281  12.806  0.4490  1.3223 -1.4679
14796TIP3    H265880   1.165   2.184  12.702  1.5413  0.9986 -1.7189
14797TIP3   OH265881   0.571   6.560  16.130 -0.1160  0.6029  0.5558
14797TIP3    H165882   0.665   6.547  16.141  0.3041  2.1393 -0.8574
14797TIP3    H265883   0.553   6.530  16.041 -0.4681  2.5778 -0.0748
14798TIP3   OH265884   6.331   1.352  13.065 -0.7741  0.0863  0.3047
14798TIP3    H165885   6.326   1.439  13.104 -0.3565 -0.0325  0.6276
14798TIP3    H265886   6.382   1.301  13.127 -1.5558 -0.5641  0.4261
14799TIP3   OH265887   1.175   3.970   3.039 -0.5409 -0.2425 -0.5378
14799TIP3    H165888   1.120   3.951   3.115  0.2314 -0.3914 -0.0046
14799TIP3    H265889   1.233   4.039   3.068 -0.4276 -0.1001 -1.0922
14800TIP3   OH265890   6.090   0.612  13.647  0.3472  0.2583 -0.2795
14800TIP3    H165891   6.098   0.520  13.672  2.6595  0.6635  0.7134
14800TIP3    H265892   6.078   0.658  13.730 -0.0076  0.9525 -0.7040
14801TIP3   OH265893   5.259   3.090  12.694  0.1204  0.0470 -0.0544
14801TIP3    H165894   5.303   3.019  12.646  0.4425 -0.1480  0.5232
14801TIP3    H265895   5.329   3.130  12.745 -0.1271  0.5767 -0.1283
14802TIP3   OH265896   0.443   3.576   2.139  0.8041  0.1219  0.2756
14802TIP3    H165897   0.521   3.591   2.085  0.7718 -1.6640 -0.3271
14802TIP3    H265898   0.473   3.521   2.211  0.6380  1.7019  1.6132
14803TIP3   OH265899   5.066   2.278  17.021  0.0043  0.2144 -0.0373
14803TIP3    H165900   5.048   2.314  17.108  1.1284 -3.2153  1.8150
14803TIP3    H265901   4.980   2.256  16.986 -0.3835  0.0303  0.9926
14804TIP3   OH265902   4.157   6.281  13.036 -0.1755  0.0192 -0.2832
14804TIP3    H165903   4.119   6.193  13.040  1.9496 -1.0874 -2.3453
14804TIP3    H265904   4.160   6.301  12.943  1.8466  1.1452 -0.0242
14805TIP3   OH265905   3.435   1.731   0.290  0.1202  0.4437 -0.2479
14805TIP3    H165906   3.485   1.649   0.295  0.0006  0.4538  1.9112
14805TIP3    H265907   3.347   1.704   0.262  0.4611  0.0300 -0.9420
14806TIP3   OH265908   6.634   5.589   1.962 -0.9442  0.1577 -0.2397
14806TIP3    H165909   6.540   5.602   1.977 -0.9212  0.6011 -0.4363
14806TIP3    H265910   6.676   5.656   2.016 -0.8233  1.1392 -1.4887
14807TIP3   OH265911   6.211   2.801  13.888  0.0433 -0.1255 -0.2164
14807TIP3    H165912   6.297   2.812  13.929 -0.4422  1.7646  0.3782
14807TIP3    H265913   6.219   2.842  13.802 -0.3041  0.2305 -0.0843
14808TIP3   OH265914   4.989   4.999  15.661 -0.0191 -0.4203  0.0779
14808TIP3    H165915   4.975   4.910  15.630 -1.1722 -0.3805  0.4286
14808TIP3    H265916   4.960   4.998  15.752  1.7282 -0.1274  0.6601
14809TIP3   OH265917   5.509   3.678  13.475  0.1013 -0.2603  0.2168
14809TIP3    H165918   5.415   3.693  13.488  0.5840  1.5609  2.2242
14809TIP3    H265919   5.537   3.750  13.418  0.5739  0.3754  1.2116
14810TIP3   OH265920   0.498   3.087   3.741 -0.1018  0.0436 -0.2111
14810TIP3    H165921   0.589   3.068   3.763 -0.8283 -2.1588  1.2699
14810TIP3    H265922   0.487   3.057   3.651  0.7628  0.8717 -0.6003
14811TIP3   OH265923   0.170   1.422   1.507  0.2453  0.0953 -0.1004
14811TIP3    H165924   0.170   1.328   1.523  0.6896 -0.1827 -1.5653
14811TIP3    H265925   0.237   1.434   1.439 -0.9747  1.2377 -1.1322
14812TIP3   OH265926   0.543   3.602   5.977  0.0805 -0.3131  0.0912
14812TIP3    H165927   0.599   3.591   6.054 -0.0687 -0.1371  0.2286
14812TIP3    H265928   0.504   3.689   5.989 -0.1288 -0.3856 -0.0633
14813TIP3   OH265929   6.053   1.796   1.238  0.2958 -0.0576 -0.1426
14813TIP3    H165930   6.048   1.888   1.266 -0.2793  0.6591 -2.3835
14813TIP3    H265931   6.013   1.796   1.151  1.5430 -2.2017 -0.7691
14814TIP3   OH265932   4.453   0.280  11.357 -0.3942  0.0978  0.1782
14814TIP3    H165933   4.532   0.278  11.412 -0.9376  1.0759  1.0343
14814TIP3    H265934   4.381   0.289  11.420 -0.9836  2.0454 -0.7204
14815TIP3   OH265935   3.105   4.335   5.205  0.2590  0.0278 -0.2890
14815TIP3    H165936   3.184   4.384   5.227  1.0097 -0.2403 -2.2197
14815TIP3    H265937   3.051   4.398   5.156  0.3294 -0.4657 -1.0118
14816TIP3   OH265938   6.764   4.957  14.222 -0.3220  0.0819  0.2706
14816TIP3    H165939   6.850   4.928  14.192 -0.2067  0.4032  0.2964
14816TIP3    H265940   6.767   4.946  14.318 -0.8558 -1.4057  0.1509
14817TIP3   OH265941   2.321   0.909  10.108 -0.6424 -0.1698  0.0665
14817TIP3    H165942   2.413   0.883  10.118 -1.0770 -0.9494  3.5547
14817TIP3    H265943   2.273   0.826  10.116 -1.6974  0.4563  0.2967
14818TIP3   OH265944   4.332   6.041   4.394 -0.1884 -0.4737 -0.4808
14818TIP3    H165945   4.400   5.975   4.385  0.3593 -0.0920  0.7093
14818TIP3    H265946   4.257   6.006   4.346  0.3681 -1.5582 -0.5694
14819TIP3   OH265947   5.119   6.642  13.130 -0.3774 -0.1478  0.0610
14819TIP3    H165948   5.047   6.579  13.127  2.0859 -3.2155  0.4617
14819TIP3    H265949   5.191   6.599  13.083  1.2068  2.8133 -0.4392
14820TIP3   OH265950   3.998   6.775  15.610  0.3094  0.2911  0.0990
14820TIP3    H165951   4.093   6.784  15.617  0.2015  1.0634  0.7984
14820TIP3    H265952   3.968   6.757  15.699 -0.0515 -1.7937 -0.3994
14821TIP3   OH265953   6.386   4.297   4.990 -0.3633 -0.3592  0.1151
14821TIP3    H165954   6.415   4.205   4.989  1.6220  0.2327 -0.4828
14821TIP3    H265955   6.427   4.336   4.913 -2.0418  0.8264 -0.2474
14822TIP3   OH265956   3.669   5.355   3.460  0.5054  0.3810 -0.3031
14822TIP3    H165957   3.641   5.272   3.498 -1.2173  1.2088  0.3444
14822TIP3    H265958   3.740   5.332   3.400 -0.3304 -1.6199 -0.5750
14823TIP3   OH265959   5.776   5.346  13.019  0.0795  0.1203 -0.1986
14823TIP3    H165960   5.810   5.350  13.108 -0.5480 -0.1322  0.0553
14823TIP3    H265961   5.793   5.256  12.991  1.4305  0.5326 -0.8104
14824TIP3   OH265962   5.797   4.370   4.363  0.3997  0.5576  0.9445
14824TIP3    H165963   5.814   4.410   4.278 -0.0535 -0.0564  0.5500
14824TIP3    H265964   5.869   4.308   4.376  0.2702  0.3822  0.8309
14825TIP3   OH265965   3.229   4.690   4.486 -0.1994 -0.2976 -0.6746
14825TIP3    H165966   3.159   4.663   4.546  0.4017 -1.6178 -0.5283
14825TIP3    H265967   3.215   4.637   4.408  0.3741 -0.2385 -0.8190
14826TIP3   OH265968   6.625   2.787   6.263  0.3376 -0.3534 -0.1312
14826TIP3    H165969   6.717   2.762   6.264  0.8404  1.3396 -0.1656
14826TIP3    H265970   6.609   2.816   6.173  0.5471  1.8322  0.4679
14827TIP3   OH265971   3.734   2.154   1.860 -0.2866  0.2921 -0.1555
14827TIP3    H165972   3.682   2.083   1.898 -1.6868  2.1056  1.5750
14827TIP3    H265973   3.716   2.149   1.766 -3.0026  0.2976  0.2749
14828TIP3   OH265974   1.889   0.055  10.907  0.2878 -0.0689 -0.1010
14828TIP3    H165975   1.980   0.080  10.889 -0.2331  0.1898 -2.7815
14828TIP3    H265976   1.895   0.002  10.986  2.6267  0.7795  0.3984
14829TIP3   OH265977   2.831   1.248  16.744  0.0495  0.2935  0.1067
14829TIP3    H165978   2.925   1.258  16.761 -0.1248  1.2231  0.5780
14829TIP3    H265979   2.797   1.337  16.745 -1.2271 -0.1515  2.2730
14830TIP3   OH265980   5.566   0.375   3.773 -0.2111 -0.3105 -0.1711
14830TIP3    H165981   5.615   0.408   3.698  0.6827 -0.2002  0.4485
14830TIP3    H265982   5.576   0.280   3.768 -2.5150 -0.5468 -1.7707
14831TIP3   OH265983   0.785   1.042   0.868 -0.4279  0.3598  0.0282
14831TIP3    H165984   0.787   1.137   0.863 -0.3292  0.3891  0.5503
14831TIP3    H265985   0.773   1.023   0.961  1.7701 -0.1573  0.2699
14832TIP3   OH265986   5.760   2.441   0.979 -0.1053 -0.2516  0.1025
14832TIP3    H165987   5.849   2.475   0.986  0.0111 -0.5550  0.1005
14832TIP3    H265988   5.736   2.418   1.068  0.5615 -2.0393 -0.1335
14833TIP3   OH265989   0.728   6.114   4.765  0.0671  0.4506 -0.0604
14833TIP3    H165990   0.729   6.101   4.860  0.3120  0.1296 -0.1046
14833TIP3    H265991   0.811   6.158   4.746  0.4545 -0.3259 -0.2339
14834TIP3   OH265992   6.663   1.991  13.015 -0.4510  0.5003 -0.1727
14834TIP3    H165993   6.593   2.023  12.957  0.8035  1.5459 -1.1568
14834TIP3    H265994   6.623   1.988  13.102 -2.4125 -1.1531 -1.0454
14835TIP3   OH265995   0.405   1.636  15.161 -0.2227  0.0886  0.1888
14835TIP3    H165996   0.426   1.545  15.143  1.6903  0.3509  0.8954
14835TIP3    H265997   0.364   1.635  15.247  1.4020  0.0409  0.9931
14836TIP3   OH265998   2.433   4.759  16.108  0.5068  0.6203  0.1371
14836TIP3    H165999   2.480   4.758  16.025 -1.8070  3.4161 -1.4164
14836TIP3    H266000   2.428   4.852  16.131 -2.1584  0.2557  1.4020
14837TIP3   OH266001   3.629   6.444  14.979 -0.7958  0.2475  0.3184
14837TIP3    H166002   3.692   6.425  15.048  1.2300  2.2288 -0.8514
14837TIP3    H266003   3.676   6.424  14.898 -2.9170 -1.4756 -0.5735
14838TIP3   OH266004   4.059   6.168   1.512 -0.1664  0.2931 -0.4183
14838TIP3    H166005   4.005   6.090   1.502  0.6468 -0.7584  2.3116
14838TIP3    H266006   4.036   6.201   1.599  1.8177  1.1950 -0.1808
14839TIP3   OH266007   1.221   0.792  13.907 -0.0220  0.4526  0.0710
14839TIP3    H166008   1.315   0.790  13.923  0.1836 -0.5951 -1.0630
14839TIP3    H266009   1.190   0.706  13.936 -0.7022  0.9172  0.7633
14840TIP3   OH266010   1.565   1.583   2.205  0.0119  0.9627  0.1352
14840TIP3    H166011   1.567   1.501   2.255 -1.1505  0.7766 -0.0996
14840TIP3    H266012   1.540   1.649   2.269 -0.6596  0.8549  0.0004
14841TIP3   OH266013   4.464   0.403   4.772  0.3625  0.2253 -0.4100
14841TIP3    H166014   4.468   0.479   4.713  1.6631  0.8640  0.4670
14841TIP3    H266015   4.393   0.424   4.832  1.4615  1.3448  0.5628
14842TIP3   OH266016   1.325   6.817   3.505  0.1384  0.0387  0.0383
14842TIP3    H166017   1.317   6.840   3.597 -2.7776 -0.7236  0.0750
14842TIP3    H266018   1.411   6.775   3.498  0.2618 -0.2495  2.4750
14843TIP3   OH266019   4.117   5.143  16.368  0.1915 -0.1306 -0.0183
14843TIP3    H166020   4.150   5.151  16.278  0.5393 -0.4833  0.0719
14843TIP3    H266021   4.028   5.111  16.358  0.0053  0.4525 -0.2555
14844TIP3   OH266022   0.037   6.802  14.257  0.6111 -0.0014  0.7669
14844TIP3    H166023  -0.040   6.779  14.205 -1.0422 -0.4520  3.2590
14844TIP3    H266024   0.108   6.805  14.193 -0.7637 -3.0353 -1.1495
14845TIP3   OH266025   2.970   4.210  12.808  0.1714 -0.3643 -0.5592
14845TIP3    H166026   2.991   4.120  12.785 -1.7431 -1.3527  1.2524
14845TIP3    H266027   2.972   4.212  12.903  1.1566  1.7957 -0.5718
14846TIP3   OH266028   2.194   2.305   0.586  0.1677 -0.2679 -0.1689
14846TIP3    H166029   2.216   2.244   0.516 -0.5081 -1.0825  0.3087
14846TIP3    H266030   2.100   2.294   0.600 -0.2785  1.9027 -1.0008
14847TIP3   OH266031   1.108   2.388  15.241 -0.0249  0.3207 -0.7720
14847TIP3    H166032   1.055   2.338  15.303  1.9032 -2.7333 -1.3615
14847TIP3    H266033   1.189   2.338  15.233  1.3585  2.6678 -2.8513
14848TIP3   OH266034   2.039   1.491  10.983 -0.7027  0.2640  0.3881
14848TIP3    H166035   2.012   1.401  11.001 -1.4196  0.3526 -0.1857
14848TIP3    H266036   2.093   1.484  10.904 -3.5939  0.6852 -1.7776
14849TIP3   OH266037   0.025   1.330   1.212 -0.1050 -0.3637  0.5225
14849TIP3    H166038  -0.055   1.347   1.262  0.8787  0.7468  1.8066
14849TIP3    H266039   0.053   1.243   1.240 -0.3646 -0.3609  0.8012
14850TIP3   OH266040   3.445   4.480  17.002 -0.0691  0.3035 -0.4386
14850TIP3    H166041   3.371   4.497  16.945 -1.3917  1.9514  1.6236
14850TIP3    H266042   3.469   4.566  17.036  0.5625 -0.6119  1.5653
14851TIP3   OH266043   6.161   2.625  15.378  0.3614  0.1786  0.3488
14851TIP3    H166044   6.198   2.607  15.464  1.5452 -3.3146 -0.6969
14851TIP3    H266045   6.067   2.610  15.388  0.1931  1.7462  1.4002
14852TIP3   OH266046   1.541   3.836  13.328 -0.3839 -0.0442  0.1854
14852TIP3    H166047   1.458   3.791  13.312 -0.1267 -0.8594  1.0491
14852TIP3    H266048   1.521   3.900  13.396 -0.1177 -0.9462  1.1563
14853TIP3   OH266049   3.153   6.030  14.327 -0.3004  0.3229 -0.1029
14853TIP3    H166050   3.093   5.993  14.262 -0.8541 -1.3261  1.2944
14853TIP3    H266051   3.130   6.123  14.329 -2.3025 -0.1112 -0.1890
14854TIP3   OH266052   0.243   2.665   1.821 -0.0293 -0.9660  0.3107
14854TIP3    H166053   0.317   2.677   1.881 -0.9654  0.0128  1.3109
14854TIP3    H266054   0.263   2.723   1.747  0.7839 -1.6362 -0.0054
14855TIP3   OH266055   0.195   3.862   0.008  0.0586  0.1579  0.0625
14855TIP3    H166056   0.102   3.848  -0.012  0.0505  0.3752 -0.0673
14855TIP3    H266057   0.227   3.777   0.038 -0.0377 -0.0750 -0.4767
14856TIP3   OH266058   3.752   0.550   2.263 -0.1484 -0.2408 -0.0868
14856TIP3    H166059   3.824   0.614   2.261  0.5467 -1.0154 -1.7039
14856TIP3    H266060   3.771   0.491   2.190 -1.2307 -1.8057  0.8636
14857TIP3   OH266061   4.441   3.489   2.937 -0.6492  0.3297 -0.2759
14857TIP3    H166062   4.387   3.437   2.877 -0.3841  0.2434 -0.4411
14857TIP3    H266063   4.390   3.492   3.018 -0.7612 -0.0143 -0.3304
14858TIP3   OH266064   4.328   0.424  13.147 -0.3259  0.0154 -0.3776
14858TIP3    H166065   4.287   0.357  13.092  0.0143  0.0798 -0.7149
14858TIP3    H266066   4.258   0.453  13.205 -1.2630  1.3368 -2.0703
14859TIP3   OH266067   4.861   5.484  12.231 -0.1465  0.0424 -0.9562
14859TIP3    H166068   4.894   5.507  12.318  1.9544 -2.3018 -1.0178
14859TIP3    H266069   4.890   5.394  12.218 -3.5682 -0.9932 -2.6273
14860TIP3   OH266070   6.354   1.454   4.102 -0.4062  0.0305  0.4931
14860TIP3    H166071   6.311   1.539   4.098  0.2760  0.3949  0.8516
14860TIP3    H266072   6.396   1.444   4.017 -0.1926  0.2075  0.5779
14861TIP3   OH266073   6.170   5.388   6.208  0.4208  0.4785 -0.2230
14861TIP3    H166074   6.259   5.421   6.224  0.7861 -0.7869  0.4935
14861TIP3    H266075   6.146   5.346   6.291 -1.4864  2.1751  0.1498
14862TIP3   OH266076   3.376   0.471   0.508  0.3443  0.2017  0.2886
14862TIP3    H166077   3.295   0.432   0.475  0.3013 -0.2558  0.9242
14862TIP3    H266078   3.437   0.397   0.515  1.1370  0.6861 -1.1039
14863TIP3   OH266079   0.754   0.271   4.446  0.2603  0.0341  0.4472
14863TIP3    H166080   0.669   0.309   4.469  0.0241  0.3783 -0.9318
14863TIP3    H266081   0.737   0.178   4.435 -0.2015  0.2756 -0.9907
14864TIP3   OH266082   3.598   4.085   3.944  0.0715 -0.3962  0.1977
14864TIP3    H166083   3.618   4.058   3.854 -0.2808  0.4826 -0.1548
14864TIP3    H266084   3.653   4.029   3.999  0.0701 -1.1439 -0.5497
14865TIP3   OH266085   3.800   2.019  13.834 -0.5792 -0.4144  0.1424
14865TIP3    H166086   3.753   2.085  13.886  1.2144  0.4466  0.7387
14865TIP3    H266087   3.892   2.039  13.848 -0.0223 -1.6337 -1.5425
14866TIP3   OH266088   5.534   4.422   0.791 -0.2309  0.5468  0.2067
14866TIP3    H166089   5.578   4.362   0.732  0.0039  0.8193  0.1029
14866TIP3    H266090   5.481   4.478   0.733 -0.9197  0.0592  0.3460
14867TIP3   OH266091   4.492   0.648  12.668  0.4159 -0.2813 -0.5467
14867TIP3    H166092   4.535   0.696  12.597 -0.0887  1.5599  0.3264
14867TIP3    H266093   4.561   0.634  12.733 -0.0153  1.8849  0.4596
14868TIP3   OH266094   4.945   5.190   5.455 -0.2497 -0.0539 -0.2556
14868TIP3    H166095   4.935   5.225   5.367 -0.8826  1.5299  0.3964
14868TIP3    H266096   4.867   5.221   5.502  0.2890 -0.4891  0.9741
14869TIP3   OH266097   5.248   5.995  10.427 -0.0965 -0.2128 -0.2795
14869TIP3    H166098   5.268   6.069  10.484  1.2620  0.0037 -0.9907
14869TIP3    H266099   5.192   6.033  10.359  0.3860  0.1215 -0.5004
14870TIP3   OH266100   3.222   4.048  11.046 -0.4198 -0.2313 -0.3311
14870TIP3    H166101   3.187   4.009  10.966 -1.5232  0.8501 -0.4228
14870TIP3    H266102   3.285   4.114  11.016  1.6282 -2.0156 -0.1723
14871TIP3   OH266103   3.201   3.481  12.037 -0.3406  0.0545 -0.3105
14871TIP3    H166104   3.288   3.487  12.077 -0.0242 -1.0574 -0.8061
14871TIP3    H266105   3.188   3.567  11.996  0.6566  0.1207 -0.5105
14872TIP3   OH266106   6.007   6.289  16.692  0.1155  0.0069 -0.4630
14872TIP3    H166107   6.045   6.376  16.703  0.3907 -0.2338  0.6523
14872TIP3    H266108   5.924   6.292  16.739  1.0601 -0.9013  1.3844
14873TIP3   OH266109   5.626   2.756   3.564 -0.0233 -0.3422  0.4471
14873TIP3    H166110   5.539   2.774   3.527 -0.3073  2.7461  2.3167
14873TIP3    H266111   5.678   2.725   3.489 -1.9712  0.4012 -1.3142
14874TIP3   OH266112   2.769   4.545   4.939  0.7730 -0.8211  0.0136
14874TIP3    H166113   2.704   4.602   4.980 -0.2745 -2.3991  0.6474
14874TIP3    H266114   2.718   4.474   4.900  1.9198 -0.5266 -2.1613
14875TIP3   OH266115   2.532   1.802   4.401 -0.5627 -0.2323  0.3189
14875TIP3    H166116   2.531   1.719   4.354 -1.1318  0.3313 -0.6896
14875TIP3    H266117   2.605   1.793   4.463 -0.3430 -1.3106 -0.0683
14876TIP3   OH266118   2.453   4.496   3.621  0.0972  0.0417 -0.2119
14876TIP3    H166119   2.478   4.550   3.696 -0.0994 -2.0546  1.4414
14876TIP3    H266120   2.536   4.462   3.586  0.0781 -0.4841  0.2462
14877TIP3   OH266121   5.548   0.640  14.676  0.2980 -0.2586 -0.0367
14877TIP3    H166122   5.509   0.590  14.748  1.1737 -1.0969 -0.1260
14877TIP3    H266123   5.500   0.612  14.598 -0.3392  0.3100  0.1320
14878TIP3   OH266124   3.762   6.563   2.835  0.1780  0.3834 -0.4001
14878TIP3    H166125   3.770   6.563   2.930  0.8432 -1.1096 -0.4314
14878TIP3    H266126   3.692   6.501   2.817 -0.1614  0.8919 -0.8910
14879TIP3   OH266127   0.772   6.517   3.297 -0.9401 -0.4917 -0.4637
14879TIP3    H166128   0.717   6.456   3.347 -0.8461  0.3770  0.7438
14879TIP3    H266129   0.713   6.589   3.274 -0.4474  0.2224  0.4398
14880TIP3   OH266130   4.786   4.031   0.812  0.1501 -0.5059  0.8396
14880TIP3    H166131   4.743   4.067   0.735 -1.2694 -0.6008  1.5585
14880TIP3    H266132   4.868   3.993   0.779 -1.1462 -1.9580 -0.8881
14881TIP3   OH266133   0.904   2.749  11.250  0.0755  0.1568 -0.2926
14881TIP3    H166134   0.830   2.755  11.311  2.1073  0.8446  2.2589
14881TIP3    H266135   0.911   2.836  11.211 -0.9470 -0.1597 -1.2469
14882TIP3   OH266136   3.841   6.767  16.330  0.2030 -0.5820 -0.3779
14882TIP3    H166137   3.749   6.780  16.352  0.2209 -1.1803  0.0985
14882TIP3    H266138   3.888   6.833  16.381 -0.1363  1.6144 -2.7379
14883TIP3   OH266139   1.588   1.278   2.265  0.1802 -0.3288  0.3446
14883TIP3    H166140   1.674   1.237   2.254  0.9329  1.4463 -0.8165
14883TIP3    H266141   1.534   1.236   2.198  0.9879  0.6111 -0.9571
14884TIP3   OH266142   1.308   4.320   6.438 -0.7990 -0.4551 -0.0223
14884TIP3    H166143   1.366   4.329   6.363 -0.5485  0.9107  0.2954
14884TIP3    H266144   1.288   4.227   6.443 -1.3281 -0.4996 -2.1496
14885TIP3   OH266145   5.140   4.204  16.977  0.2841  0.0682 -0.3235
14885TIP3    H166146   5.100   4.282  17.016  1.5794 -0.3736  2.0799
14885TIP3    H266147   5.217   4.237  16.930  1.7562  0.1810  2.0312
14886TIP3   OH266148   4.016   0.250   0.415 -0.0848  0.5224  0.0887
14886TIP3    H166149   3.964   0.200   0.478 -0.9599  1.1939 -0.0878
14886TIP3    H266150   3.992   0.341   0.431  0.2155  0.7512 -0.7462
14887TIP3   OH266151   1.005   0.968  16.924  0.8018  0.2481 -0.2827
14887TIP3    H166152   0.986   1.051  16.968 -1.4256 -0.3582  0.0048
14887TIP3    H266153   0.983   0.901  16.989  0.1600 -0.6083 -1.3584
14888TIP3   OH266154   6.716   0.421  12.913 -0.0629  0.0938  0.8612
14888TIP3    H166155   6.786   0.486  12.917  0.7059 -0.5105 -1.4497
14888TIP3    H266156   6.662   0.448  12.839 -0.6335 -1.0374  0.8429
14889TIP3   OH266157   3.153   1.505  11.571 -0.4479 -0.7037 -0.4268
14889TIP3    H166158   3.142   1.532  11.479 -4.4862 -0.1654  0.0593
14889TIP3    H266159   3.123   1.414  11.573  0.1528 -0.8951  0.2891
14890TIP3   OH266160   4.423   3.682  16.508 -0.4952  0.2714 -0.4506
14890TIP3    H166161   4.391   3.767  16.537 -1.6142 -0.7089  1.3771
14890TIP3    H266162   4.519   3.689  16.514 -0.6099  1.0526  0.8118
14891TIP3   OH266163   0.118   6.507   4.479  1.1255 -0.1583  0.1909
14891TIP3    H166164   0.147   6.571   4.544  0.4907  1.4891 -1.0939
14891TIP3    H266165   0.025   6.495   4.496  1.0061  0.1069 -0.2488
14892TIP3   OH266166   2.157   5.510   2.287  0.0953  0.2627 -0.5123
14892TIP3    H166167   2.208   5.435   2.256 -0.5336 -0.3418 -0.1165
14892TIP3    H266168   2.092   5.472   2.345 -0.1219  1.1454 -0.1658
14893TIP3   OH266169   0.479   2.084  14.580  0.1678 -0.2360  0.2219
14893TIP3    H166170   0.450   2.080  14.489 -0.7655  1.3529  0.4154
14893TIP3    H266171   0.491   2.177  14.597  3.7578 -0.6625  0.7162
14894TIP3   OH266172   1.867   3.381   0.838  0.1275 -0.0867 -0.2599
14894TIP3    H166173   1.894   3.330   0.915 -0.7956 -1.1221 -0.6007
14894TIP3    H266174   1.949   3.403   0.794  0.6800  0.6291  1.0724
14895TIP3   OH266175   1.986   6.704   5.460  0.9810  0.5137 -0.0670
14895TIP3    H166176   1.926   6.756   5.408 -3.4411 -0.8519  3.0462
14895TIP3    H266177   2.032   6.768   5.515  0.6762  1.4706 -0.8980
14896TIP3   OH266178   0.532   3.797  16.721 -0.4522 -0.1702 -0.1643
14896TIP3    H166179   0.563   3.885  16.744 -0.3986  0.0970 -1.2112
14896TIP3    H266180   0.466   3.812  16.654 -0.4065 -0.9455 -0.3881
14897TIP3   OH266181   1.080   3.510   6.275 -0.3901 -0.2364  0.1118
14897TIP3    H166182   1.095   3.458   6.354  0.2977  1.0480  0.8673
14897TIP3    H266183   1.001   3.561   6.295  1.3655  2.2766  1.2552
14898TIP3   OH266184   6.164   0.476   3.710 -0.1410  0.1716 -0.1106
14898TIP3    H166185   6.073   0.506   3.716 -0.2043 -0.2293  1.1812
14898TIP3    H266186   6.211   0.526   3.776  0.6612  0.6043 -0.9866
14899TIP3   OH266187   1.179   3.424  16.368 -0.3485 -0.1768  0.0247
14899TIP3    H166188   1.118   3.495  16.388  1.9374  1.3707  2.0141
14899TIP3    H266189   1.201   3.436  16.276 -0.9026  0.9665  0.0284
14900TIP3   OH266190   4.267   2.142  12.785 -0.4232  0.0636 -0.3990
14900TIP3    H166191   4.198   2.076  12.797  1.1039 -1.8834 -1.6136
14900TIP3    H266192   4.246   2.211  12.848 -2.2437 -1.4800  0.7930
14901TIP3   OH266193   0.135   5.903  15.090  0.5655  0.2388 -0.6262
14901TIP3    H166194   0.208   5.897  15.028  0.5977  0.9827 -0.6659
14901TIP3    H266195   0.126   5.814  15.125 -0.2127 -0.4837 -2.5421
14902TIP3   OH266196   4.643   6.778  12.738 -0.2800 -0.8070  0.2624
14902TIP3    H166197   4.557   6.749  12.708 -0.4184 -1.1590  0.9758
14902TIP3    H266198   4.704   6.749  12.670 -0.6937 -0.7823 -0.1214
14903TIP3   OH266199   2.289   2.440  12.909  0.1787 -0.4271 -0.4676
14903TIP3    H166200   2.348   2.431  12.984 -0.3814  0.0478  0.0424
14903TIP3    H266201   2.322   2.378  12.845  0.4183 -1.1524  0.3373
14904TIP3   OH266202   0.248   3.823  12.620 -0.1077  0.6393 -0.2507
14904TIP3    H166203   0.274   3.745  12.669 -0.7369  0.6104  0.0518
14904TIP3    H266204   0.323   3.882  12.626  0.9315 -0.4994 -1.6901
14905TIP3   OH266205   5.078   6.237   5.945  0.4437  0.1992 -0.0365
14905TIP3    H166206   5.143   6.198   5.887  2.2841  1.6317  0.9243
14905TIP3    H266207   5.052   6.318   5.902  2.0080  1.3984  1.1498
14906TIP3   OH266208   4.622   2.472  16.651  0.3966  0.2146  0.0248
14906TIP3    H166209   4.541   2.521  16.637 -0.1486 -0.7238 -0.1455
14906TIP3    H266210   4.690   2.539  16.656 -0.5474  1.1220  1.4528
14907TIP3   OH266211   3.115   1.600  15.028 -0.2442  0.6632  0.2475
14907TIP3    H166212   3.070   1.593  14.944 -1.4557  0.9958  0.8427
14907TIP3    H266213   3.167   1.520  15.034  0.1895  0.8305 -0.9979
14908TIP3   OH266214   5.939   5.441  10.586  0.2932 -0.6903 -0.2514
14908TIP3    H166215   6.002   5.428  10.657 -1.0888 -1.0044  0.9618
14908TIP3    H266216   5.898   5.525  10.606 -0.7374 -1.2020 -0.1576
14909TIP3   OH266217   6.240   4.793  15.392 -0.3500 -0.2989 -0.2790
14909TIP3    H166218   6.196   4.856  15.335 -2.7008  0.6469  2.3360
14909TIP3    H266219   6.301   4.845  15.444 -0.6388 -0.5549  0.3260
14910TIP3   OH266220   1.111   0.977  12.655 -0.6207 -0.1891 -0.0277
14910TIP3    H166221   1.180   0.983  12.721 -1.9569 -0.1347  1.4243
14910TIP3    H266222   1.148   0.922  12.586  0.9077 -0.0435  0.6527
14911TIP3   OH266223   0.524   3.344   0.705 -0.3694  0.3012 -0.0657
14911TIP3    H166224   0.488   3.308   0.786  2.9385 -0.8176  1.0738
14911TIP3    H266225   0.483   3.293   0.635 -2.6428  0.7029  0.9002
14912TIP3   OH266226   0.521   0.392   0.779 -0.3253  0.2418 -0.0486
14912TIP3    H166227   0.465   0.339   0.835 -0.6542  0.0265 -0.5689
14912TIP3    H266228   0.470   0.404   0.699  0.5873 -0.4086 -0.7454
14913TIP3   OH266229   5.154   2.529   2.375 -0.5315  0.0390 -1.0593
14913TIP3    H166230   5.148   2.582   2.296 -1.7900  0.2033 -0.8681
14913TIP3    H266231   5.091   2.458   2.362 -3.0024  1.6833  0.9521
14914TIP3   OH266232   2.108   6.140   5.414 -0.3052 -0.3031  0.3045
14914TIP3    H166233   2.050   6.178   5.480 -0.5323 -0.5430  0.2469
14914TIP3    H266234   2.081   6.180   5.332  0.6762  0.7987  0.4873
14915TIP3   OH266235   0.105   4.059  11.901 -0.4381  0.4473  0.8348
14915TIP3    H166236   0.016   4.042  11.870 -0.1127 -0.8152  0.5095
14915TIP3    H266237   0.160   4.006  11.844  0.7395  2.7827 -0.3372
14916TIP3   OH266238   1.515   2.952  15.760 -0.1705  0.1717  0.5910
14916TIP3    H166239   1.500   3.030  15.708  0.9259 -0.9443 -1.5239
14916TIP3    H266240   1.453   2.887  15.726  0.7104 -0.6515  0.5114
14917TIP3   OH266241   2.972   0.067  11.380  0.5858  0.5393  0.3442
14917TIP3    H166242   2.934  -0.021  11.386 -0.7567  1.1159  0.8503
14917TIP3    H266243   3.048   0.065  11.438 -2.0236  0.9422  4.1536
14918TIP3   OH266244   4.593   5.739  16.176 -0.4395  0.4235  0.5980
14918TIP3    H166245   4.582   5.832  16.161  0.3700  0.4574  0.1437
14918TIP3    H266246   4.666   5.714  16.120  0.4125 -0.1609  1.9069
14919TIP3   OH266247   1.252   5.451  13.184  0.4496  0.2577  0.3300
14919TIP3    H166248   1.346   5.436  13.178  0.5266  1.1113 -1.1426
14919TIP3    H266249   1.213   5.382  13.131  0.0967 -1.1214  2.2891
14920TIP3   OH266250   2.663   1.342   1.478  0.3533 -0.1518  0.0529
14920TIP3    H166251   2.712   1.281   1.424 -0.5397 -2.4874  1.7144
14920TIP3    H266252   2.700   1.331   1.566 -1.4598 -0.1551  0.8557
14921TIP3   OH266253   4.272   6.351  16.576  0.4915 -0.0311 -0.1885
14921TIP3    H166254   4.296   6.385  16.662 -0.3784  1.0710 -0.3678
14921TIP3    H266255   4.302   6.259  16.578  1.7132  0.3553  0.7654
14922TIP3   OH266256   6.006   1.876  14.345 -0.0450  0.6025 -0.2269
14922TIP3    H166257   6.024   1.782  14.346  0.2863  0.5378 -3.1138
14922TIP3    H266258   5.911   1.882  14.359  0.2849  0.1616  3.1355
14923TIP3   OH266259   0.463   3.257  16.441 -0.0815 -0.1267  0.3218
14923TIP3    H166260   0.557   3.269  16.429  0.0073  1.1437  1.9039
14923TIP3    H266261   0.431   3.343  16.468 -1.3029 -1.0421  1.9776
14924TIP3   OH266262   6.559   1.512  16.358  0.0705  0.7398 -0.1728
14924TIP3    H166263   6.581   1.513  16.451  2.8612  0.5210 -0.7635
14924TIP3    H266264   6.590   1.597  16.325  0.7803  0.0953 -1.2269
14925TIP3   OH266265   2.367   4.185   4.285 -0.6664 -0.0224  0.5090
14925TIP3    H166266   2.406   4.126   4.350 -0.3705 -1.3586 -0.8426
14925TIP3    H266267   2.420   4.264   4.289  2.0172 -1.6250 -0.9937
14926TIP3   OH266268   5.686   3.955   4.627  0.2407 -0.2568  0.0903
14926TIP3    H166269   5.627   4.030   4.638  0.2436 -0.2967  0.3891
14926TIP3    H266270   5.755   3.970   4.691 -0.2317 -0.9753  0.7881
14927TIP3   OH266271   2.063   4.126  12.658  0.1215  0.4750  1.0898
14927TIP3    H166272   2.019   4.201  12.618  1.1974  0.8290  0.5274
14927TIP3    H266273   1.998   4.056  12.657 -0.1602  0.7189 -0.5068
14928TIP3   OH266274   5.778   0.487   5.520  0.7452  0.0699  0.6250
14928TIP3    H166275   5.770   0.562   5.580 -0.6836  1.8541 -1.6088
14928TIP3    H266276   5.846   0.514   5.458  0.0727 -0.3659 -0.3200
14929TIP3   OH266277   4.361   1.456   1.689 -0.0364  0.1919  0.6303
14929TIP3    H166278   4.451   1.471   1.661 -0.1856  0.3585  0.2301
14929TIP3    H266279   4.335   1.374   1.647 -0.7173  1.1374 -0.8834
14930TIP3   OH266280   0.808   6.130   3.292  0.3883  0.3103 -0.2463
14930TIP3    H166281   0.800   6.038   3.316  0.2024  0.0819 -1.1565
14930TIP3    H266282   0.902   6.147   3.294  0.3531  0.4655  1.2046
14931TIP3   OH266283   2.623   5.717  11.761  0.3778  0.2045 -0.2040
14931TIP3    H166284   2.537   5.720  11.805  0.3540 -1.9415  0.0049
14931TIP3    H266285   2.654   5.628  11.775  2.5647  0.8548 -0.4979
14932TIP3   OH266286   2.857   3.445   3.426  0.1014 -0.1960 -0.7281
14932TIP3    H166287   2.945   3.430   3.461  0.6932 -2.7412 -2.9943
14932TIP3    H266288   2.866   3.522   3.370  0.6296  0.1511 -0.1735
14933TIP3   OH266289   2.148   5.187   2.839  0.2415  0.6353  0.5214
14933TIP3    H166290   2.216   5.247   2.808  0.7193 -0.6227 -1.0704
14933TIP3    H266291   2.196   5.117   2.883 -0.0498  0.0654 -0.0404
14934TIP3   OH266292   6.295   6.232   1.638 -0.6370 -0.6536 -0.0270
14934TIP3    H166293   6.245   6.250   1.718 -0.0991  1.5271 -0.1290
14934TIP3    H266294   6.241   6.269   1.567  0.6789  1.0242 -0.2149
14935TIP3   OH266295   3.192   3.191  11.992 -0.5996  0.1944  0.0324
14935TIP3    H166296   3.116   3.142  11.960 -1.2971 -0.3732  2.3737
14935TIP3    H266297   3.157   3.277  12.017 -0.0275  0.7100 -0.8721
14936TIP3   OH266298   4.124   2.983   5.244  0.0119  0.4981  0.1751
14936TIP3    H166299   4.148   2.931   5.321 -1.7475 -1.9975 -0.8343
14936TIP3    H266300   4.109   2.918   5.176  2.3246  2.6457 -2.6303
14937TIP3   OH266301   1.613   4.628  16.426 -0.5725  0.1036 -0.1935
14937TIP3    H166302   1.591   4.551  16.374  2.0885 -2.2463  1.8339
14937TIP3    H266303   1.528   4.668  16.448 -1.9316 -1.2236 -2.6950
14938TIP3   OH266304   6.657   4.308   1.835  0.3274 -0.1483  0.1544
14938TIP3    H166305   6.586   4.248   1.815 -1.0573  1.0504  1.2425
14938TIP3    H266306   6.727   4.252   1.869 -0.1042 -1.3435 -0.8853
14939TIP3   OH266307   4.829   3.327   4.926 -0.0242  0.5157 -0.1166
14939TIP3    H166308   4.858   3.414   4.954  3.0250 -0.0678 -1.0326
14939TIP3    H266309   4.792   3.341   4.839  1.4038  0.8373 -0.7055
14940TIP3   OH266310   3.584   4.571  15.378 -0.0244 -0.2672  0.1204
14940TIP3    H166311   3.633   4.652  15.366  0.8418 -0.7344  0.4347
14940TIP3    H266312   3.496   4.591  15.345  0.3752  0.5799 -0.4638
14941TIP3   OH266313   5.257   5.650   1.549 -0.3603 -0.5809 -0.2833
14941TIP3    H166314   5.252   5.568   1.598 -1.0628 -1.3446 -1.5918
14941TIP3    H266315   5.222   5.716   1.610 -0.2332 -1.3141  0.6117
14942TIP3   OH266316   4.742   4.657   5.119  0.5707 -0.0906 -0.0210
14942TIP3    H166317   4.783   4.722   5.176  1.5779 -0.8662  0.1670
14942TIP3    H266318   4.800   4.653   5.042  0.8718 -1.1990  0.2486
14943TIP3   OH266319   6.199   1.711  13.308  0.4560 -0.2028  0.7482
14943TIP3    H166320   6.257   1.764  13.254 -0.1834  1.0542  1.2554
14943TIP3    H266321   6.111   1.728  13.272  0.1238 -0.0606  1.6032
14944TIP3   OH266322   3.834   5.469  12.110  0.1110 -0.0819  0.3318
14944TIP3    H166323   3.812   5.530  12.181  1.9340  0.3442  0.5853
14944TIP3    H266324   3.842   5.384  12.153 -1.6397 -0.3954  0.1112
14945TIP3   OH266325   3.918   3.488   6.260 -0.3734  0.3644 -0.0208
14945TIP3    H166326   3.878   3.498   6.346 -0.5981 -1.5315  0.1422
14945TIP3    H266327   3.845   3.467   6.202  0.2268 -2.8834  0.2344
14946TIP3   OH266328   2.875   1.930  16.671 -0.2561 -0.1461 -0.3578
14946TIP3    H166329   2.946   1.985  16.637  0.8690  0.0971  2.1424
14946TIP3    H266330   2.800   1.951  16.616  0.4649  2.9484 -0.3507
14947TIP3   OH266331   0.244   3.490  15.051  0.5595 -0.1312  0.6912
14947TIP3    H166332   0.190   3.465  15.126  0.8541  3.6626  2.3936
14947TIP3    H266333   0.182   3.532  14.990  0.8916  0.3186  0.6539
14948TIP3   OH266334   6.731   2.982   0.176  0.1955 -0.4826 -0.3738
14948TIP3    H166335   6.648   3.020   0.206  0.2660 -0.6312  0.0076
14948TIP3    H266336   6.764   3.045   0.111  0.0298 -0.1763 -0.1614
14949TIP3   OH266337   4.763   2.180  12.778 -0.4465 -0.1130 -0.1337
14949TIP3    H166338   4.704   2.108  12.756  0.0432 -0.3893 -0.5668
14949TIP3    H266339   4.833   2.175  12.712  0.2604 -0.0280  0.5928
14950TIP3   OH266340   6.361   2.985  15.016  0.1035  0.0850 -0.1483
14950TIP3    H166341   6.330   2.949  15.099  0.5067  1.4145  0.6085
14950TIP3    H266342   6.401   2.911  14.971  0.3443 -0.5494  1.0730
14951TIP3   OH266343   1.389   3.005  14.046 -0.0012  0.2832 -0.2011
14951TIP3    H166344   1.402   3.043  13.959 -0.7567  0.3354 -0.3019
14951TIP3    H266345   1.459   2.941  14.055 -0.6674 -0.6432 -1.3768
14952TIP3   OH266346   0.888   2.231  15.346 -0.0293 -0.0874  0.3889
14952TIP3    H166347   0.857   2.255  15.433  0.9899 -1.9034  1.3105
14952TIP3    H266348   0.845   2.147  15.327  1.4730 -0.8431  0.1490
14953TIP3   OH266349   2.107   2.590  13.295  0.0126  0.3876 -0.1830
14953TIP3    H166350   2.153   2.662  13.338  0.3752  0.5257 -0.7900
14953TIP3    H266351   2.035   2.568  13.355 -0.5769  1.7667 -0.3418
14954TIP3   OH266352   0.721   2.689   4.442 -0.1071 -0.4392 -0.4273
14954TIP3    H166353   0.743   2.646   4.525  0.0965  0.8609  0.2202
14954TIP3    H266354   0.635   2.728   4.457 -0.0756 -0.2055 -0.8220
14955TIP3   OH266355   4.791   0.674   0.913 -0.5397  0.5454  0.1762
14955TIP3    H166356   4.846   0.636   0.845  0.8411  0.0766  1.5094
14955TIP3    H266357   4.774   0.764   0.883 -0.9022  0.0089 -1.2994
14956TIP3   OH266358   1.637   1.448   3.967  0.6400 -0.0785 -0.1461
14956TIP3    H166359   1.607   1.473   4.054 -0.0863 -0.6320 -0.2350
14956TIP3    H266360   1.588   1.369   3.945 -0.6238  1.1109 -1.8662
14957TIP3   OH266361   3.471   3.154  12.000 -0.5030 -0.3911  0.4866
14957TIP3    H166362   3.473   3.226  11.936 -0.8499 -0.8377 -0.0355
14957TIP3    H266363   3.378   3.142  12.019 -0.4809 -0.9852  0.2444
14958TIP3   OH266364   3.153   5.928  12.802  0.4572  0.2296 -0.3541
14958TIP3    H166365   3.169   5.852  12.858  0.3369 -0.1114 -0.7826
14958TIP3    H266366   3.240   5.965  12.787  0.6295 -0.4419 -1.0165
14959TIP3   OH266367   4.959   3.260  16.072  0.5187 -0.7740  0.4106
14959TIP3    H166368   5.029   3.326  16.080  1.8271 -2.1576  0.7901
14959TIP3    H266369   4.983   3.208  15.996  1.2873 -2.7862  1.9377
14960TIP3   OH266370   2.072   0.624  12.657  0.3956  0.4063 -0.1027
14960TIP3    H166371   2.041   0.613  12.747  0.6201  1.0303  0.0517
14960TIP3    H266372   2.127   0.702  12.659 -0.5389  1.1322 -1.0170
14961TIP3   OH266373   4.764   5.795   4.613  0.2719 -0.1901  0.3080
14961TIP3    H166374   4.798   5.786   4.524  0.5673  1.8919  0.1578
14961TIP3    H266375   4.815   5.733   4.665 -0.9148 -2.5533 -1.1636
14962TIP3   OH266376   6.451   2.635   2.561  0.0364 -0.1836  1.2536
14962TIP3    H166377   6.359   2.656   2.579  0.3579  0.9319  1.6922
14962TIP3    H266378   6.469   2.678   2.478  0.4214  0.4420  1.6517
14963TIP3   OH266379   6.392   0.296  14.730  0.1890  0.1024 -0.1159
14963TIP3    H166380   6.408   0.270  14.640  0.9381 -2.3830  0.6735
14963TIP3    H266381   6.382   0.214  14.778 -3.1139  1.3142  1.6067
14964TIP3   OH266382   0.022   1.060   3.924 -0.0568 -0.1264 -0.0276
14964TIP3    H166383  -0.025   1.104   3.995 -1.1126  0.2995 -0.9567
14964TIP3    H266384   0.081   1.127   3.889  0.2245 -0.2373  0.2325
14965TIP3   OH266385   0.017   4.065   1.422  0.1756 -0.7180  0.2028
14965TIP3    H166386   0.052   4.025   1.343 -0.1153 -1.4811  0.4489
14965TIP3    H266387  -0.067   4.102   1.395  1.0522  0.9688 -0.3484
14966TIP3   OH266388   2.705   5.247   3.588  0.0227 -0.0682  0.3624
14966TIP3    H166389   2.728   5.340   3.590  0.7473 -0.2412  0.3415
14966TIP3    H266390   2.769   5.208   3.529 -1.5412 -0.2590 -1.2978
14967TIP3   OH266391   0.482   5.269  13.596 -0.1323  0.2716 -0.4185
14967TIP3    H166392   0.407   5.325  13.575 -1.1718 -0.8183  0.1980
14967TIP3    H266393   0.500   5.286  13.689 -1.0499 -1.0222  0.0283
14968TIP3   OH266394   1.962   1.729  13.978  0.4049  0.0601  0.4350
14968TIP3    H166395   1.920   1.659  13.929  1.0729 -0.7740  1.0076
14968TIP3    H266396   1.901   1.802  13.974 -0.2100 -0.4839 -0.3600
14969TIP3   OH266397   6.718   2.387   0.964 -0.1483 -0.7600  0.2557
14969TIP3    H166398   6.788   2.448   0.985 -1.1950  0.6514 -0.1393
14969TIP3    H266399   6.641   2.423   1.009 -0.7315 -2.0037  0.3051
14970TIP3   OH266400   6.270   0.386  13.388 -0.5412  0.2238 -0.4836
14970TIP3    H166401   6.298   0.380  13.479 -0.2413  2.3459 -0.3828
14970TIP3    H266402   6.351   0.386  13.337 -0.7290 -3.0751 -1.0220
14971TIP3   OH266403   5.319   5.870   5.598  0.3581  0.0035  0.3135
14971TIP3    H166404   5.277   5.953   5.623 -1.4752 -1.3962  2.1990
14971TIP3    H266405   5.299   5.860   5.505 -1.2418  0.6646  0.5667
14972TIP3   OH266406   0.114   6.160   4.143 -0.2242 -0.3877 -0.8367
14972TIP3    H166407   0.088   6.068   4.142  1.0217 -0.7921  0.5013
14972TIP3    H266408   0.102   6.187   4.234  0.8946  0.3147 -0.8800
14973TIP3   OH266409   6.688   3.068   5.539 -0.2915 -0.1635  0.1183
14973TIP3    H166410   6.672   3.102   5.451 -1.2288 -1.9974 -0.4686
14973TIP3    H266411   6.623   3.113   5.593 -1.3909 -0.8342 -0.6032
14974TIP3   OH266412   1.658   0.753  16.528  0.1215 -0.4396  0.4372
14974TIP3    H166413   1.568   0.727  16.545  0.5861 -1.4830  1.4274
14974TIP3    H266414   1.705   0.732  16.609  0.6870  2.9654  1.1571
14975TIP3   OH266415   3.153   4.923   1.564 -0.0316  0.1725  0.7850
14975TIP3    H166416   3.119   4.968   1.487 -0.2018 -0.9387  0.1850
14975TIP3    H266417   3.109   4.964   1.638 -0.1271  1.0223  0.2619
14976TIP3   OH266418   2.652   2.515   0.897 -0.1318 -0.1624 -0.2461
14976TIP3    H166419   2.729   2.466   0.926 -0.2473 -0.1947  0.0099
14976TIP3    H266420   2.581   2.451   0.901 -0.3347  0.0868  0.3378
14977TIP3   OH266421   1.604   2.025   4.861 -0.3425 -0.2828 -1.0564
14977TIP3    H166422   1.614   1.993   4.771 -1.7424  0.1367 -1.3876
14977TIP3    H266423   1.646   1.958   4.915 -0.4076 -1.0718 -1.9577
14978TIP3   OH266424   4.553   4.832  14.129  0.5877  0.1509 -0.5496
14978TIP3    H166425   4.517   4.830  14.218  0.8701 -0.2426 -0.4399
14978TIP3    H266426   4.477   4.840  14.072  0.4879  2.8169 -0.2074
14979TIP3   OH266427   3.146   1.885   5.924  0.3472 -0.0977 -0.4504
14979TIP3    H166428   3.151   1.911   6.016 -0.2936  1.1623 -0.7540
14979TIP3    H266429   3.196   1.804   5.920 -1.6756 -1.5505  1.4804
14980TIP3   OH266430   6.824   2.092   2.612  0.3246  0.4307 -0.1946
14980TIP3    H166431   6.791   2.100   2.522  0.3195 -0.3359 -0.2682
14980TIP3    H266432   6.835   2.182   2.641  1.5219  0.7009 -1.3953
14981TIP3   OH266433   6.725   3.983  14.344  0.4824 -0.0981  0.1910
14981TIP3    H166434   6.676   3.903  14.362  0.2156  0.0426  0.0965
14981TIP3    H266435   6.744   3.978  14.250  2.5454 -1.2123  0.6071
14982TIP3   OH266436   2.503   5.955  16.815 -0.1083  0.3284  0.0514
14982TIP3    H166437   2.554   6.033  16.837  1.3158 -0.8543  1.1139
14982TIP3    H266438   2.412   5.983  16.825  0.3886  1.3579  2.3754
14983TIP3   OH266439   5.496   5.517  10.945 -0.1016  0.0183  0.5670
14983TIP3    H166440   5.450   5.447  10.900 -0.1303  0.6155 -0.3504
14983TIP3    H266441   5.585   5.483  10.959 -0.2117 -0.3225  0.4360
14984TIP3   OH266442   0.335   0.617   3.371  0.1220 -0.6598 -0.2390
14984TIP3    H166443   0.248   0.644   3.342 -0.5523 -0.7571  1.6138
14984TIP3    H266444   0.387   0.697   3.372 -0.0584 -0.5300 -0.9163
14985TIP3   OH266445   4.664   0.735   5.787 -0.0067  0.4390 -0.0415
14985TIP3    H166446   4.754   0.710   5.806  0.2824 -0.0034 -1.7682
14985TIP3    H266447   4.671   0.791   5.709 -1.1775  0.8321  0.1186
14986TIP3   OH266448   4.177   0.893  16.929  0.3837  0.3266  1.0264
14986TIP3    H166449   4.201   0.936  17.011 -0.7075 -0.1047  1.5898
14986TIP3    H266450   4.241   0.823  16.919 -0.0591 -0.2476  2.0417
14987TIP3   OH266451   6.381   6.133   2.265 -0.8281 -0.3568  0.0562
14987TIP3    H166452   6.460   6.186   2.257 -1.7169  0.7680 -1.8693
14987TIP3    H266453   6.387   6.094   2.353  3.5702 -3.1999 -1.2087
14988TIP3   OH266454   5.034   5.586   2.606 -0.4314  0.3249 -0.0876
14988TIP3    H166455   4.984   5.505   2.615  1.0053 -0.5618  0.2037
14988TIP3    H266456   4.974   5.647   2.564 -1.6302 -0.8080 -0.0619
14989TIP3   OH266457   6.056   6.036   2.779  0.0492 -0.2699 -0.7165
14989TIP3    H166458   6.117   6.092   2.731  1.6782  0.4488  1.9641
14989TIP3    H266459   5.970   6.061   2.748  0.9049  1.6739 -1.6739
14990TIP3   OH266460   1.858   1.929  12.873  0.9863 -0.0909  0.6716
14990TIP3    H166461   1.802   1.998  12.909 -0.8590 -1.9705  1.6488
14990TIP3    H266462   1.833   1.925  12.781  0.2176 -0.2400  0.8785
14991TIP3   OH266463   2.269   4.822  17.050 -0.2827 -0.0301  0.4324
14991TIP3    H166464   2.222   4.872  16.983  0.8810  0.2701 -0.1729
14991TIP3    H266465   2.338   4.881  17.080 -0.1123 -0.5665  1.1116
14992TIP3   OH266466   6.808   0.184  13.010 -0.5454 -0.1360 -0.2617
14992TIP3    H166467   6.891   0.202  13.055 -1.6828 -1.9477  2.9094
14992TIP3    H266468   6.769   0.270  12.995  0.6596  0.6197  0.8018
14993TIP3   OH266469   6.302   1.682   4.384  0.0229 -0.0330  0.6181
14993TIP3    H166470   6.240   1.613   4.360  1.1480 -1.1979  0.9392
14993TIP3    H266471   6.313   1.734   4.305 -2.3500  1.0317  0.9084
14994TIP3   OH266472   0.996   0.774  15.892  0.0522 -0.0376  1.1580
14994TIP3    H166473   1.055   0.801  15.823 -0.7468  0.7679  0.7755
14994TIP3    H266474   0.995   0.847  15.954 -1.5143  0.5517  0.5060
14995TIP3   OH266475   6.681   6.650   4.332 -0.5488 -0.1694  0.3971
14995TIP3    H166476   6.655   6.589   4.400 -0.9987  1.5445  1.8504
14995TIP3    H266477   6.694   6.733   4.378  1.6158  0.4923 -1.2151
14996TIP3   OH266478   2.311   1.334   3.497 -0.2288 -0.1465  0.2306
14996TIP3    H166479   2.249   1.402   3.473 -0.5049 -0.4464  0.0960
14996TIP3    H266480   2.364   1.320   3.419 -2.2767 -2.3914 -0.8737
14997TIP3   OH266481   1.980   6.435   6.486  0.0812  0.7374  0.0453
14997TIP3    H166482   2.058   6.400   6.528 -1.6527 -2.9633  0.5054
14997TIP3    H266483   2.004   6.445   6.394  1.5580  1.4008  0.4762
14998TIP3   OH266484   2.673   4.685  13.428  0.6223  0.7910  0.0842
14998TIP3    H166485   2.677   4.629  13.505  0.4194 -0.4302 -0.7635
14998TIP3    H266486   2.764   4.695  13.401  0.4927 -2.0113 -1.7274
14999TIP3   OH266487   4.084   4.463  16.051 -0.0414  0.5540  0.4190
14999TIP3    H166488   4.005   4.487  16.003  0.0469  1.0372  0.5099
14999TIP3    H266489   4.114   4.545  16.090 -0.8694 -0.0475  2.4520
15000TIP3   OH266490   1.220   0.159   0.056 -0.3709 -0.6167 -0.3795
15000TIP3    H166491   1.192   0.184   0.144 -0.2554 -2.2808  0.1676
15000TIP3    H266492   1.275   0.231   0.026 -0.8342  0.1998  0.7062
15001TIP3   OH266493   5.350   1.065   1.530 -0.1634 -0.0296 -0.3393
15001TIP3    H166494   5.339   1.100   1.442  1.1146 -0.1548 -0.5756
15001TIP3    H266495   5.343   1.142   1.587 -2.7566 -0.1826 -0.3541
15002TIP3   OH266496   0.364   2.369  15.236 -0.0548  0.7157  0.4458
15002TIP3    H166497   0.367   2.435  15.166  0.0635  0.1119 -0.1324
15002TIP3    H266498   0.455   2.341  15.245 -0.2083  0.0877  0.1457
15003TIP3   OH266499   4.488   1.843  14.645  0.4244 -0.6521 -0.2533
15003TIP3    H166500   4.544   1.845  14.567  3.2355  1.5778  1.5695
15003TIP3    H266501   4.495   1.932  14.681 -2.1836 -1.1007  1.6056
15004TIP3   OH266502   3.880   2.307   3.959 -0.6218  0.3257  0.1440
15004TIP3    H166503   3.935   2.239   3.996 -1.0725  0.4649  1.1079
15004TIP3    H266504   3.924   2.333   3.878 -0.9942 -1.8561 -0.8448
15005TIP3   OH266505   2.714   3.413  12.536 -0.5832  0.0019  0.2747
15005TIP3    H166506   2.735   3.349  12.468  1.3610  0.5117  0.3379
15005TIP3    H266507   2.694   3.494  12.489  0.5551  0.2977  0.2698
15006TIP3   OH266508   3.382   2.337  14.367 -0.1125 -0.1210  0.1147
15006TIP3    H166509   3.372   2.402  14.437 -0.7372  0.4385 -0.4799
15006TIP3    H266510   3.441   2.379  14.304  2.8200 -1.7289  1.5795
15007TIP3   OH266511   1.169   3.024   6.649 -0.3768 -0.5852 -0.5481
15007TIP3    H166512   1.222   3.002   6.573 -1.0399 -1.0386 -0.8932
15007TIP3    H266513   1.101   2.956   6.652 -0.6157 -0.3290  0.1931
15008TIP3   OH266514   6.333   3.342  13.765  0.7976 -0.1905  0.3113
15008TIP3    H166515   6.357   3.356  13.857 -1.5599 -0.0524  0.9652
15008TIP3    H266516   6.251   3.292  13.769  0.1680  0.5976 -1.6894
15009TIP3   OH266517   6.607   3.193   3.883  0.1084 -0.1617 -0.1948
15009TIP3    H166518   6.675   3.216   3.945 -1.1873  0.1251  1.1670
15009TIP3    H266519   6.630   3.242   3.803  1.7760 -0.5248  0.0257
15010TIP3   OH266520   5.913   5.417  11.898 -0.0591  0.3053  0.0482
15010TIP3    H166521   5.915   5.383  11.808 -4.6498  0.6211 -0.3978
15010TIP3    H266522   5.888   5.509  11.888 -0.2960  0.4347  1.6575
15011TIP3   OH266523   6.538   6.459   0.872 -0.4594 -0.3704  0.0984
15011TIP3    H166524   6.524   6.552   0.891 -0.3419 -0.3619  0.1403
15011TIP3    H266525   6.599   6.458   0.799 -0.5144 -0.4146  0.0524
15012TIP3   OH266526   3.317   4.979  15.104 -0.1247 -0.0867 -0.0809
15012TIP3    H166527   3.245   5.041  15.098 -0.5346 -0.5956 -0.6267
15012TIP3    H266528   3.395   5.030  15.081 -0.3832  0.3498  0.0065
15013TIP3   OH266529   3.553   0.767   2.687 -0.4720 -0.1264 -0.0235
15013TIP3    H166530   3.583   0.750   2.598  1.0591 -0.1967  0.4694
15013TIP3    H266531   3.483   0.831   2.677 -1.0004 -0.8713 -1.3404
15014TIP3   OH266532   0.990   2.455  13.340 -0.2373 -0.5824  0.3886
15014TIP3    H166533   0.904   2.494  13.329 -0.0312  0.1673  1.2785
15014TIP3    H266534   0.974   2.378  13.396 -0.1747  0.3509  1.7514
15015TIP3   OH266535   2.205   4.194  12.394  0.2280  0.7284  0.3430
15015TIP3    H166536   2.152   4.178  12.472  2.5102 -0.9339  1.6649
15015TIP3    H266537   2.209   4.109  12.349 -0.3225  1.4507 -1.1463
15016TIP3   OH266538   3.852   4.754  15.144 -0.0803  0.1136  0.2777
15016TIP3    H166539   3.834   4.797  15.227  0.4165 -0.7447  0.8452
15016TIP3    H266540   3.898   4.820  15.092  0.5623  0.3179  1.0789
15017TIP3   OH266541   3.571   6.336  16.316  0.0606 -0.0221 -0.2722
15017TIP3    H166542   3.550   6.249  16.349 -0.7018 -0.1396 -1.0229
15017TIP3    H266543   3.538   6.336  16.226  0.1951  0.9868 -0.3352
15018TIP3   OH266544   3.717   0.074   6.658 -0.5105 -0.1869  0.0775
15018TIP3    H166545   3.772   0.007   6.618 -0.3818  0.0775 -0.2030
15018TIP3    H266546   3.734   0.153   6.605 -0.9804 -0.0441  0.1354
15019TIP3   OH266547   2.207   6.585  17.026  0.1849 -0.3820 -0.2840
15019TIP3    H166548   2.124   6.622  17.054 -0.3528  0.2122 -2.4875
15019TIP3    H266549   2.188   6.493  17.007 -0.4818  0.1329 -2.4483
15020TIP3   OH266550   5.544   3.866   0.749  0.2120 -0.4508  0.0548
15020TIP3    H166551   5.504   3.953   0.746 -0.4524 -0.7245  0.6399
15020TIP3    H266552   5.619   3.872   0.690  0.3188  0.5950  0.2760
15021TIP3   OH266553   2.977   5.207   3.020 -0.1690  0.0683  0.5389
15021TIP3    H166554   3.017   5.214   2.934 -1.3409  1.3897  0.0620
15021TIP3    H266555   2.887   5.181   3.003  0.3989 -2.9477  1.5922
15022TIP3   OH266556   5.354   4.541  16.127 -0.3757 -0.0227 -0.0982
15022TIP3    H166557   5.263   4.512  16.127  0.0187 -1.3540 -0.7428
15022TIP3    H266558   5.391   4.505  16.208 -0.1776 -0.3318 -0.3247
15023TIP3   OH266559   5.653   5.026  13.077 -0.3672 -0.1187  0.5434
15023TIP3    H166560   5.741   5.059  13.058 -0.5651 -0.2559 -0.7313
15023TIP3    H266561   5.637   4.960  13.009 -1.5900  0.1823  0.5069
15024TIP3   OH266562   0.485   1.558  11.583 -0.9563  0.5341 -0.3360
15024TIP3    H166563   0.391   1.567  11.573 -1.1468  1.9579  2.1718
15024TIP3    H266564   0.521   1.589  11.499 -2.6468  1.4793 -0.7551
15025TIP3   OH266565   2.042   2.620  11.319  0.0394  0.1619  0.1700
15025TIP3    H166566   2.099   2.655  11.388  1.3277 -1.8302  0.1908
15025TIP3    H266567   1.954   2.633  11.352  0.5640  0.8631  1.3692
15026TIP3   OH266568   4.064   0.552  15.149  0.3963 -0.2087 -0.1394
15026TIP3    H166569   4.112   0.470  15.158  2.1430  0.5982 -1.4125
15026TIP3    H266570   3.982   0.538  15.196  2.5391 -1.0705  3.6780
15027TIP3   OH266571   4.104   3.839   6.018  0.5452  0.0971 -0.4462
15027TIP3    H166572   4.122   3.916   5.963  0.6551 -0.1807 -0.8011
15027TIP3    H266573   4.038   3.869   6.080  1.5662  0.8921  0.3123
15028TIP3   OH266574   1.957   0.081   0.348 -0.2185 -0.6413 -0.0662
15028TIP3    H166575   2.045   0.054   0.320 -0.2879 -0.2931 -0.6189
15028TIP3    H266576   1.907   0.089   0.267 -0.0110  1.8052 -0.0053
15029TIP3   OH266577   5.370   6.651   1.029 -0.1180  0.3300 -0.0843
15029TIP3    H166578   5.323   6.617   0.953 -0.7522 -1.8673  1.2091
15029TIP3    H266579   5.305   6.651   1.099  0.3732  2.5962  0.4544
15030TIP3   OH266580   4.066   3.017   0.290 -0.2268 -0.0743  0.2419
15030TIP3    H166581   4.158   2.998   0.276  0.0606  1.1712  0.3167
15030TIP3    H266582   4.064   3.110   0.315 -1.5071 -0.0240  0.0354
15031TIP3   OH266583   5.428   4.548   1.539 -0.2251  0.1919  0.2530
15031TIP3    H166584   5.478   4.494   1.478 -1.2208 -1.3299  0.7163
15031TIP3    H266585   5.336   4.536   1.513 -0.6556 -0.3407  1.8857
15032TIP3   OH266586   0.586   0.229  17.188  0.2843 -0.2051 -0.0476
15032TIP3    H166587   0.649   0.291  17.225 -0.4091  0.7840 -0.4614
15032TIP3    H266588   0.530   0.283  17.131 -0.2013 -1.2568 -0.6000
15033TIP3   OH266589   2.866   5.889  12.938 -0.4674 -0.0616 -0.5670
15033TIP3    H166590   2.834   5.833  13.009 -1.0790 -1.5863 -1.9668
15033TIP3    H266591   2.920   5.955  12.982 -1.2211 -0.6420  1.3439
15034TIP3   OH266592   1.851   6.386  12.499 -0.2363  0.0005 -0.3294
15034TIP3    H166593   1.785   6.335  12.546 -0.3428  0.9093  0.5463
15034TIP3    H266594   1.825   6.381  12.407 -1.6208  0.4687  0.0145
15035TIP3   OH266595   0.406   3.422   1.863  0.5783  0.0678 -0.5433
15035TIP3    H166596   0.357   3.504   1.863 -0.1710 -0.3729  0.0054
15035TIP3    H266597   0.467   3.431   1.789 -1.0104  0.2134 -1.8901
15036TIP3   OH266598   1.137   5.402  15.110 -0.1989  0.8389 -0.1701
15036TIP3    H166599   1.111   5.484  15.152  0.2963  0.7463  0.3244
15036TIP3    H266600   1.139   5.338  15.181 -2.0248  0.0269 -0.7646
15037TIP3   OH266601   2.055   4.735  13.666  0.6479  0.0238 -0.1605
15037TIP3    H166602   2.117   4.792  13.711  0.4826 -0.1857  0.3357
15037TIP3    H266603   2.059   4.652  13.714  0.0526 -0.0223 -0.1865
15038TIP3   OH266604   3.924   5.585   4.538 -0.5651 -0.2925  0.2562
15038TIP3    H166605   3.956   5.663   4.583  0.2621 -1.0537  1.0295
15038TIP3    H266606   3.838   5.611   4.504 -1.0316  0.4769  1.8774
15039TIP3   OH266607   3.392   2.787  13.047 -0.6571 -0.7029 -0.1947
15039TIP3    H166608   3.337   2.854  13.087  0.4041  0.9076 -1.3264
15039TIP3    H266609   3.342   2.756  12.972 -0.5667 -0.1597 -0.4838
15040TIP3   OH266610   3.228   2.822   2.985 -0.3134 -0.1069  0.0789
15040TIP3    H166611   3.154   2.883   2.983 -0.9919 -0.9284 -1.1648
15040TIP3    H266612   3.286   2.853   2.915 -0.2118 -0.3370  0.0619
15041TIP3   OH266613   2.651   0.756  13.926  0.3106  0.2234  0.0992
15041TIP3    H166614   2.574   0.789  13.878  1.5259  0.7921 -1.5661
15041TIP3    H266615   2.685   0.832  13.972  0.0714  0.0366  0.5968
15042TIP3   OH266616   0.164   1.780  15.779  0.2187 -0.0180  0.3548
15042TIP3    H166617   0.143   1.740  15.864  0.2051 -1.3915 -0.2601
15042TIP3    H266618   0.257   1.802  15.786  0.1798  0.0251  0.7895
15043TIP3   OH266619   6.047   1.385   3.567  0.5017 -0.5114 -0.1168
15043TIP3    H166620   5.962   1.422   3.543  0.5901 -0.8730 -1.0471
15043TIP3    H266621   6.026   1.305   3.615  0.3133  0.6243  1.7780
15044TIP3   OH266622   6.104   5.124   1.766  0.1402  0.1465 -0.2376
15044TIP3    H166623   6.138   5.039   1.738  1.1152  0.4187  0.1104
15044TIP3    H266624   6.009   5.113   1.761  0.2510 -0.4182 -1.8195
15045TIP3   OH266625   4.728   5.371  17.019 -0.2343 -0.7296 -0.1330
15045TIP3    H166626   4.781   5.300  16.982  0.2599 -1.0844  1.1625
15045TIP3    H266627   4.657   5.326  17.066 -0.4842 -0.3294 -0.1201
15046TIP3   OH266628   4.433   6.782  15.046  0.4054  0.1036  0.1507
15046TIP3    H166629   4.341   6.788  15.074  0.2728  0.3481 -0.3278
15046TIP3    H266630   4.439   6.699  15.000  0.4925 -0.0390  0.4156
15047TIP3   OH266631   0.926   3.916  13.480 -0.6247 -0.2373  0.0191
15047TIP3    H166632   0.871   3.878  13.411  0.4776 -0.9226 -0.5122
15047TIP3    H266633   0.932   3.847  13.546 -0.2522 -0.2480 -0.0220
15048TIP3   OH266634   2.623   0.052   6.195 -0.1066 -0.0247  0.0616
15048TIP3    H166635   2.569   0.037   6.273  0.0582 -2.8737 -0.2825
15048TIP3    H266636   2.696  -0.009   6.204 -0.3131 -0.7393 -2.5152
15049TIP3   OH266637   3.777   2.980   3.447  0.1992  0.7860  0.2310
15049TIP3    H166638   3.774   2.894   3.406 -1.7881  1.6635 -1.6455
15049TIP3    H266639   3.831   2.967   3.525 -0.8448 -2.3910  0.5795
15050TIP3   OH266640   6.111   6.189   4.211 -0.3505 -0.1373  0.0068
15050TIP3    H166641   6.083   6.105   4.246  0.0894  0.6071  2.2847
15050TIP3    H266642   6.032   6.243   4.211 -0.0980  0.2716  1.2228
15051TIP3   OH266643   0.222   1.133  11.675  0.4257 -0.0218  0.1128
15051TIP3    H166644   0.299   1.190  11.669  0.2710  0.0526 -1.7231
15051TIP3    H266645   0.200   1.133  11.769  1.9998  0.8099  0.5292
15052TIP3   OH266646   2.280   0.346   2.441  0.3948 -0.0583 -0.7794
15052TIP3    H166647   2.249   0.325   2.529  2.5531 -1.1014 -0.2078
15052TIP3    H266648   2.327   0.428   2.451  1.6308 -0.7590 -0.6949
15053TIP3   OH266649   4.290   5.230  15.172 -0.2826 -0.1680 -0.1920
15053TIP3    H166650   4.315   5.149  15.216 -0.0765 -1.4123 -2.4447
15053TIP3    H266651   4.194   5.227  15.168 -0.4688  0.9809  1.8953
15054TIP3   OH266652   3.581   3.509   1.205  0.1036  0.0641  0.5446
15054TIP3    H166653   3.532   3.562   1.142  0.7648  0.8723  0.6942
15054TIP3    H266654   3.601   3.428   1.159 -0.4362  0.1660  0.1215
15055TIP3   OH266655   4.462   4.638   5.059 -0.0602 -0.3683 -0.4033
15055TIP3    H166656   4.546   4.672   5.089  0.7291 -0.9130 -1.9359
15055TIP3    H266657   4.468   4.543   5.071 -1.0785 -0.3115  0.9214
15056TIP3   OH266658   6.812   4.927  14.504 -0.2095 -0.6562  0.0112
15056TIP3    H166659   6.770   4.882  14.577 -1.8062 -0.8974 -1.0104
15056TIP3    H266660   6.854   5.003  14.544 -0.5584 -1.1033  1.2631
15057TIP3   OH266661   3.185   4.020   2.825 -0.0782  0.1363  0.6390
15057TIP3    H166662   3.271   4.030   2.784 -0.0100  0.9409  0.9499
15057TIP3    H266663   3.134   4.093   2.790  0.0753  1.0267  2.1764
15058TIP3   OH266664   3.265   4.191  11.659 -0.3730  0.6173 -0.3748
15058TIP3    H166665   3.313   4.189  11.742  2.5103  1.4226 -1.8753
15058TIP3    H266666   3.273   4.282  11.629 -2.2860  0.5920 -1.0692
15059TIP3   OH266667   2.045   6.641  13.931  0.4048  0.4375 -0.8237
15059TIP3    H166668   1.950   6.629  13.924  0.4239  0.4833 -1.1645
15059TIP3    H266669   2.076   6.643  13.841  1.0011 -1.5852 -0.7145
15060TIP3   OH266670   6.758   0.025   3.793  0.0634  0.2633  0.8016
15060TIP3    H166671   6.728   0.042   3.703 -1.7728  3.0965  1.8014
15060TIP3    H266672   6.853   0.020   3.787 -0.0626 -0.5255 -1.3827
15061TIP3   OH266673   6.089   0.278  11.890 -0.1689  0.1014  0.2565
15061TIP3    H166674   6.074   0.282  11.985  0.1632  1.8676  0.2800
15061TIP3    H266675   6.170   0.229  11.881 -0.8920 -1.2439  0.7752
15062TIP3   OH266676   2.121   2.937  16.717 -0.0707 -0.1805  0.0908
15062TIP3    H166677   2.109   2.908  16.808 -2.1710 -0.6674 -0.2779
15062TIP3    H266678   2.080   2.868  16.665  1.2553  0.0166 -1.2629
15063TIP3   OH266679   0.455   4.929   0.363  0.0066  0.0137  0.4074
15063TIP3    H166680   0.405   4.849   0.345 -0.1797  0.1957  0.1067
15063TIP3    H266681   0.527   4.900   0.419 -1.0678 -0.0623  1.8088
15064TIP3   OH266682   0.221   3.625  14.347  0.1200  0.0664 -0.7289
15064TIP3    H166683   0.300   3.577  14.320  1.0029  1.2927 -0.3691
15064TIP3    H266684   0.240   3.716  14.327 -1.3039  0.3615 -0.8250
15065TIP3   OH266685   5.971   5.024   3.879 -0.8727  0.2294 -0.0449
15065TIP3    H166686   6.030   5.068   3.818 -2.0555 -1.1851 -2.3357
15065TIP3    H266687   5.962   5.086   3.952  0.5770  2.0253 -1.3001
15066TIP3   OH266688   6.570   4.335  16.175  0.2029  0.6734  0.2485
15066TIP3    H166689   6.659   4.300  16.173  0.2507  0.8435 -0.5673
15066TIP3    H266690   6.545   4.344  16.083 -0.9236 -0.0579  0.4539
15067TIP3   OH266691   0.545   2.441   1.954 -0.0261 -0.1778 -0.1184
15067TIP3    H166692   0.490   2.475   2.026  1.2063 -0.7821  1.1599
15067TIP3    H266693   0.632   2.476   1.972  0.5790 -1.4222 -0.5768
15068TIP3   OH266694   5.547   2.801  16.242  0.0780  0.2447  0.1617
15068TIP3    H166695   5.483   2.837  16.181 -1.0572 -1.2184  0.4278
15068TIP3    H266696   5.626   2.788  16.190 -1.1945 -2.0118 -1.3509
15069TIP3   OH266697   3.567   6.716  12.363  0.2033  0.2381  0.4027
15069TIP3    H166698   3.516   6.797  12.363 -1.9052 -1.0104  0.4723
15069TIP3    H266699   3.509   6.651  12.402  2.0485 -1.2100  0.9065
15070TIP3   OH266700   1.398   5.088   0.403  0.4075 -0.0197  1.1677
15070TIP3    H166701   1.388   5.013   0.344  0.8200  0.1593  0.8680
15070TIP3    H266702   1.477   5.132   0.373 -1.0499  1.8845 -0.1807
15071TIP3   OH266703   5.127   2.299  15.780  0.2997 -0.3914  0.2106
15071TIP3    H166704   5.086   2.293  15.694  1.0335 -0.2702 -0.1556
15071TIP3    H266705   5.142   2.392  15.793 -0.7026 -0.3132  0.9080
15072TIP3   OH266706   2.789   2.656  14.558  0.0255  0.0805 -0.4925
15072TIP3    H166707   2.717   2.680  14.616  0.6020 -0.3741  0.4292
15072TIP3    H266708   2.748   2.639  14.474 -1.0460 -0.9924  0.2311
15073TIP3   OH266709   2.177   2.205  14.285  0.5348  0.1132 -0.1679
15073TIP3    H166710   2.246   2.267  14.260  0.8709 -0.6127 -1.0862
15073TIP3    H266711   2.192   2.190  14.379  0.1718  1.7442  0.1860
15074TIP3   OH266712   6.740   5.580  14.332 -0.2629 -0.0445 -0.5822
15074TIP3    H166713   6.822   5.629  14.326 -1.8315  2.7363 -0.9367
15074TIP3    H266714   6.746   5.533  14.415  2.1890 -1.0056 -1.2139
15075TIP3   OH266715   2.583   0.285   4.000 -0.1308 -0.4319 -0.2936
15075TIP3    H166716   2.510   0.344   4.015  0.6329  0.2001  1.2504
15075TIP3    H266717   2.635   0.290   4.081 -0.3384 -3.6690  0.1866
15076TIP3   OH266718   6.518   0.444   3.768 -0.0362 -0.4231  0.1492
15076TIP3    H166719   6.497   0.516   3.828 -0.2353 -0.0760 -0.3313
15076TIP3    H266720   6.608   0.419   3.792 -0.0253 -0.1296  0.4315
15077TIP3   OH266721   3.456   0.354  13.689 -0.3741 -0.2510 -0.9322
15077TIP3    H166722   3.505   0.423  13.645  1.8990 -0.5250  0.9600
15077TIP3    H266723   3.478   0.365  13.782  1.8568 -4.6566 -0.6675
15078TIP3   OH266724   6.612   0.869   3.151 -0.5425  0.2594  0.4279
15078TIP3    H166725   6.516   0.869   3.147 -0.5136  0.0330 -0.9692
15078TIP3    H266726   6.639   0.917   3.072  0.4997 -0.7756  0.1257
15079TIP3   OH266727   4.514   2.691  12.217  0.0495  0.1897 -0.0584
15079TIP3    H166728   4.441   2.634  12.241  0.6656  0.5774  3.1819
15079TIP3    H266729   4.487   2.778  12.245  1.0553  0.6634 -0.5077
15080TIP3   OH266730   0.566   0.828  15.054 -0.5098  0.4253 -0.4060
15080TIP3    H166731   0.617   0.760  15.009  3.0340  1.7081  1.2651
15080TIP3    H266732   0.559   0.899  14.990  0.4310  0.4751 -0.4710
15081TIP3   OH266733   3.434   0.697  13.484  0.2119  0.3806  0.0082
15081TIP3    H166734   3.490   0.686  13.561  0.6458 -0.5373 -0.4233
15081TIP3    H266735   3.463   0.779  13.444 -1.2970  1.9254  1.8542
15082TIP3   OH266736   5.706   2.467   1.627 -0.1026  0.5355  1.0005
15082TIP3    H166737   5.767   2.448   1.698  0.6088 -0.8648  0.0597
15082TIP3    H266738   5.735   2.412   1.555 -2.2692  0.1233  0.3751
15083TIP3   OH266739   1.730   0.229  16.011  0.3081  0.0451 -0.3671
15083TIP3    H166740   1.737   0.202  16.102 -0.7105  0.2482 -0.2197
15083TIP3    H266741   1.699   0.152  15.964 -0.2244  0.2507 -0.3572
15084TIP3   OH266742   2.839   0.840   1.654  0.3530 -0.4466  0.1078
15084TIP3    H166743   2.768   0.833   1.590  0.8973 -1.5415 -0.4066
15084TIP3    H266744   2.838   0.932   1.681 -0.6745 -0.2430 -0.5546
15085TIP3   OH266745   3.530   6.604  17.141  0.5100  0.1193  0.2919
15085TIP3    H166746   3.566   6.582  17.055 -1.8935 -1.0173 -0.4913
15085TIP3    H266747   3.436   6.612  17.127 -0.3064 -2.4568  3.2323
15086TIP3   OH266748   5.078   2.277  11.191  0.3772 -0.1852  0.4337
15086TIP3    H166749   5.172   2.263  11.182  0.0954 -4.6032  1.7402
15086TIP3    H266750   5.039   2.227  11.120 -1.0254  0.6132  0.6036
15087TIP3   OH266751   1.894   3.336  12.541 -0.1739  0.0900 -0.0330
15087TIP3    H166752   1.918   3.251  12.580  1.1175  1.2304  1.7979
15087TIP3    H266753   1.808   3.320  12.502  0.0090 -2.0497  0.2995
15088TIP3   OH266754   4.306   5.699   0.193 -0.4365 -0.2247 -0.6958
15088TIP3    H166755   4.248   5.769   0.226 -0.9353  0.1780 -2.3411
15088TIP3    H266756   4.388   5.712   0.241 -0.4418  1.6477 -1.0889
15089TIP3   OH266757   1.035   2.741   4.215  0.1194  0.7401 -0.2635
15089TIP3    H166758   1.002   2.764   4.302 -0.8300  0.9047 -0.6516
15089TIP3    H266759   0.991   2.802   4.156  3.1266  2.7850 -0.5875
15090TIP3   OH266760   5.574   1.984  13.445 -0.3569 -0.0404 -0.2112
15090TIP3    H166761   5.566   1.972  13.540 -0.5391 -1.8083 -0.4187
15090TIP3    H266762   5.490   2.022  13.418 -0.3101  0.4569  0.3237
15091TIP3   OH266763   4.013   5.680   1.265  0.4520  0.0224 -0.3937
15091TIP3    H166764   3.919   5.671   1.281  0.2820 -1.1306 -1.8578
15091TIP3    H266765   4.022   5.767   1.227  0.1063  0.4439  0.4448
15092TIP3   OH266766   5.075   1.109  14.276  0.3511  0.3823 -0.4316
15092TIP3    H166767   5.165   1.077  14.273  0.2803 -0.0628  1.2476
15092TIP3    H266768   5.056   1.136  14.186  1.5444 -1.1934 -1.1975
15093TIP3   OH266769   5.429   6.759   0.266  0.0222 -0.6789 -0.5783
15093TIP3    H166770   5.369   6.704   0.316  0.5971 -1.4993 -0.7751
15093TIP3    H266771   5.470   6.815   0.331 -1.0704  0.0098 -0.4622
15094TIP3   OH266772   1.956   1.370  16.556  0.4964 -1.0798 -0.3733
15094TIP3    H166773   1.958   1.453  16.603 -1.3527 -0.6884 -0.9128
15094TIP3    H266774   1.949   1.304  16.625  2.0620 -0.8278  0.0595
15095TIP3   OH266775   5.300   4.038  14.133  0.6871  0.4923 -0.0700
15095TIP3    H166776   5.228   4.010  14.189 -0.8038  2.6721 -0.7616
15095TIP3    H266777   5.367   4.070  14.193  1.5279 -2.2391  0.6211
15096TIP3   OH266778   4.261   0.262  13.850 -0.8683  0.7408  0.1502
15096TIP3    H166779   4.284   0.179  13.808 -0.9612  1.3292 -1.1082
15096TIP3    H266780   4.329   0.276  13.915  1.4715  1.6095 -2.3220
15097TIP3   OH266781   4.724   4.847  14.625 -0.4698  0.5763  0.0823
15097TIP3    H166782   4.764   4.869  14.709  1.1712 -1.2498 -0.1453
15097TIP3    H266783   4.639   4.808  14.648 -0.5993  1.2650  0.7957
15098TIP3   OH266784   1.650   6.806  15.202 -0.6008 -0.0993  0.3696
15098TIP3    H166785   1.590   6.796  15.276 -0.7964 -1.2563  0.0620
15098TIP3    H266786   1.594   6.829  15.128 -0.3795  1.3002  0.6100
15099TIP3   OH266787   3.620   2.671  10.222  0.9009 -0.6499 -0.2228
15099TIP3    H166788   3.682   2.728  10.176  1.5050 -0.9887  0.1512
15099TIP3    H266789   3.534   2.709  10.203  1.2384 -0.0136 -0.5358
15100TIP3   OH266790   1.517   2.016   2.503 -0.0733 -0.3531 -0.0157
15100TIP3    H166791   1.544   2.040   2.591 -0.7879  0.0943  0.0911
15100TIP3    H266792   1.493   2.099   2.462  1.8610 -0.3021 -1.2158
15101TIP3   OH266793   2.281   0.435   0.312 -0.5628 -0.5702 -0.2069
15101TIP3    H166794   2.335   0.490   0.255 -1.1468  2.0826  1.6526
15101TIP3    H266795   2.194   0.436   0.272 -0.4322 -0.6763 -0.4986
15102TIP3   OH266796   6.000   3.774  15.837 -0.2029 -0.4181 -0.3722
15102TIP3    H166797   6.062   3.728  15.780 -0.4633  1.0919 -1.9785
15102TIP3    H266798   5.928   3.711  15.849  0.6682 -1.4113 -0.2237
15103TIP3   OH266799   0.746   0.449   3.586  0.1546  0.2489  0.1585
15103TIP3    H166800   0.746   0.361   3.624  1.2298 -0.1078 -0.6184
15103TIP3    H266801   0.669   0.450   3.528 -1.0722  0.5562  1.7069
15104TIP3   OH266802   6.543   4.692   0.266 -0.2795 -0.1713  0.1529
15104TIP3    H166803   6.603   4.700   0.192 -0.0718 -0.4654  0.2880
15104TIP3    H266804   6.485   4.768   0.258  0.9238  0.8400  0.7655
15105TIP3   OH266805   6.215   5.154  14.419 -0.5533 -0.6353 -0.4136
15105TIP3    H166806   6.305   5.155  14.388 -0.3291  0.2155  0.2022
15105TIP3    H266807   6.166   5.204  14.353 -0.2256  0.4685  0.1446
15106TIP3   OH266808   2.804   1.600  12.883 -0.1384 -0.0606  0.1287
15106TIP3    H166809   2.828   1.560  12.967  0.0358  0.8397  0.5193
15106TIP3    H266810   2.884   1.598  12.831 -0.0061  0.1866  0.3192
15107TIP3   OH266811   1.481   6.588  15.916 -0.0143 -0.2216  0.0877
15107TIP3    H166812   1.466   6.647  15.990 -1.0296 -0.0694 -0.2219
15107TIP3    H266813   1.415   6.519  15.926  0.3579 -0.6303 -0.2342
15108TIP3   OH266814   3.062   1.957   6.600 -0.3946  0.1387 -0.2895
15108TIP3    H166815   3.111   1.950   6.518  0.2470 -0.2128  0.1122
15108TIP3    H266816   3.055   1.867   6.632 -0.4662  0.2926  0.1414
15109TIP3   OH266817   1.021   4.191   1.107  0.2565 -0.4056 -0.4761
15109TIP3    H166818   1.081   4.265   1.114  0.0827 -0.3221  0.1501
15109TIP3    H266819   1.008   4.179   1.012 -0.7540  1.1963 -0.5768
15110TIP3   OH266820   4.842   0.916  17.118 -0.5383 -0.0535  0.6834
15110TIP3    H166821   4.811   0.950  17.034  0.7143  1.7554  0.8931
15110TIP3    H266822   4.836   0.990  17.178  0.5107 -0.7336  1.6795
15111TIP3   OH266823   1.712   3.072  14.016 -0.1019  0.2210 -0.0725
15111TIP3    H166824   1.735   2.998  13.960  0.0268  0.2813 -0.0998
15111TIP3    H266825   1.763   3.146  13.981  1.6356 -0.2088  1.4090
15112TIP3   OH266826   1.070   0.122   3.898  0.3637  0.5202  0.1811
15112TIP3    H166827   1.097   0.085   3.982  0.4597 -2.6865 -1.1258
15112TIP3    H266828   0.974   0.124   3.902  0.3752  0.5612  0.4355
15113TIP3   OH266829   6.670   6.019  13.861 -0.3901 -0.1177  0.6484
15113TIP3    H166830   6.592   6.025  13.807 -0.0102 -1.2743 -0.0360
15113TIP3    H266831   6.655   5.944  13.918 -0.4511  0.6199  1.6527
15114TIP3   OH266832   1.530   1.993   3.981 -0.1249  0.1027 -0.2745
15114TIP3    H166833   1.456   1.958   3.931  1.6265 -0.4107 -2.6781
15114TIP3    H266834   1.513   2.088   3.985 -1.8822 -0.2095  1.0400
15115TIP3   OH266835   3.047   5.600  16.432  0.3793  0.1341  0.3573
15115TIP3    H166836   3.071   5.661  16.502  0.7804 -1.2533  1.4818
15115TIP3    H266837   2.959   5.626  16.406 -0.2651 -0.0314  2.2207
15116TIP3   OH266838   5.753   4.194  16.547 -0.0393 -0.0819 -0.1980
15116TIP3    H166839   5.667   4.164  16.516 -0.7284  0.8645  0.7386
15116TIP3    H266840   5.787   4.119  16.597 -1.3762  0.3319  1.4180
15117TIP3   OH266841   2.975   2.960   2.335 -0.5129  0.1874  0.3872
15117TIP3    H166842   2.887   2.925   2.353 -1.1215  0.7375 -1.3228
15117TIP3    H266843   2.979   2.967   2.240  1.7647 -0.7158  0.3462
15118TIP3   OH266844   5.217   0.573  12.956  0.0499  0.2133 -0.1499
15118TIP3    H166845   5.123   0.572  12.938  0.4103 -1.3326 -2.3275
15118TIP3    H266846   5.237   0.483  12.982  0.8588  0.6540  0.7963
15119TIP3   OH266847   6.657   1.916  13.297 -0.3983 -0.3898  0.4853
15119TIP3    H166848   6.733   1.952  13.344 -0.2840 -1.4390  1.1314
15119TIP3    H266849   6.695   1.853  13.235 -0.6946 -0.3736  0.2828
15120TIP3   OH266850   3.149   4.737  12.907  0.2954 -0.0493  0.0976
15120TIP3    H166851   3.092   4.668  12.940 -1.8504  1.7001  0.3326
15120TIP3    H266852   3.219   4.743  12.972 -1.8267  0.8069  2.4945
15121TIP3   OH266853   2.326   0.432  17.083  0.0429 -0.2290 -0.3767
15121TIP3    H166854   2.408   0.387  17.104  2.0320  3.5012  0.7972
15121TIP3    H266855   2.265   0.405  17.152  0.9458 -1.4418 -0.0172
15122TIP3   OH266856   3.681   4.320   3.011 -0.1169  0.4247  0.5345
15122TIP3    H166857   3.726   4.314   3.095  1.7002 -0.4746 -0.4430
15122TIP3    H266858   3.733   4.383   2.961 -0.9080  0.6034 -0.0695
15123TIP3   OH266859   3.792   6.060  16.392  0.0741 -0.0405 -0.1229
15123TIP3    H166860   3.774   6.151  16.367 -1.1813 -0.5171 -1.0946
15123TIP3    H266861   3.861   6.066  16.457 -0.2916  1.6413  0.1590
15124TIP3   OH266862   2.936   0.277   2.106 -0.2916  0.2619  0.3502
15124TIP3    H166863   2.999   0.218   2.064 -0.5684  0.6606 -0.6563
15124TIP3    H266864   2.978   0.362   2.104 -1.7725  1.0801 -2.6437
15125TIP3   OH266865   2.077   0.637   5.859 -0.0991  0.4527 -0.2853
15125TIP3    H166866   2.138   0.700   5.897  0.3255  0.4953 -1.0169
15125TIP3    H266867   2.011   0.623   5.927  1.2934 -0.4132  0.9550
15126TIP3   OH266868   2.548   6.452  11.566  0.5488 -0.0861 -0.3241
15126TIP3    H166869   2.606   6.378  11.548 -0.2977 -0.3945 -2.0433
15126TIP3    H266870   2.492   6.422  11.638  1.0067 -0.6593 -0.2006
15127TIP3   OH266871   6.668   1.650   5.005 -0.3756  0.3178  0.0962
15127TIP3    H166872   6.740   1.657   5.068  1.2234 -1.4382 -1.4277
15127TIP3    H266873   6.676   1.728   4.951  1.1232 -0.3617 -0.7289
15128TIP3   OH266874   6.001   6.311   6.584  0.3001  0.4491  0.0371
15128TIP3    H166875   6.017   6.226   6.543  1.5803 -0.2154  1.8012
15128TIP3    H266876   5.912   6.305   6.617 -0.4665  0.7053 -1.8490
15129TIP3   OH266877   3.259   2.008  10.858 -0.0377  0.2124 -0.1245
15129TIP3    H166878   3.232   2.014  10.766 -1.5008 -1.5496  0.1355
15129TIP3    H266879   3.316   1.932  10.862 -0.0221  0.2503  0.4222
15130TIP3   OH266880   4.592   4.204   5.267 -0.2840  0.2832  0.3402
15130TIP3    H166881   4.579   4.221   5.174 -1.1241 -0.5270  0.2880
15130TIP3    H266882   4.515   4.243   5.309 -1.4564 -1.9070  0.3628
15131TIP3   OH266883   0.425   3.330  11.406  0.2506 -0.0158  0.7117
15131TIP3    H166884   0.469   3.258  11.359  0.2997  0.0814  0.6083
15131TIP3    H266885   0.438   3.406  11.349  2.3898  0.6634  1.9763
15132TIP3   OH266886   5.403   0.378  17.128  0.2665  0.0666 -0.2370
15132TIP3    H166887   5.436   0.350  17.043  0.8908  2.4721 -0.8509
15132TIP3    H266888   5.315   0.341  17.133  0.7058 -1.1886 -1.3401
15133TIP3   OH266889   5.170   3.504   4.820 -0.0690 -0.1950  0.2559
15133TIP3    H166890   5.216   3.524   4.902 -0.1731  2.7993 -0.3063
15133TIP3    H266891   5.080   3.486   4.848 -0.1329  0.9093  0.8440
15134TIP3   OH266892   2.374   0.657  12.079 -0.0945  0.0833  0.0614
15134TIP3    H166893   2.390   0.752  12.084  2.5135 -0.3293  0.8815
15134TIP3    H266894   2.378   0.637  11.986  0.2428  0.6603 -0.0537
15135TIP3   OH266895   5.133   1.204  11.306 -0.1171  0.1067 -0.4099
15135TIP3    H166896   5.199   1.271  11.289 -1.5185  1.8063  0.3885
15135TIP3    H266897   5.058   1.254  11.341 -1.4820 -1.8212 -0.4431
15136TIP3   OH266898   3.238   5.244  14.820  0.1530  1.0786  0.5190
15136TIP3    H166899   3.193   5.315  14.775  0.3339  1.4784  0.9573
15136TIP3    H266900   3.188   5.232  14.901 -0.2450  0.2812  0.1738
15137TIP3   OH266901   6.732   4.878  10.658 -0.4489  0.1716 -0.2013
15137TIP3    H166902   6.805   4.929  10.694 -0.2919  0.3739 -0.8012
15137TIP3    H266903   6.773   4.798  10.623 -0.5051  0.3014 -0.5698
15138TIP3   OH266904   1.061   4.058   2.193 -0.5341 -0.0339 -0.2868
15138TIP3    H166905   1.010   4.119   2.139 -0.6145 -0.5914 -0.8400
15138TIP3    H266906   1.052   4.093   2.282 -1.3935  0.2138 -0.4597
15139TIP3   OH266907   5.540   4.493   0.184 -0.8181  0.2170  0.7932
15139TIP3    H166908   5.491   4.430   0.237 -1.0745  0.5199  0.9201
15139TIP3    H266909   5.593   4.439   0.126 -0.7273 -0.1154  1.1836
15140TIP3   OH266910   0.585   0.805  12.144 -0.2510  0.2094 -0.3010
15140TIP3    H166911   0.504   0.763  12.113  0.9771 -2.3105 -0.3433
15140TIP3    H266912   0.590   0.781  12.236  1.1287 -0.9032 -0.6364
15141TIP3   OH266913   6.613   4.471   5.801  0.0417  0.0202  0.9809
15141TIP3    H166914   6.544   4.466   5.735 -0.5360 -1.1191  1.6414
15141TIP3    H266915   6.680   4.410   5.771  1.3831  1.9721 -0.2766
15142TIP3   OH266916   6.652   2.705   3.363 -0.4861  0.0114 -0.3079
15142TIP3    H166917   6.659   2.746   3.277  0.7619 -0.6536 -0.5386
15142TIP3    H266918   6.676   2.774   3.425  1.2826 -0.2413 -0.6732
15143TIP3   OH266919   6.228   6.282   5.325 -0.3724 -0.4033 -0.3796
15143TIP3    H166920   6.284   6.242   5.392  1.9221  3.0855  0.0800
15143TIP3    H266921   6.260   6.246   5.242  0.7406 -0.5361  0.0909
15144TIP3   OH266922   3.830   2.935  13.760  0.2787  0.1932 -0.3521
15144TIP3    H166923   3.823   3.008  13.699  0.0917 -1.0872 -1.9451
15144TIP3    H266924   3.910   2.952  13.810  1.3925  0.4328 -2.1538
15145TIP3   OH266925   4.592   6.104   4.215  0.7030  0.3130  0.2111
15145TIP3    H166926   4.601   6.197   4.194 -1.5609  0.7064  0.7569
15145TIP3    H266927   4.618   6.099   4.307  0.1969  0.5509  0.3745
15146TIP3   OH266928   2.892   6.567   5.509 -0.0451 -0.0145 -0.6341
15146TIP3    H166929   2.963   6.561   5.445  1.3223 -0.2955  0.8471
15146TIP3    H266930   2.904   6.652   5.551 -0.6274 -0.0364 -0.4109
15147TIP3   OH266931   5.869   6.611  13.027 -0.2867  0.5359 -0.8481
15147TIP3    H166932   5.796   6.665  12.996 -2.0053 -1.9235 -1.3641
15147TIP3    H266933   5.861   6.613  13.123 -1.1829  0.1498 -0.9030
15148TIP3   OH266934   3.764   1.747   0.575  0.2423 -0.0623 -0.3297
15148TIP3    H166935   3.678   1.782   0.598 -0.0546  0.7227 -2.4370
15148TIP3    H266936   3.821   1.824   0.574  0.8382 -0.4848  0.4235
15149TIP3   OH266937   1.709   5.690   1.548 -0.0307 -0.1943 -0.3878
15149TIP3    H166938   1.730   5.783   1.555  0.7135 -0.3696 -0.2716
15149TIP3    H266939   1.705   5.659   1.638 -2.5507  0.1921 -0.2688
15150TIP3   OH266940   6.179   4.917  12.317 -0.9868  0.4155  0.0680
15150TIP3    H166941   6.120   4.941  12.245 -1.0516 -1.3734 -0.5185
15150TIP3    H266942   6.266   4.934  12.282 -0.9114 -2.0396 -1.1661
15151TIP3   OH266943   5.349   3.163   5.939  0.0001 -0.0018  0.6631
15151TIP3    H166944   5.273   3.221   5.942 -0.8102 -0.7455 -1.9624
15151TIP3    H266945   5.393   3.187   5.857  2.7358  0.4930  2.1928
15152TIP3   OH266946   3.883   4.355   0.005  0.0846 -0.4887  0.0553
15152TIP3    H166947   3.936   4.277   0.022 -1.2431 -1.1078  1.5241
15152TIP3    H266948   3.917   4.388  -0.078  2.1277 -1.3878  0.4639
15153TIP3   OH266949   6.353   5.285   0.091 -0.4383  0.1534  0.0154
15153TIP3    H166950   6.319   5.358   0.040  0.2568 -0.0400 -0.7479
15153TIP3    H266951   6.443   5.274   0.060  1.1328  1.9626  3.3527
15154TIP3   OH266952   3.508   5.674  14.809 -0.4694  0.2821  0.0727
15154TIP3    H166953   3.478   5.613  14.877 -1.0280  0.3345 -0.1161
15154TIP3    H266954   3.427   5.713  14.776 -0.1072  1.1913  0.2511
15155TIP3   OH266955   4.732   4.819   0.580  0.3444 -0.7085  0.2902
15155TIP3    H166956   4.771   4.800   0.665  1.8662  0.5232 -0.1007
15155TIP3    H266957   4.798   4.870   0.533 -0.6484 -0.9375 -1.4618
15156TIP3   OH266958   4.814   1.584   1.995  0.1604 -1.0105 -0.3759
15156TIP3    H166959   4.902   1.564   2.024  0.7148 -2.2701 -2.6463
15156TIP3    H266960   4.810   1.549   1.906 -1.9862  0.7819 -1.0781
15157TIP3   OH266961   3.421   3.125   4.192 -0.4846 -0.7401  0.5533
15157TIP3    H166962   3.490   3.061   4.208 -0.7520 -0.9445  0.9203
15157TIP3    H266963   3.465   3.210   4.194 -0.2182 -0.8804  0.6229
15158TIP3   OH266964   3.563   3.987  11.953  0.1120 -0.9403  0.4399
15158TIP3    H166965   3.639   3.963  12.006  0.6777 -0.4271 -0.1180
15158TIP3    H266966   3.587   3.962  11.864  0.4276  0.9323 -0.0469
15159TIP3   OH266967   0.429   3.282  16.738 -0.3109 -0.2717  0.1837
15159TIP3    H166968   0.437   3.241  16.652 -1.4661  1.3028 -0.7087
15159TIP3    H266969   0.337   3.269  16.762 -0.5833  1.3177  0.0961
15160TIP3   OH266970   3.659   5.957   4.228  0.1758  0.5152 -0.0173
15160TIP3    H166971   3.745   5.915   4.222  0.5018  1.1917 -0.1183
15160TIP3    H266972   3.677   6.050   4.220 -0.4046  0.7832  1.3868
15161TIP3   OH266973   4.347   3.752   6.106  0.0076  0.5869 -0.1079
15161TIP3    H166974   4.269   3.801   6.080  0.8645  2.2671  0.3568
15161TIP3    H266975   4.408   3.763   6.034 -0.2685 -1.0474 -0.6421
15162TIP3   OH266976   3.958   3.244  11.581  0.4077 -0.2415  0.3210
15162TIP3    H166977   3.982   3.198  11.501  2.6967 -4.1665  2.9136
15162TIP3    H266978   3.863   3.238  11.584  0.3076 -0.5479 -1.7598
15163TIP3   OH266979   4.856   1.222  11.538  0.2962  0.3535  0.4553
15163TIP3    H166980   4.857   1.268  11.453 -0.4378  0.9878  0.7802
15163TIP3    H266981   4.812   1.283  11.597  0.4851 -0.2398  1.2141
15164TIP3   OH266982   1.678   4.316  15.834  0.2832  0.4937  0.0718
15164TIP3    H166983   1.648   4.238  15.881  5.2083 -1.6157  0.3794
15164TIP3    H266984   1.687   4.288  15.743  0.4725  1.2676 -0.1609
15165TIP3   OH266985   1.029   4.902   5.961  0.4898 -0.2876 -0.3767
15165TIP3    H166986   1.073   4.915   6.046 -0.8599  0.1154  0.2932
15165TIP3    H266987   1.033   4.988   5.919 -1.7099  0.4260  0.7358
15166TIP3   OH266988   1.000   4.107   1.366  0.4413  0.2396  0.6805
15166TIP3    H166989   1.062   4.176   1.390  0.2606  0.7344 -0.2481
15166TIP3    H266990   1.008   4.099   1.271  0.4363 -1.0030  0.7756
15167TIP3   OH266991   4.787   4.485   0.443 -0.1616 -0.1934 -0.4759
15167TIP3    H166992   4.792   4.457   0.534  0.8917 -0.2960 -0.5503
15167TIP3    H266993   4.701   4.525   0.434  0.9870  3.1120  1.5137
15168TIP3   OH266994   5.921   0.640  13.195 -0.2439 -0.0209  0.2109
15168TIP3    H166995   5.991   0.631  13.130 -0.7861 -0.2975 -0.3487
15168TIP3    H266996   5.948   0.585  13.268 -0.0432 -0.4088 -0.1513
15169TIP3   OH266997   0.134   5.415   4.716  0.4402  0.2517 -0.4652
15169TIP3    H166998   0.189   5.382   4.787  0.0833  0.6681  0.0122
15169TIP3    H266999   0.128   5.510   4.733  0.5003  0.3787 -1.1484
15170TIP3   OH267000   6.506   6.525  12.048  0.2868  0.0561 -0.9117
15170TIP3    H167001   6.436   6.588  12.028 -2.0802 -1.7299  1.1440
15170TIP3    H267002   6.461   6.442  12.063  2.6577 -0.9091  1.9248
15171TIP3   OH267003   1.834   0.327   0.409  0.2084  0.1077  0.1250
15171TIP3    H167004   1.866   0.346   0.497  0.9419 -1.0149  0.1272
15171TIP3    H267005   1.870   0.240   0.389 -0.6625 -0.0306 -0.9387
15172TIP3   OH267006   5.604   2.195  14.109  0.2933  0.4497 -0.0100
15172TIP3    H167007   5.668   2.206  14.039  1.3965  0.6698  0.9982
15172TIP3    H267008   5.563   2.110  14.092  1.4558 -0.0859 -0.2147
15173TIP3   OH267009   0.805   4.468  14.768  0.7525  0.2757 -0.1951
15173TIP3    H167010   0.739   4.505  14.826  1.2138 -1.2376  1.3902
15173TIP3    H267011   0.795   4.515  14.686  0.2741  2.7441  1.1965
15174TIP3   OH267012   1.452   4.615  11.908 -0.1776 -0.3402 -0.1992
15174TIP3    H167013   1.423   4.706  11.908  2.2873  0.5311  0.4977
15174TIP3    H267014   1.501   4.606  11.826 -0.9247 -1.2234 -0.5515
15175TIP3   OH267015   6.668   4.125   3.161 -0.2930  0.1596 -0.1579
15175TIP3    H167016   6.603   4.055   3.158  1.1026 -1.1689 -1.9565
15175TIP3    H267017   6.655   4.166   3.246 -3.0144 -0.4589 -0.1827
15176TIP3   OH267018   1.522   2.074   5.585  0.0967 -0.2525  0.4965
15176TIP3    H167019   1.600   2.045   5.632 -1.7607 -1.2797  3.1574
15176TIP3    H267020   1.507   2.164   5.615  1.8664  1.1623 -2.3916
15177TIP3   OH267021   3.876   5.628  13.481  0.3811 -0.5156 -0.1989
15177TIP3    H167022   3.810   5.631  13.550  0.2031  0.2379 -0.3967
15177TIP3    H267023   3.833   5.666  13.404  1.2746  0.7272 -0.1167
15178TIP3   OH267024   5.184   2.183   5.187  0.3322 -0.3614  0.3335
15178TIP3    H167025   5.251   2.135   5.237  1.5101  0.8690  0.0149
15178TIP3    H267026   5.203   2.161   5.096 -0.3562 -0.7987  0.2913
15179TIP3   OH267027   3.427   1.742   3.078  0.2344 -0.0005  0.2174
15179TIP3    H167028   3.361   1.709   3.138  1.2167  0.2204  1.4539
15179TIP3    H267029   3.456   1.664   3.030  0.4793 -0.4390  1.0700
15180TIP3   OH267030   4.478   6.021   2.057  0.2354  0.0132  0.0813
15180TIP3    H167031   4.439   6.104   2.031 -0.0401  0.2452  1.1741
15180TIP3    H267032   4.423   5.991   2.130  0.5893 -0.9135 -0.0205
15181TIP3   OH267033   0.547   6.674  13.044 -0.1752 -0.9499  0.1224
15181TIP3    H167034   0.509   6.632  13.121 -2.5005  0.1377 -0.3537
15181TIP3    H267035   0.498   6.755  13.034  0.9562 -0.4360 -1.7569
15182TIP3   OH267036   6.370   3.738   5.223 -0.0299  0.1703  0.4508
15182TIP3    H167037   6.290   3.762   5.270 -0.7965 -2.2778  0.5428
15182TIP3    H267038   6.365   3.642   5.214  2.4229  0.0457 -0.4082
15183TIP3   OH267039   2.478   2.195  11.983  0.1843 -0.2230 -0.1507
15183TIP3    H167040   2.425   2.232  12.054 -0.7461  0.6814 -1.2774
15183TIP3    H267041   2.521   2.120  12.023 -2.3721 -1.3553  0.7079
15184TIP3   OH267042   4.171   5.992  14.539 -0.6461  0.1687 -0.1722
15184TIP3    H167043   4.162   6.007  14.633 -1.6124 -1.0068 -0.0690
15184TIP3    H267044   4.255   5.947  14.529 -1.0628 -0.7096  0.2497
15185TIP3   OH267045   3.941   4.672  16.318  0.8799 -0.8751  0.2258
15185TIP3    H167046   3.946   4.723  16.399  4.0849 -1.8286  0.7763
15185TIP3    H267047   3.960   4.735  16.249 -2.3642  0.0581 -0.0100
15186TIP3   OH267048   1.115   0.416  12.331  0.2365 -0.7124 -0.2325
15186TIP3    H167049   1.099   0.419  12.236  0.4032 -3.3968 -0.4061
15186TIP3    H267050   1.204   0.452  12.341  0.8134 -1.7613 -1.2973
15187TIP3   OH267051   5.219   2.703   1.389  0.3432 -0.3742 -0.1443
15187TIP3    H167052   5.218   2.623   1.337 -2.4617  0.6961 -1.9729
15187TIP3    H267053   5.163   2.683   1.465 -0.7655 -0.0836 -0.8508
15188TIP3   OH267054   6.280   3.573  12.387  0.0825 -0.7798  0.7179
15188TIP3    H167055   6.232   3.634  12.443  0.2632 -0.7892  0.8858
15188TIP3    H267056   6.292   3.495  12.442 -1.1447 -1.4180  0.1280
15189TIP3   OH267057   4.054   1.341  10.894 -0.7930 -0.0827 -0.6484
15189TIP3    H167058   4.080   1.425  10.931  2.1621 -0.9260 -0.5192
15189TIP3    H267059   4.026   1.362  10.805 -1.1530  1.1556 -0.2623
15190TIP3   OH267060   2.664   3.737  14.629 -0.1567  0.1499 -0.5755
15190TIP3    H167061   2.695   3.818  14.588 -2.6866  1.1171 -0.7653
15190TIP3    H267062   2.633   3.764  14.715 -3.0574 -0.0825 -1.4382
15191TIP3   OH267063   2.736   1.211  14.942  0.0843  0.1921 -0.3308
15191TIP3    H167064   2.761   1.121  14.963  1.4512  0.6494  0.1999
15191TIP3    H267065   2.693   1.206  14.857  0.1208 -0.9613 -0.2943
15192TIP3   OH267066   2.858   3.743  15.784  0.6771 -0.3074 -0.2586
15192TIP3    H167067   2.902   3.698  15.712  1.0499 -1.3106  0.5740
15192TIP3    H267068   2.930   3.772  15.840  0.4198  0.9859 -0.5673
15193TIP3   OH267069   4.399   6.321   2.734  0.0831  0.0221 -0.5143
15193TIP3    H167070   4.490   6.351   2.726 -0.2017  1.0972  0.1633
15193TIP3    H267071   4.347   6.398   2.713 -0.7239 -1.0227 -2.6965
15194TIP3   OH267072   5.665   1.188  13.994  0.3425 -0.4474 -0.2880
15194TIP3    H167073   5.584   1.219  13.953 -1.6101 -1.8712  2.2108
15194TIP3    H267074   5.719   1.157  13.921 -1.6425 -0.0914 -1.9895
15195TIP3   OH267075   6.139   3.906  11.704  0.3157 -0.0161  0.3374
15195TIP3    H167076   6.080   3.860  11.644  0.0575  0.3876  0.2803
15195TIP3    H267077   6.227   3.890  11.668  0.1706  0.1518 -0.0975
15196TIP3   OH267078   4.086   5.570   4.330 -0.1243  0.3052  0.3932
15196TIP3    H167079   4.036   5.576   4.411 -0.1637  1.0709  0.3233
15196TIP3    H267080   4.178   5.577   4.357 -0.0065 -1.4551  0.5571
15197TIP3   OH267081   5.835   0.827  12.604 -0.2026 -0.1650  0.0045
15197TIP3    H167082   5.877   0.744  12.625  0.1384 -0.1597 -0.6508
15197TIP3    H267083   5.829   0.828  12.509  0.0641  0.6919 -0.0123
15198TIP3   OH267084   3.102   0.421   0.744 -0.3993  0.2866  0.1029
15198TIP3    H167085   3.119   0.471   0.664 -2.1539 -1.2750 -1.3300
15198TIP3    H267086   3.106   0.330   0.716  0.5795 -0.3725  2.1910
15199TIP3   OH267087   0.970   2.994  11.161 -0.4176 -0.0014  0.1112
15199TIP3    H167088   0.963   3.016  11.068  0.8042 -0.6089 -0.1425
15199TIP3    H267089   0.980   3.078  11.205  1.7317  0.1695 -0.5982
15200TIP3   OH267090   1.723   5.623   6.348  0.6553 -0.2889  0.2683
15200TIP3    H167091   1.665   5.549   6.364  0.6397 -0.3480 -0.0507
15200TIP3    H267092   1.791   5.588   6.290 -0.2069  0.3102 -1.1815
15201TIP3   OH267093   4.234   5.940   2.204  0.0199  0.0975 -0.3529
15201TIP3    H167094   4.202   5.869   2.260 -1.5356 -2.2312 -3.8439
15201TIP3    H267095   4.158   5.997   2.193  0.6774  1.2447  0.7776
15202TIP3   OH267096   6.121   0.976  13.896  0.1428  0.0499  0.2677
15202TIP3    H167097   6.149   1.066  13.913 -0.9567  0.1907  1.4956
15202TIP3    H267098   6.026   0.982  13.883  0.3769 -0.5949 -2.4340
15203TIP3   OH267099   3.905   2.582   5.255 -0.3254  0.0799  0.0893
15203TIP3    H167100   3.829   2.589   5.314  0.0996 -0.3581  0.7002
15203TIP3    H267101   3.876   2.520   5.188 -1.2599  1.5194 -0.8946
15204TIP3   OH267102   1.764   2.735  11.004  0.0196  0.2076 -0.5280
15204TIP3    H167103   1.718   2.779  10.933 -1.8226 -1.0002 -0.1672
15204TIP3    H267104   1.701   2.734  11.076  0.9667 -0.6765  0.3273
15205TIP3   OH267105   5.580   0.759  12.710 -0.2598 -0.3204  0.0365
15205TIP3    H167106   5.668   0.789  12.688 -0.6087  0.3994 -0.4042
15205TIP3    H267107   5.559   0.802  12.793 -0.6771  0.5193 -0.4890
15206TIP3   OH267108   3.243   6.697  14.681 -0.4591 -0.2709  0.0650
15206TIP3    H167109   3.257   6.696  14.776 -0.4728  0.8380  0.1016
15206TIP3    H267110   3.150   6.716  14.671 -0.7855 -1.9257 -0.1799
15207TIP3   OH267111   0.371   3.566   4.994  0.2192 -0.4750  0.5631
15207TIP3    H167112   0.325   3.502   5.049  2.6035 -1.0112  2.0637
15207TIP3    H267113   0.464   3.552   5.014  0.9940  1.3145 -1.4849
15208TIP3   OH267114   1.326   4.551  12.524 -0.3173 -0.5345 -0.2311
15208TIP3    H167115   1.394   4.491  12.492  1.0887  0.3612  0.9436
15208TIP3    H267116   1.325   4.622  12.461  0.1336 -0.3597 -0.0482
15209TIP3   OH267117   6.499   0.879  15.133 -0.2874 -0.2707  0.1913
15209TIP3    H167118   6.540   0.943  15.075 -1.5661  0.1435 -0.3030
15209TIP3    H267119   6.536   0.795  15.106  0.3879  0.1070 -0.0788
15210TIP3   OH267120   3.551   2.238  15.222 -0.3414  0.1251  0.0829
15210TIP3    H167121   3.499   2.283  15.289  0.1906 -1.1028  1.3669
15210TIP3    H267122   3.506   2.155  15.208 -0.2033  0.1836 -0.8079
15211TIP3   OH267123   1.526   3.455   5.869  0.2880  0.4809 -0.0818
15211TIP3    H167124   1.518   3.456   5.964  0.6064  3.2549  0.0129
15211TIP3    H267125   1.619   3.439   5.852  0.3426  0.6027  0.1038
15212TIP3   OH267126   1.374   2.205  14.190 -0.6024 -0.2675  0.1123
15212TIP3    H167127   1.457   2.185  14.146 -0.3795 -0.5731  0.6577
15212TIP3    H267128   1.356   2.127  14.242  0.1958  0.8577  2.1699
15213TIP3   OH267129   0.796   6.622  14.968  0.2368  0.2309  0.3120
15213TIP3    H167130   0.717   6.651  14.922 -0.3106  1.2465  1.7848
15213TIP3    H267131   0.867   6.672  14.928 -0.0579  0.2919 -0.1401
15214TIP3   OH267132   1.428   5.744  16.347 -0.7379 -0.1665  0.4521
15214TIP3    H167133   1.358   5.768  16.287  0.2715 -0.2664 -0.8168
15214TIP3    H267134   1.432   5.648  16.342  1.1033 -0.0665 -1.4803
15215TIP3   OH267135   6.171   2.636   4.088 -0.2733 -0.4519 -0.1006
15215TIP3    H167136   6.175   2.721   4.044 -0.2609 -0.4170 -0.0323
15215TIP3    H267137   6.258   2.599   4.077 -0.4714 -0.7515 -0.7169
15216TIP3   OH267138   0.504   5.816  16.621  0.5773 -0.2517  0.5154
15216TIP3    H167139   0.570   5.806  16.552  1.2163  0.8699  0.9371
15216TIP3    H267140   0.509   5.734  16.671 -0.1247 -1.2165 -0.9390
15217TIP3   OH267141   1.904   4.801   4.513  0.4267 -0.1013  0.1450
15217TIP3    H167142   1.924   4.732   4.449 -2.6756 -0.5894 -0.4876
15217TIP3    H267143   1.956   4.876   4.484 -0.3131 -0.5329 -2.5985
15218TIP3   OH267144   0.313   6.702   2.649  0.0809 -0.1670  0.3643
15218TIP3    H167145   0.380   6.636   2.668 -0.3152 -0.8859 -0.6315
15218TIP3    H267146   0.349   6.783   2.685  1.9340 -0.3303 -0.9386
15219TIP3   OH267147   2.452   4.779  14.123 -0.4848 -0.3290 -0.3921
15219TIP3    H167148   2.446   4.690  14.088  1.0127 -0.2165 -1.0083
15219TIP3    H267149   2.388   4.829  14.073  1.3935 -0.2308 -2.8890
15220TIP3   OH267150   0.467   3.486  16.130 -0.1668  0.6148  0.0351
15220TIP3    H167151   0.426   3.447  16.053 -0.0931 -1.2329  0.8789
15220TIP3    H267152   0.396   3.496  16.193  0.1958 -0.1792  0.5846
15221TIP3   OH267153   4.120   3.520   4.085 -0.0524  0.4561 -0.1191
15221TIP3    H167154   4.098   3.551   4.173  0.3182  1.9741 -0.5280
15221TIP3    H267155   4.090   3.429   4.083  1.2102 -0.0753  2.0436
15222TIP3   OH267156   2.208   6.501   4.651 -0.0026  0.0341 -0.4132
15222TIP3    H167157   2.240   6.526   4.737 -0.3139  1.3074 -0.6369
15222TIP3    H267158   2.139   6.437   4.667  0.0101  0.1944  0.2758
15223TIP3   OH267159   5.755   3.082   1.179  0.3819  0.3050  0.5960
15223TIP3    H167160   5.831   3.090   1.237  0.5898 -0.1307  0.3937
15223TIP3    H267161   5.689   3.036   1.232  0.3148  0.5497  0.7234
15224TIP3   OH267162   4.853   0.983  16.824  0.0478 -0.4273 -0.4433
15224TIP3    H167163   4.785   1.048  16.807  0.2121 -0.4216 -1.1194
15224TIP3    H267164   4.850   0.925  16.747  0.5191 -0.6755 -0.2779
15225TIP3   OH267165   2.632   0.271  12.624 -0.3786  0.1998 -0.1003
15225TIP3    H167166   2.685   0.324  12.683 -2.1518  0.3894  1.4100
15225TIP3    H267167   2.550   0.319  12.615 -1.3155 -1.3477 -0.2139
15226TIP3   OH267168   2.993   2.953  10.741  0.0703 -0.3123 -0.2089
15226TIP3    H167169   2.898   2.964  10.730 -0.0446 -0.5096  0.5312
15226TIP3    H267170   3.031   3.002  10.669 -0.6023 -0.3016 -0.5639
15227TIP3   OH267171   0.536   5.326   6.336 -0.1063  0.3094  0.2487
15227TIP3    H167172   0.517   5.418   6.316 -1.1330  0.0118 -0.2318
15227TIP3    H267173   0.496   5.278   6.264  2.3263 -0.4231 -0.7260
15228TIP3   OH267174   5.205   6.201  15.409 -0.6960  0.5047 -0.0742
15228TIP3    H167175   5.281   6.159  15.449 -0.1531  0.2644 -1.3305
15228TIP3    H267176   5.233   6.291  15.394 -0.6492  0.4046 -0.5780
15229TIP3   OH267177   5.130   1.993   4.271  0.5912  0.3732 -0.6010
15229TIP3    H167178   5.134   2.088   4.261  1.4103  0.3018 -1.0233
15229TIP3    H267179   5.173   1.976   4.355  1.7299  0.2773 -1.1832
15230TIP3   OH267180   1.462   5.867   1.481 -0.2081  0.2257 -0.1794
15230TIP3    H167181   1.408   5.896   1.408  0.4222  0.4869 -0.5537
15230TIP3    H267182   1.552   5.874   1.448  0.0100 -3.1074 -0.7144
15231TIP3   OH267183   4.456   1.387   2.145 -0.1961 -0.4537  0.2963
15231TIP3    H167184   4.380   1.381   2.086  0.9446  1.4402 -1.4981
15231TIP3    H267185   4.524   1.335   2.101  0.2653 -0.1435  0.6344
15232TIP3   OH267186   4.104   1.790  13.372 -0.4361  0.2031 -0.6109
15232TIP3    H167187   4.046   1.815  13.300 -1.3359 -0.4483 -0.1295
15232TIP3    H267188   4.074   1.703  13.399  0.1919  0.2295  0.2446
15233TIP3   OH267189   4.742   3.597   6.007 -0.2962  0.5019 -0.0467
15233TIP3    H167190   4.765   3.545   6.084 -1.6694 -1.0994 -0.6427
15233TIP3    H267191   4.697   3.535   5.949 -0.1904  1.8958 -1.7056
15234TIP3   OH267192   6.237   0.730  13.431 -0.0701  0.3087 -0.0531
15234TIP3    H167193   6.196   0.675  13.364 -1.1063  2.0520 -0.9255
15234TIP3    H267194   6.174   0.731  13.503  0.4842 -0.5644  0.4607
15235TIP3   OH267195   0.387   3.832   6.304 -0.0393  0.1218  0.2896
15235TIP3    H167196   0.480   3.813   6.318  0.2525  0.4774 -1.0212
15235TIP3    H267197   0.376   3.833   6.209 -1.5179 -0.4922  0.4236
15236TIP3   OH267198   2.297   4.934   5.176 -0.3390 -0.2194 -0.4634
15236TIP3    H167199   2.367   4.943   5.241 -0.5338  2.2276 -0.5129
15236TIP3    H267200   2.217   4.930   5.228 -0.4228  0.7134 -0.5200
15237TIP3   OH267201   4.766   0.242  14.446  0.4590  0.6278  0.3479
15237TIP3    H167202   4.764   0.216  14.538  1.5144 -0.8377 -0.0017
15237TIP3    H267203   4.851   0.284  14.435  1.8416 -2.1768 -0.6276
15238TIP3   OH267204   3.989   3.725  14.379 -0.0881 -0.8105 -0.0297
15238TIP3    H167205   3.947   3.678  14.307  0.0894 -0.2399 -0.5227
15238TIP3    H267206   4.082   3.701  14.372  0.0517 -0.1699 -0.4691
15239TIP3   OH267207   1.082   3.799   1.040  0.3639  0.0849 -0.4671
15239TIP3    H167208   0.999   3.752   1.053  0.1993  0.3198 -0.6577
15239TIP3    H267209   1.119   3.761   0.961  0.6216 -0.2779 -0.1775
15240TIP3   OH267210   0.018   1.743  11.787  0.0788 -0.3923  0.0499
15240TIP3    H167211   0.058   1.815  11.835  0.1593 -1.4774  1.7098
15240TIP3    H267212   0.064   1.665  11.819  1.3437 -1.0885 -3.0841
15241TIP3   OH267213   2.576   5.490   0.017  0.0391 -0.4981 -0.1108
15241TIP3    H167214   2.536   5.412   0.057 -0.2059 -1.2017 -1.6637
15241TIP3    H267215   2.507   5.527  -0.038 -0.3321  1.7050  1.7084
15242TIP3   OH267216   2.186   5.052   2.022 -0.4830 -0.6775 -0.3282
15242TIP3    H167217   2.266   5.088   1.984  0.2032 -0.4762  1.2274
15242TIP3    H267218   2.118   5.115   2.000 -0.0558 -0.4247 -0.9565
15243TIP3   OH267219   5.537   3.200   1.436 -0.0063  0.3245  0.0991
15243TIP3    H167220   5.632   3.207   1.440 -0.0245  0.0209  2.2806
15243TIP3    H267221   5.520   3.106   1.424 -0.0410  0.4839 -1.1933
15244TIP3   OH267222   2.244   4.027   5.629 -0.2464 -0.0488 -1.5451
15244TIP3    H167223   2.273   4.098   5.685  0.3626 -1.3811 -0.0852
15244TIP3    H267224   2.161   4.058   5.593 -0.7810  0.8052  0.2732
15245TIP3   OH267225   6.361   4.404  15.992  0.0365  0.3150 -0.0024
15245TIP3    H167226   6.351   4.309  15.981 -1.5097  0.4375  0.1965
15245TIP3    H267227   6.383   4.436  15.905  0.4398 -0.2026 -0.0982
15246TIP3   OH267228   1.151   3.645   1.544 -0.9022  0.1197 -0.0174
15246TIP3    H167229   1.106   3.562   1.526  0.8550 -0.5185 -1.7535
15246TIP3    H267230   1.094   3.689   1.608 -2.1474 -2.1784  0.5886
15247TIP3   OH267231   6.590   3.752   0.918 -0.0750  0.3269  0.2516
15247TIP3    H167232   6.562   3.825   0.973 -0.3037 -0.4019  1.1287
15247TIP3    H267233   6.551   3.675   0.959 -1.2326 -0.1336 -1.5906
15248TIP3   OH267234   3.000   0.611  13.129 -0.2361  0.4090  0.0584
15248TIP3    H167235   3.055   0.634  13.204 -0.4923  0.6842  0.1622
15248TIP3    H267236   2.911   0.629  13.157 -0.2957  1.0412 -0.4971
15249TIP3   OH267237   6.045   4.023  14.572  0.3236  0.2217  0.0883
15249TIP3    H167238   6.055   3.969  14.493  1.0197 -1.4658  1.2610
15249TIP3    H267239   5.951   4.018  14.592  0.3627 -0.5154  0.1313
15250TIP3   OH267240   5.616   0.548   0.269 -0.6795  0.2299  0.0774
15250TIP3    H167241   5.707   0.576   0.267 -0.3461 -0.8230  0.2876
15250TIP3    H267242   5.587   0.552   0.178  0.1434 -1.2180 -0.2792
15251TIP3   OH267243   1.916   6.105   1.287 -0.4740 -0.4274 -0.2707
15251TIP3    H167244   1.959   6.184   1.319 -0.3983 -0.9044  0.8374
15251TIP3    H267245   1.837   6.137   1.243  0.1713  0.3407 -0.8992
15252TIP3   OH267246   6.147   4.296  15.112 -0.2718  0.4195 -0.1856
15252TIP3    H167247   6.148   4.235  15.185  0.8447  0.1243 -0.4267
15252TIP3    H267248   6.114   4.378  15.150  2.6590  1.0423  1.3342
15253TIP3   OH267249   0.911   0.026   2.904 -0.0668  0.4070 -0.3029
15253TIP3    H167250   0.893   0.108   2.858 -1.9465  1.3211  1.8462
15253TIP3    H267251   0.994   0.042   2.950  0.3055  0.5536 -1.0178
15254TIP3   OH267252   6.042   1.593  14.374  0.1578 -0.1057 -0.5749
15254TIP3    H167253   5.964   1.592  14.318  0.5802 -2.4120 -1.2463
15254TIP3    H267254   6.113   1.567  14.316  1.3442  1.3523  0.1793
15255TIP3   OH267255   0.364   1.136   1.997  0.0918 -0.4947 -0.0833
15255TIP3    H167256   0.296   1.070   2.012 -0.2948  0.0096  0.4023
15255TIP3    H267257   0.323   1.200   1.940  0.3824 -0.5305 -0.3337
15256TIP3   OH267258   6.165   2.251  13.763  0.2766 -0.0132  0.9327
15256TIP3    H167259   6.086   2.199  13.750  1.3760 -1.4465 -0.2746
15256TIP3    H267260   6.175   2.302  13.682  0.1275  0.8314  1.4311
15257TIP3   OH267261   0.261   1.534  12.393  0.6805 -0.5285  0.2876
15257TIP3    H167262   0.238   1.456  12.444  0.5273 -1.1519 -0.7269
15257TIP3    H267263   0.318   1.502  12.323  3.2117  0.6856  1.6181
15258TIP3   OH267264   1.064   0.149  11.551  0.6490 -0.6427 -0.2799
15258TIP3    H167265   0.999   0.079  11.556 -0.1084  0.1039  1.0014
15258TIP3    H267266   1.029   0.209  11.486  1.3692 -1.4969 -1.4823
15259TIP3   OH267267   5.095   1.700  10.938 -0.2719  0.0754  0.1993
15259TIP3    H167268   5.122   1.791  10.951 -0.6384  0.0995  0.8317
15259TIP3    H267269   5.003   1.698  10.965 -1.0278  0.0551 -2.1229
15260TIP3   OH267270   6.588   5.292   5.949  0.0061 -0.2298  0.7470
15260TIP3    H167271   6.524   5.231   5.913  0.0143  0.8188 -1.1498
15260TIP3    H267272   6.669   5.241   5.955 -0.2382 -0.6958  0.1648
15261TIP3   OH267273   5.928   4.340   3.089  0.1303 -0.3126  0.0808
15261TIP3    H167274   5.983   4.265   3.065  0.0725 -0.8990  1.6487
15261TIP3    H267275   5.885   4.365   3.008  1.8727 -0.5266 -0.9687
15262TIP3   OH267276   1.626   6.566  16.165  0.0299  0.3253  0.1792
15262TIP3    H167277   1.661   6.639  16.216 -0.2714 -0.2094  1.1755
15262TIP3    H267278   1.559   6.527  16.221 -1.6828  0.8505 -1.3606
15263TIP3   OH267279   2.206   4.628  13.461  0.0636 -0.3511  0.0416
15263TIP3    H167280   2.211   4.532  13.456  1.5637 -0.3022  0.1640
15263TIP3    H267281   2.147   4.645  13.535  1.3324 -1.2097  1.2862
15264TIP3   OH267282   4.938   5.649   3.794 -0.1726  0.7932  0.4355
15264TIP3    H167283   5.003   5.583   3.818  0.0444  0.8504  0.0145
15264TIP3    H267284   4.903   5.618   3.710 -3.2739 -1.1759  2.2710
15265TIP3   OH267285   6.650   4.796  12.597  0.1415 -0.0339  0.0643
15265TIP3    H167286   6.688   4.710  12.612  0.8953  0.5453  1.7509
15265TIP3    H267287   6.722   4.849  12.562  0.3060  0.4716  1.1237
15266TIP3   OH267288   1.284   5.453  11.808 -0.3873  0.0190 -0.5285
15266TIP3    H167289   1.271   5.425  11.717 -1.4533 -0.1127 -0.3417
15266TIP3    H267290   1.277   5.372  11.859  0.4030  0.0624 -0.3378
15267TIP3   OH267291   6.818   2.642  15.038 -0.2763  0.0254  0.1186
15267TIP3    H167292   6.879   2.636  15.112  1.2370 -1.7822 -1.1638
15267TIP3    H267293   6.874   2.657  14.962 -1.6458  0.3005 -0.8730
15268TIP3   OH267294   0.247   0.914  12.420  0.2120  0.1943  0.3335
15268TIP3    H167295   0.222   0.969  12.495  1.2849 -0.8514  1.5237
15268TIP3    H267296   0.177   0.850  12.412  1.0338 -0.9503  1.8015
15269TIP3   OH267297   5.590   5.615   0.499  0.2228  0.7787 -0.2776
15269TIP3    H167298   5.631   5.538   0.538 -1.0216  0.1690 -0.1406
15269TIP3    H267299   5.554   5.585   0.416  0.1883  1.3442 -0.4768
15270TIP3   OH267300   1.135   4.579  15.072 -0.3321 -0.0541  0.0987
15270TIP3    H167301   1.217   4.533  15.089 -0.5341 -0.1984  0.6896
15270TIP3    H267302   1.072   4.511  15.053 -0.2208  0.0801 -0.8149
15271TIP3   OH267303   6.410   2.664   1.751  0.3195 -0.1990 -0.3421
15271TIP3    H167304   6.504   2.665   1.772  0.2014 -3.4101  0.9668
15271TIP3    H267305   6.406   2.646   1.658  0.9458  0.9702 -0.6203
15272TIP3   OH267306   1.291   4.917  15.340 -0.1298  0.5075 -0.1731
15272TIP3    H167307   1.220   4.915  15.405 -0.2719  0.5293 -0.3261
15272TIP3    H267308   1.251   4.880  15.261  0.6477 -1.6260  0.3494
15273TIP3   OH267309   0.447   3.958   4.858 -0.7232 -0.0625  0.2015
15273TIP3    H167310   0.422   3.921   4.773  1.7324  1.7027 -1.4161
15273TIP3    H267311   0.383   4.028   4.874 -0.9039 -0.0749 -0.4420
15274TIP3   OH267312   0.476   0.115  13.641  0.0829 -0.1853  0.2019
15274TIP3    H167313   0.554   0.166  13.621  0.5782 -1.2358 -0.6314
15274TIP3    H267314   0.480   0.102  13.736  0.1405  0.9775  0.3780
15275TIP3   OH267315   2.785   4.589  11.503 -0.0532 -0.3082 -0.0802
15275TIP3    H167316   2.703   4.541  11.513 -1.1514  1.4067 -0.6482
15275TIP3    H267317   2.842   4.528  11.456 -1.1127 -1.3666 -0.0511
15276TIP3   OH267318   0.421   3.021   2.007  0.0645  0.1059  0.1245
15276TIP3    H167319   0.385   2.977   2.084 -4.0389  0.7651 -1.1652
15276TIP3    H267320   0.438   3.111   2.036  0.7044 -0.2189  0.7763
15277TIP3   OH267321   5.711   6.260  16.225 -0.0008 -0.1312 -0.0948
15277TIP3    H167322   5.720   6.343  16.179 -1.8001 -0.7993 -1.7714
15277TIP3    H267323   5.778   6.264  16.294  1.0341  1.9998 -1.1173
15278TIP3   OH267324   3.312   2.031  13.800  0.2459 -0.2511  0.1004
15278TIP3    H167325   3.254   1.968  13.842 -0.9552  0.7244 -0.0423
15278TIP3    H267326   3.257   2.076  13.736  0.9303  1.3123  0.5662
15279TIP3   OH267327   4.870   5.942   3.311  0.9855 -0.2471 -0.6798
15279TIP3    H167328   4.909   6.029   3.314  1.7674 -0.5868 -0.8890
15279TIP3    H267329   4.925   5.888   3.367 -1.0750 -0.0296  1.7560
15280TIP3   OH267330   5.059   4.037  15.020 -0.6786 -0.4849 -0.2770
15280TIP3    H167331   5.110   3.973  14.969  0.4907 -0.4886  0.8561
15280TIP3    H267332   5.116   4.114  15.025 -0.7516 -0.5018  1.0540
15281TIP3   OH267333   3.809   0.130  12.521  0.1432 -0.1912 -0.0367
15281TIP3    H167334   3.775   0.159  12.606 -1.5646 -1.7852 -0.1057
15281TIP3    H267335   3.802   0.034  12.524  0.8613 -0.3236 -1.6599
15282TIP3   OH267336   6.753   6.221  12.717  0.6083  0.2920  0.6763
15282TIP3    H167337   6.766   6.182  12.630 -0.9653  2.0145 -0.4052
15282TIP3    H267338   6.804   6.302  12.714 -1.7777  1.8780  0.1763
15283TIP3   OH267339   2.686   0.836  13.595  0.1437 -0.3386 -0.4521
15283TIP3    H167340   2.700   0.878  13.680  1.8644 -2.1671  0.2485
15283TIP3    H267341   2.591   0.826  13.589  0.0078 -0.7831  1.6074
15284TIP3   OH267342   0.605   6.550   1.698  0.2290 -0.6071  0.2645
15284TIP3    H167343   0.574   6.640   1.705 -0.4713 -0.9007  1.3647
15284TIP3    H267344   0.660   6.538   1.775 -1.9159 -1.9007  1.7193
15285TIP3   OH267345   5.579   2.647   0.746  0.0578  0.2338  0.2933
15285TIP3    H167346   5.527   2.670   0.669 -2.3644 -1.0436  1.4592
15285TIP3    H267347   5.521   2.662   0.821  1.2806 -1.4191  1.6676
15286TIP3   OH267348   6.776   0.785  14.292  0.1124  0.3543  0.6551
15286TIP3    H167349   6.763   0.880  14.292  0.6131  0.4244  0.5379
15286TIP3    H267350   6.728   0.755  14.214  1.7376  0.7787 -0.5695
15287TIP3   OH267351   2.431   2.750  16.547 -0.5761 -0.2754 -0.1323
15287TIP3    H167352   2.468   2.703  16.471 -0.2201  0.5732 -0.4973
15287TIP3    H267353   2.406   2.680  16.608  0.1096 -0.9412 -0.5844
15288TIP3   OH267354   6.068   5.447  14.082 -0.7098  0.1313  0.1545
15288TIP3    H167355   6.106   5.434  14.169  0.2188  1.0437 -0.0907
15288TIP3    H267356   5.976   5.421  14.092 -0.8106  0.8942  1.6108
15289TIP3   OH267357   0.995   0.409   5.764 -0.0813 -0.0934  0.4965
15289TIP3    H167358   1.004   0.332   5.709  0.4537  1.0582 -1.0755
15289TIP3    H267359   0.904   0.437   5.751 -0.2064 -0.3136  0.8819
15290TIP3   OH267360   1.152   5.909  15.247  0.0675  0.1336 -0.0743
15290TIP3    H167361   1.148   5.904  15.343 -0.1043 -0.3511 -0.1048
15290TIP3    H267362   1.223   5.972  15.230 -0.2258  0.5968  0.3693
15291TIP3   OH267363   3.001   2.202  16.670  0.0582  0.0591 -0.7791
15291TIP3    H167364   3.082   2.153  16.653 -0.1428  0.2881 -2.6821
15291TIP3    H267365   3.027   2.294  16.659 -0.2338  0.1931 -0.3496
15292TIP3   OH267366   1.632   6.503   2.298  0.1611  0.1526  0.2948
15292TIP3    H167367   1.617   6.486   2.205 -0.1379  1.3012  0.1176
15292TIP3    H267368   1.657   6.596   2.302  1.5626 -0.2339  1.2091
15293TIP3   OH267369   3.182   2.978  12.959 -0.6178 -0.0569  0.3856
15293TIP3    H167370   3.092   3.011  12.968  0.1426  2.2673  0.1730
15293TIP3    H267371   3.237   3.051  12.988  1.2802 -0.2821 -2.2619
15294TIP3   OH267372   2.783   0.722   4.238 -0.2458 -0.0734 -0.3046
15294TIP3    H167373   2.718   0.790   4.224  1.0427  1.1477 -0.6468
15294TIP3    H267374   2.825   0.746   4.320  0.0084 -0.6318 -0.2701
15295TIP3   OH267375   5.582   1.647   3.197  0.6217  0.4801  0.2582
15295TIP3    H167376   5.653   1.711   3.186  2.0725 -1.0943  0.1227
15295TIP3    H267377   5.614   1.568   3.154 -1.8042  0.0952 -0.9885
15296TIP3   OH267378   3.336   4.235   1.883  0.3055 -0.2559  0.4582
15296TIP3    H167379   3.422   4.277   1.880 -0.6140  1.7525  1.1316
15296TIP3    H267380   3.354   4.144   1.859  2.2178  0.7329 -2.4061
15297TIP3   OH267381   3.432   3.427  16.860 -0.2640  0.3185  0.5864
15297TIP3    H167382   3.365   3.477  16.814  0.9326  1.3656 -0.0612
15297TIP3    H267383   3.433   3.464  16.949 -1.3912 -0.5624  0.9990
15298TIP3   OH267384   2.596   4.789  11.405  0.4256  0.3012  0.2262
15298TIP3    H167385   2.668   4.756  11.459 -0.8637 -0.5453  1.5367
15298TIP3    H267386   2.520   4.786  11.464 -0.6539  1.2499 -1.0728
15299TIP3   OH267387   1.267   3.495  13.594  0.2072  0.0028  0.4140
15299TIP3    H167388   1.274   3.550  13.672 -0.4013  0.2749  0.2834
15299TIP3    H267389   1.256   3.406  13.628  2.7305 -0.3079  0.6371
15300TIP3   OH267390   6.000   3.516   0.614  0.3201 -0.5741  0.6496
15300TIP3    H167391   6.007   3.561   0.530 -0.5640 -2.4346 -0.4724
15300TIP3    H267392   6.090   3.515   0.648  0.8228 -0.4202 -0.6302
15301TIP3   OH267393   6.368   6.195  11.690 -0.0851  0.2519  0.1432
15301TIP3    H167394   6.284   6.188  11.644 -0.9508  1.7813  1.3841
15301TIP3    H267395   6.364   6.129  11.758 -0.6145  0.7807  0.6416
15302TIP3   OH267396   0.998   3.268  13.359  0.8229  0.4265 -0.2000
15302TIP3    H167397   1.013   3.285  13.266  1.0945 -1.1079 -0.4726
15302TIP3    H267398   0.961   3.179  13.361 -0.5363  0.9808  1.0652
15303TIP3   OH267399   2.401   0.283  15.242 -0.1366  0.8357  0.3867
15303TIP3    H167400   2.364   0.260  15.327  1.4778 -0.8927  0.6841
15303TIP3    H267401   2.354   0.226  15.180  0.9001 -0.2858  0.5817
15304TIP3   OH267402   5.858   1.421   1.068  0.0120 -0.2672 -0.2052
15304TIP3    H167403   5.890   1.451   0.983 -0.8465 -2.5042 -1.3922
15304TIP3    H267404   5.763   1.417   1.057 -0.1129 -0.4730  0.9059
15305TIP3   OH267405   3.877   0.477  14.075  0.2645 -0.3397 -0.0115
15305TIP3    H167406   3.915   0.436  13.997 -1.3080 -2.4995  0.2482
15305TIP3    H267407   3.913   0.428  14.148  0.0179  0.2031  0.4782
15306TIP3   OH267408   3.700   1.910   2.160 -0.3473  0.0657 -0.4094
15306TIP3    H167409   3.642   1.839   2.185 -1.0068  0.5953 -0.4123
15306TIP3    H267410   3.659   1.949   2.083  0.3958 -0.0152 -0.8536
15307TIP3   OH267411   1.950   6.158   2.097 -0.2363  0.2795  0.2985
15307TIP3    H167412   2.005   6.234   2.077  1.4503 -0.9307  0.1249
15307TIP3    H267413   1.863   6.195   2.112  1.0222  2.5406  2.7622
15308TIP3   OH267414   3.490   4.946  14.312  0.3539  0.5088  0.5277
15308TIP3    H167415   3.534   4.862  14.319  1.5305  1.1597  1.3034
15308TIP3    H267416   3.408   4.935  14.359  1.7250  0.5679  3.0837
15309TIP3   OH267417   1.226   3.226   5.661  0.0218 -0.2547  0.0251
15309TIP3    H167418   1.284   3.185   5.597  0.6717 -0.0895  0.4875
15309TIP3    H267419   1.263   3.200   5.746  1.1419  2.1588  0.3533
15310TIP3   OH267420   1.680   5.066   1.822 -0.2331  0.3697 -0.2107
15310TIP3    H167421   1.748   5.003   1.799 -0.1469  0.2611  0.3315
15310TIP3    H267422   1.695   5.085   1.915 -1.7784 -0.7043  0.3075
15311TIP3   OH267423   1.766   1.396   3.520 -0.1127  0.1487 -0.2436
15311TIP3    H167424   1.695   1.415   3.459 -0.7637  0.0894  0.4783
15311TIP3    H267425   1.722   1.364   3.599  0.8234 -2.7322 -0.7796
15312TIP3   OH267426   2.838   2.519  12.712 -0.3220  0.2251 -0.2383
15312TIP3    H167427   2.900   2.446  12.705 -2.1265 -1.2403 -3.2057
15312TIP3    H267428   2.789   2.516  12.630 -2.5505  2.9516  0.8386
15313TIP3   OH267429   5.776   1.356   5.135  0.1403 -0.8329  0.2560
15313TIP3    H167430   5.752   1.407   5.212  1.8308 -0.1285  0.3750
15313TIP3    H267431   5.759   1.415   5.061  0.0197 -0.9103  0.2224
15314TIP3   OH267432   1.160   4.354   6.113 -0.4630 -0.2242 -0.6880
15314TIP3    H167433   1.234   4.312   6.157 -1.1728 -0.6856  0.0848
15314TIP3    H267434   1.191   4.370   6.024  0.9860  0.6639 -0.0658
15315TIP3   OH267435   6.544   4.309  12.275  0.2779  0.5248  0.3199
15315TIP3    H167436   6.531   4.214  12.274 -1.0588  0.6994 -0.7318
15315TIP3    H267437   6.509   4.336  12.360  0.0366  0.1529  0.3441
15316TIP3   OH267438   3.062   4.857   0.533  0.3583 -0.5972  0.1343
15316TIP3    H167439   3.088   4.947   0.549  0.7235 -0.8260  0.8747
15316TIP3    H267440   2.975   4.863   0.493  1.4297  0.1752 -2.2367
15317TIP3   OH267441   5.013   0.047  14.008  0.1441  0.3250  0.1860
15317TIP3    H167442   4.958   0.045  13.930  1.4293  0.2142 -0.7570
15317TIP3    H267443   5.094   0.003  13.981  0.3163 -0.4359  1.8254
15318TIP3   OH267444   3.063   4.493  12.275  0.2446  0.0147  0.4111
15318TIP3    H167445   3.120   4.449  12.338 -1.4051 -0.8854  1.3493
15318TIP3    H267446   2.977   4.496  12.318 -0.4518  1.2533 -0.9675
15319TIP3   OH267447   2.055   3.789  11.684 -0.0073 -0.0977  0.0270
15319TIP3    H167448   2.008   3.836  11.752 -1.7371 -2.4638  0.5773
15319TIP3    H267449   2.111   3.855  11.643 -1.3668  2.0981  1.5429
15320TIP3   OH267450   5.401   3.077   4.374  0.4980 -0.0071  0.0310
15320TIP3    H167451   5.408   3.146   4.308  1.2300  1.6253  1.7152
15320TIP3    H267452   5.492   3.049   4.389  0.6249  1.1875  1.8227
15321TIP3   OH267453   3.544   4.632  13.073  0.2282  0.7887 -0.2820
15321TIP3    H167454   3.464   4.683  13.063  0.3076  0.7307 -1.2945
15321TIP3    H267455   3.561   4.632  13.167 -0.1242  2.0746 -0.2070
15322TIP3   OH267456   6.485   4.296  15.706  0.3721  0.9257 -0.4160
15322TIP3    H167457   6.445   4.242  15.775  0.7407  1.0013 -0.1397
15322TIP3    H267458   6.545   4.237  15.661 -0.6576  0.5770 -1.3852
15323TIP3   OH267459   3.555   3.682   3.322  0.4069 -0.0020 -0.0989
15323TIP3    H167460   3.572   3.709   3.412  0.9570 -2.3889  0.5768
15323TIP3    H267461   3.628   3.718   3.272  0.5471  0.6344  0.5464
15324TIP3   OH267462   6.203   6.749   5.061  0.4763  0.0265  0.1766
15324TIP3    H167463   6.282   6.800   5.044  1.0880 -0.6685  0.8657
15324TIP3    H267464   6.218   6.709   5.147 -0.6707 -0.0282  0.3624
15325TIP3   OH267465   1.840   4.132  16.998 -0.6022 -0.2147 -0.2453
15325TIP3    H167466   1.747   4.128  17.020 -0.4331  1.7360  1.0220
15325TIP3    H267467   1.883   4.090  17.073 -0.4595 -1.7972 -1.1745
15326TIP3   OH267468   1.712   5.881  11.529  0.3662 -0.6802 -0.4973
15326TIP3    H167469   1.714   5.838  11.615  1.1961  1.8730  0.8643
15326TIP3    H267470   1.619   5.887  11.507  0.1712 -1.8464 -0.0783
15327TIP3   OH267471   1.502   5.823  13.695  0.2237 -0.2269  0.7250
15327TIP3    H167472   1.496   5.728  13.708  0.4728 -0.1638  1.3640
15327TIP3    H267473   1.585   5.847  13.736 -0.5281  0.4784  1.8802
15328TIP3   OH267474   4.787   0.756  10.947  0.5160 -0.0772  0.1203
15328TIP3    H167475   4.852   0.817  10.912 -0.9960  1.6316  0.1424
15328TIP3    H267476   4.762   0.702  10.872  1.9856 -0.7975  0.1310
15329TIP3   OH267477   0.104   6.239   2.940  0.2535  0.6412 -0.5337
15329TIP3    H167478   0.082   6.151   2.971  0.6386  0.1605 -1.5585
15329TIP3    H267479   0.187   6.228   2.894  1.2425  1.8923  0.8624
15330TIP3   OH267480   6.176   1.498  12.811 -0.1566 -0.4035  0.0111
15330TIP3    H167481   6.114   1.427  12.827 -0.1431 -0.7251 -1.2566
15330TIP3    H267482   6.257   1.454  12.787  1.2364 -0.0722  3.4805
15331TIP3   OH267483   2.281   6.087   3.748  0.1707 -0.2027  0.3697
15331TIP3    H167484   2.259   6.157   3.810  1.7142  1.4141 -0.8069
15331TIP3    H267485   2.219   6.097   3.676  1.0156  0.6468 -0.2651
15332TIP3   OH267486   4.855   1.541   1.466  0.4304 -0.6842 -0.2454
15332TIP3    H167487   4.808   1.492   1.398  1.8220 -1.8635 -0.4014
15332TIP3    H267488   4.929   1.581   1.420  0.4645 -0.1298  0.2805
15333TIP3   OH267489   0.877   3.574  11.368  0.2079  0.1389 -0.3586
15333TIP3    H167490   0.806   3.539  11.422  1.2472 -0.5506  0.5961
15333TIP3    H267491   0.832   3.623  11.299 -1.2148 -0.7155 -0.0876
15334TIP3   OH267492   2.262   1.088   2.252 -0.0320  0.2660 -0.3661
15334TIP3    H167493   2.291   1.046   2.171 -1.1644  0.4808 -0.9064
15334TIP3    H267494   2.241   1.177   2.227 -0.3262  0.3564  0.1845
15335TIP3   OH267495   0.878   5.843   4.930 -0.0717 -0.1253 -0.6503
15335TIP3    H167496   0.825   5.921   4.941 -0.5798 -0.7883  2.6697
15335TIP3    H267497   0.951   5.871   4.874 -0.1697  2.7756  0.4984
15336TIP3   OH267498   1.399   2.329   5.557 -0.1048  0.2107 -0.3227
15336TIP3    H167499   1.416   2.381   5.478 -0.2817  0.2460 -0.3388
15336TIP3    H267500   1.370   2.394   5.621 -1.8028 -0.0324 -0.7786
15337TIP3   OH267501   0.976   4.265  11.603  0.6717 -0.2555 -0.0491
15337TIP3    H167502   0.925   4.343  11.580  2.0249  0.6663 -0.0433
15337TIP3    H267503   0.963   4.255  11.697 -1.3227 -1.4241 -0.3863
15338TIP3   OH267504   2.069   6.701  16.383  0.5227  0.1379  0.1571
15338TIP3    H167505   2.024   6.756  16.319  1.7752  1.7039  0.5574
15338TIP3    H267506   2.045   6.611  16.359 -0.0068  0.7404 -1.7387
15339TIP3   OH267507   0.308   4.529  14.939  0.3827  0.1221 -0.3526
15339TIP3    H167508   0.272   4.554  14.854  0.1399 -0.3966 -0.4094
15339TIP3    H267509   0.314   4.433  14.935 -1.6310 -0.1326  0.9800
15340TIP3   OH267510   6.256   3.798  14.216  0.5375  0.0715 -0.0283
15340TIP3    H167511   6.256   3.770  14.125 -0.1429 -2.4302  0.6668
15340TIP3    H267512   6.313   3.875  14.218  1.2328 -0.3217 -2.3852
15341TIP3   OH267513   4.508   1.085  12.435 -1.0568  0.1854  0.3096
15341TIP3    H167514   4.547   1.015  12.382 -2.4357 -0.5224  0.1869
15341TIP3    H267515   4.565   1.092  12.512 -0.8031 -0.9711  0.2384
15342TIP3   OH267516   4.170   1.184   4.124 -0.5577 -0.3815 -0.3778
15342TIP3    H167517   4.249   1.185   4.071  1.5496  0.0166  2.5228
15342TIP3    H267518   4.119   1.110   4.090  1.2638 -0.9642 -2.0257
15343TIP3   OH267519   5.137   2.260   3.972 -0.1089 -0.5846  0.3115
15343TIP3    H167520   5.101   2.265   4.061 -0.2998  2.2730  0.1591
15343TIP3    H267521   5.070   2.301   3.917  0.7504 -0.7595 -0.8934
15344TIP3   OH267522   5.450   6.330  17.109  0.0737  0.5706 -0.6818
15344TIP3    H167523   5.414   6.359  17.193  0.3837  2.2547 -1.1097
15344TIP3    H267524   5.433   6.235  17.108  2.5051 -0.0881  2.5023
15345TIP3   OH267525   3.683   1.091  15.144  0.2538 -0.1451 -0.1420
15345TIP3    H167526   3.761   1.100  15.089  0.1218  0.7888 -0.1849
15345TIP3    H267527   3.704   1.017  15.201  1.1063 -0.0272 -0.2757
15346TIP3   OH267528   3.268   5.405   4.151 -0.3636  0.0198  0.2245
15346TIP3    H167529   3.362   5.404   4.133 -0.5630  1.0893 -1.0861
15346TIP3    H267530   3.261   5.411   4.246  0.9232  0.7736  0.2913
15347TIP3   OH267531   0.761   2.773   4.727  0.5335 -0.1464 -0.6017
15347TIP3    H167532   0.737   2.788   4.818  0.6827  2.9143 -0.9787
15347TIP3    H267533   0.840   2.719   4.732 -0.7213 -1.9809  0.9394
15348TIP3   OH267534   4.062   1.511  13.425 -0.1894 -0.7296  0.3035
15348TIP3    H167535   4.095   1.471  13.505  0.9886  0.4530  0.4459
15348TIP3    H267536   4.116   1.475  13.356  2.0936  1.7592  0.6158
15349TIP3   OH267537   0.634   1.071  11.168  0.4436  0.6600 -0.0643
15349TIP3    H167538   0.575   1.016  11.217 -0.5386  0.8389 -0.9969
15349TIP3    H267539   0.582   1.104  11.094  1.0101  2.7106  0.3614
15350TIP3   OH267540   6.190   5.130  14.716 -0.3929 -0.2638  0.4080
15350TIP3    H167541   6.282   5.122  14.742 -0.5903  2.4762  2.3968
15350TIP3    H267542   6.193   5.156  14.624  0.7497 -1.2279  0.1535
15351TIP3   OH267543   3.469   2.348   0.961  1.0701  0.3869  0.2791
15351TIP3    H167544   3.538   2.373   0.899  0.2817 -1.0375 -1.2704
15351TIP3    H267545   3.481   2.407   1.035  2.4264  1.8040 -0.9811
15352TIP3   OH267546   1.011   1.498  16.823 -0.7591  0.1252 -0.0393
15352TIP3    H167547   1.014   1.416  16.872 -3.0310  0.1497  0.2559
15352TIP3    H267548   1.065   1.558  16.874 -0.5476 -0.6838  0.7280
15353TIP3   OH267549   3.162   6.482   1.005 -0.0211  0.2284  0.0521
15353TIP3    H167550   3.209   6.402   0.982 -3.5492 -2.3394  0.9555
15353TIP3    H267551   3.099   6.494   0.934 -1.4534  0.4899  1.3130
15354TIP3   OH267552   0.046   2.378   2.682  0.0608 -0.2455  0.2001
15354TIP3    H167553   0.098   2.441   2.632 -0.3316 -0.5346 -0.5862
15354TIP3    H267554   0.052   2.409   2.773 -0.8184  1.4344 -0.2695
15355TIP3   OH267555   3.236   5.875  13.813 -0.3877  0.3331 -0.3124
15355TIP3    H167556   3.213   5.858  13.722  0.8155 -0.3272 -0.5198
15355TIP3    H267557   3.157   5.911  13.852 -0.2763  2.7934 -2.1703
15356TIP3   OH267558   0.224   0.549  14.012 -0.4074 -0.2589  0.4115
15356TIP3    H167559   0.219   0.489  14.087  1.5284 -0.0986  0.6997
15356TIP3    H267560   0.186   0.630  14.045 -3.9554 -1.4670 -0.2625
15357TIP3   OH267561   2.801   4.354   0.181 -0.4517 -0.3915  0.3663
15357TIP3    H167562   2.827   4.407   0.256  0.0129 -1.8060  1.2501
15357TIP3    H267563   2.707   4.340   0.192 -0.9806  1.7563 -0.8981
15358TIP3   OH267564   5.031   5.119  14.038  0.0581  0.2532 -0.2167
15358TIP3    H167565   4.946   5.145  14.002 -0.6963 -0.2815  1.1115
15358TIP3    H267566   5.053   5.038  13.992  0.2122  0.7752 -1.0843
15359TIP3   OH267567   3.947   6.306  11.481  0.1410 -0.4460 -0.3920
15359TIP3    H167568   4.003   6.317  11.557 -0.2600  0.2961 -0.1974
15359TIP3    H267569   3.998   6.340  11.408 -0.3032  0.8811 -0.1101
15360TIP3   OH267570   5.669   5.590   3.952 -0.5304  0.0909 -0.3508
15360TIP3    H167571   5.707   5.578   3.866  0.3089 -1.0232  0.1415
15360TIP3    H267572   5.742   5.618   4.007 -0.6476 -0.9131  0.3506
15361TIP3   OH267573   0.720   6.746   4.510  0.2582 -0.3042 -0.2386
15361TIP3    H167574   0.735   6.658   4.477 -0.4464 -0.6628  0.3570
15361TIP3    H267575   0.720   6.736   4.605 -0.3171  0.2504 -0.1736
15362TIP3   OH267576   5.111   0.751   3.780 -0.4906 -0.2645  0.5622
15362TIP3    H167577   5.020   0.752   3.750 -0.2939 -0.5255 -0.0617
15362TIP3    H267578   5.115   0.678   3.842 -0.3851 -1.1801 -0.4881
15363TIP3   OH267579   5.899   0.969   5.289 -0.4574 -0.1804  0.3821
15363TIP3    H167580   5.856   0.888   5.262 -2.0891  0.9298 -0.5033
15363TIP3    H267581   5.905   1.021   5.209  0.1715  0.7553  1.0113
15364TIP3   OH267582   3.785   6.380   0.949 -0.0889 -0.9563  0.5253
15364TIP3    H167583   3.820   6.460   0.990  4.1602 -2.4335  0.2231
15364TIP3    H267584   3.816   6.384   0.859 -1.8951 -1.8793 -0.1727
15365TIP3   OH267585   5.223   1.428   1.057 -0.3500 -0.0401 -0.0677
15365TIP3    H167586   5.144   1.426   1.110 -0.1761  1.9974  0.3469
15365TIP3    H267587   5.258   1.339   1.062 -0.8343 -0.1377  2.4727
15366TIP3   OH267588   1.321   2.942   6.413  0.3898 -0.2069  0.3731
15366TIP3    H167589   1.359   2.961   6.327  0.7598 -0.3533  0.5036
15366TIP3    H267590   1.260   2.870   6.396 -1.8022  1.6725 -0.3242
15367TIP3   OH267591   4.646   2.848  16.878 -0.0320 -0.0518 -0.0061
15367TIP3    H167592   4.586   2.804  16.818 -0.4278  0.0619  0.2985
15367TIP3    H267593   4.642   2.940  16.853 -0.2349  0.0033  0.2167
15368TIP3   OH267594   3.351   1.831  10.306 -0.5455  0.0859 -0.3987
15368TIP3    H167595   3.440   1.866  10.302 -0.3995  0.2351  2.2051
15368TIP3    H267596   3.361   1.738  10.286  0.4226 -0.1355  0.9153
15369TIP3   OH267597   6.538   3.209  14.404 -0.3974 -0.3641 -0.3228
15369TIP3    H167598   6.443   3.213  14.414 -0.5743  0.5397 -2.0084
15369TIP3    H267599   6.572   3.276  14.464 -0.7662 -1.0313  0.6537
15370TIP3   OH267600   2.357   3.334   3.375  0.1826  0.4731  0.1213
15370TIP3    H167601   2.283   3.317   3.317  0.8094 -0.4081 -0.4562
15370TIP3    H267602   2.329   3.302   3.461 -0.6491  1.5303  0.2662
15371TIP3   OH267603   0.979   6.621   1.892  0.5238  0.0798  0.1083
15371TIP3    H167604   0.976   6.572   1.810 -0.7129  0.4315 -0.0725
15371TIP3    H267605   0.909   6.583   1.945 -0.1240  1.2737  0.1604
15372TIP3   OH267606   5.277   5.427   1.738 -0.0499  0.1162  0.3458
15372TIP3    H167607   5.355   5.482   1.747  0.4809 -0.8058  1.8242
15372TIP3    H267608   5.307   5.349   1.692 -0.5131  0.4905 -0.6155
15373TIP3   OH267609   1.519   3.271  15.002  0.1389 -0.1216 -0.0264
15373TIP3    H167610   1.519   3.209  14.930 -1.3761 -0.3086  0.0968
15373TIP3    H267611   1.578   3.233  15.067  1.3053 -0.0870 -1.0199
15374TIP3   OH267612   3.711   4.114   4.605 -0.7485 -0.8881  0.0624
15374TIP3    H167613   3.724   4.101   4.511 -1.2718 -0.4715 -0.0708
15374TIP3    H267614   3.749   4.201   4.622  0.7037 -1.5818  0.5271
15375TIP3   OH267615   6.657   6.269  16.332 -0.2043  0.0885  0.3817
15375TIP3    H167616   6.711   6.271  16.411 -1.7429  0.1759  1.4852
15375TIP3    H267617   6.669   6.181  16.297 -1.2469 -0.7511  2.0121
15376TIP3   OH267618   3.251   6.211  15.321 -0.5924 -0.7929 -0.3662
15376TIP3    H167619   3.210   6.134  15.282  0.1120 -0.8582 -1.0002
15376TIP3    H267620   3.342   6.208  15.290 -0.4211 -0.0006  0.0386
15377TIP3   OH267621   5.729   0.027  14.562  0.0174  0.5544  0.1453
15377TIP3    H167622   5.706  -0.065  14.555 -0.5480  0.6859  0.2643
15377TIP3    H267623   5.815   0.033  14.520 -0.0955  0.0377 -0.1679
15378TIP3   OH267624   2.179   4.205   0.309  0.4554 -0.0424 -0.0714
15378TIP3    H167625   2.223   4.275   0.261 -0.6398 -0.0461 -1.1431
15378TIP3    H267626   2.186   4.128   0.252 -1.1971  0.0511 -0.4677
15379TIP3   OH267627   4.523   5.267  12.089  0.6151  0.2362  0.2307
15379TIP3    H167628   4.519   5.358  12.121  0.1298  0.4855 -0.5195
15379TIP3    H267629   4.502   5.215  12.166 -0.0218  0.8079  0.4563
15380TIP3   OH267630   4.365   5.233   2.695  0.4039 -0.0001  0.2663
15380TIP3    H167631   4.282   5.210   2.654  0.1743  1.1006  0.0791
15380TIP3    H267632   4.341   5.266   2.781  0.7672 -0.9269  0.7324
15381TIP3   OH267633   6.046   3.663  15.180  0.0119  0.4824  0.5010
15381TIP3    H167634   6.004   3.577  15.177  1.6444 -0.3542 -2.1839
15381TIP3    H267635   5.978   3.724  15.150 -0.6067 -0.1647  0.5563
15382TIP3   OH267636   0.155   5.497   4.044 -0.6622  0.1695 -0.4063
15382TIP3    H167637   0.232   5.553   4.051 -0.5862 -0.0341  0.4290
15382TIP3    H267638   0.115   5.521   3.960  0.5621 -0.0512 -1.0689
15383TIP3   OH267639   2.510   3.197   1.645  0.0162  0.1784 -0.4608
15383TIP3    H167640   2.519   3.292   1.648 -0.0178  0.2033 -1.1067
15383TIP3    H267641   2.547   3.172   1.560 -1.6959 -0.1894 -1.1301
15384TIP3   OH267642   4.857   6.262   5.546 -0.1902 -0.6854  0.2082
15384TIP3    H167643   4.763   6.259   5.529  0.1089  0.4714 -2.0486
15384TIP3    H267644   4.897   6.249   5.460  1.6395  1.6459  0.6026
15385TIP3   OH267645   6.243   5.984   1.020  0.0360 -0.6370  0.1982
15385TIP3    H167646   6.255   5.890   1.011  0.6607 -0.7035  1.5220
15385TIP3    H267647   6.150   5.998   0.999  0.1751 -1.3695 -1.0672
15386TIP3   OH267648   3.436   5.798  13.071  0.0415 -0.1602 -0.5310
15386TIP3    H167649   3.517   5.789  13.021  0.0215  1.6993 -0.9436
15386TIP3    H267650   3.387   5.718  13.051  0.4609  0.0604 -2.6917
15387TIP3   OH267651   6.777   6.159   0.844 -0.3702 -0.5242  0.4888
15387TIP3    H167652   6.722   6.086   0.817 -0.3979 -0.1027 -0.6408
15387TIP3    H267653   6.794   6.143   0.937  0.2822 -2.4026  0.0976
15388TIP3   OH267654   1.572   4.313   5.034  0.4437  0.1574  0.2640
15388TIP3    H167655   1.579   4.254   5.109 -0.1516 -0.6797 -0.3122
15388TIP3    H267656   1.603   4.261   4.960  0.7886  0.8877 -0.1175
15389TIP3   OH267657   3.556   4.341   4.105  0.1141  0.2312  0.2552
15389TIP3    H167658   3.556   4.263   4.049 -1.9359  0.5680 -0.2930
15389TIP3    H267659   3.599   4.409   4.052  2.0857 -0.5113  0.8080
15390TIP3   OH267660   4.148   2.979  10.711  0.1841 -0.2166  0.0760
15390TIP3    H167661   4.153   2.896  10.759  0.5850 -0.4669 -0.3928
15390TIP3    H267662   4.062   2.976  10.669  0.7207 -0.9977 -1.0070
15391TIP3   OH267663   2.982   2.342   4.487  0.1984  0.2888  0.4614
15391TIP3    H167664   3.069   2.303   4.493  0.5440  1.0158  0.2030
15391TIP3    H267665   2.923   2.273   4.520  0.9414  0.0838  1.4179
15392TIP3   OH267666   1.207   2.893   4.902  0.2748 -0.2312  1.2371
15392TIP3    H167667   1.263   2.969   4.892 -0.3563  0.3348  1.8894
15392TIP3    H267668   1.130   2.913   4.848  1.2509 -1.6255 -0.8372
15393TIP3   OH267669   4.921   0.752  14.396  0.7144 -0.0170 -0.3242
15393TIP3    H167670   4.836   0.731  14.434  0.6069  0.7755 -0.1109
15393TIP3    H267671   4.900   0.792  14.311  0.8609  0.5879 -0.0730
15394TIP3   OH267672   0.660   3.477   3.150  0.1706  0.3524 -0.6141
15394TIP3    H167673   0.747   3.498   3.116  0.3243 -0.4534 -0.7320
15394TIP3    H267674   0.633   3.400   3.101 -0.4732  0.4031 -0.3428
15395TIP3   OH267675   0.078   4.311  11.815 -0.5510  0.1866  0.1836
15395TIP3    H167676   0.096   4.224  11.852  0.3740  1.1555  2.1726
15395TIP3    H267677  -0.006   4.336  11.853 -0.0404  0.8068  0.9309
15396TIP3   OH267678   3.966   3.386  11.817 -0.7725  0.0397  0.3959
15396TIP3    H167679   3.982   3.308  11.871 -0.1151  1.1571  1.9024
15396TIP3    H267680   3.953   3.352  11.729  0.9143 -1.6931  0.7365
15397TIP3   OH267681   4.961   6.502   0.683  0.4494  0.0671  0.3276
15397TIP3    H167682   4.956   6.426   0.741  1.9122  0.2251  0.7084
15397TIP3    H267683   4.974   6.576   0.741 -3.2286  1.0148  0.1393
15398TIP3   OH267684   3.366   5.852  16.520 -0.0475  0.1695 -0.3925
15398TIP3    H167685   3.361   5.886  16.430  3.0456 -0.7162 -0.9957
15398TIP3    H267686   3.457   5.828  16.531 -0.8684 -2.1493  2.1570
15399TIP3   OH267687   4.728   1.605  16.135 -0.0265 -0.1036 -0.2757
15399TIP3    H167688   4.709   1.686  16.183  0.2685 -0.8877  1.2104
15399TIP3    H267689   4.742   1.634  16.045  0.4035  1.5527  0.2851
15400TIP3   OH267690   5.447   2.519  12.447  0.1481  0.3069  0.7248
15400TIP3    H167691   5.504   2.493  12.519 -0.6316  0.1344  1.2818
15400TIP3    H267692   5.438   2.439  12.395 -1.4790 -0.3287  1.9241
15401TIP3   OH267693   2.690   3.074   1.843  0.5737 -0.0067  0.0466
15401TIP3    H167694   2.620   3.120   1.796  0.5113 -2.1370 -2.1798
15401TIP3    H267695   2.646   2.999   1.883  1.2220 -0.0800  0.6422
15402TIP3   OH267696   2.866   1.597   2.798 -0.3677 -0.4054 -0.1791
15402TIP3    H167697   2.810   1.534   2.844 -3.8670  1.9315 -0.7910
15402TIP3    H267698   2.902   1.548   2.724  0.0420 -2.5242  1.3145
15403TIP3   OH267699   0.627   0.888  13.074  0.6446  0.5198  0.4260
15403TIP3    H167700   0.689   0.857  13.007  0.8407 -2.0237  1.6539
15403TIP3    H267701   0.673   0.878  13.157 -0.2198  1.9414  1.1230
15404TIP3   OH267702   6.278   3.714   5.990  0.1374 -0.4851 -0.3362
15404TIP3    H167703   6.249   3.710   6.081 -0.9300  0.5520 -0.5944
15404TIP3    H267704   6.371   3.695   5.993  0.3405  0.5815  1.1153
15405TIP3   OH267705   6.544   2.135  15.920 -0.1443 -0.6404  0.0228
15405TIP3    H167706   6.612   2.092  15.868  1.2714  2.6869 -1.1718
15405TIP3    H267707   6.587   2.153  16.004  0.6212  1.5463 -0.7655
15406TIP3   OH267708   5.801   0.818  15.993  0.1605 -0.2311  0.9402
15406TIP3    H167709   5.842   0.800  16.078  0.2189 -0.4294  0.8700
15406TIP3    H267710   5.865   0.788  15.929  0.2079  0.1192  0.8230
15407TIP3   OH267711   6.536   5.560  11.450  0.1256 -0.0876  0.5097
15407TIP3    H167712   6.539   5.645  11.405  0.9108 -0.8894 -1.0121
15407TIP3    H267713   6.499   5.500  11.386 -0.7496 -0.8579  1.6996
15408TIP3   OH267714   0.863   2.501  12.023 -0.8682 -0.1412 -0.1144
15408TIP3    H167715   0.773   2.473  12.037 -0.3810 -1.4039  0.6036
15408TIP3    H267716   0.911   2.420  12.003  0.2072  0.4413  0.0389
15409TIP3   OH267717   6.320   3.725   0.160 -0.5924  0.4505 -0.6892
15409TIP3    H167718   6.257   3.655   0.143 -0.0981  0.0104 -0.7516
15409TIP3    H267719   6.327   3.729   0.255  2.1482 -2.1813 -0.6388
15410TIP3   OH267720   2.650   1.064  15.200  0.0798  0.6816  0.4975
15410TIP3    H167721   2.693   1.081  15.284  0.0006  0.9660  0.4804
15410TIP3    H267722   2.614   1.149  15.173 -0.2747  0.4994  0.3872
15411TIP3   OH267723   5.292   0.125  12.301  0.0775 -0.1717 -0.8118
15411TIP3    H167724   5.328   0.190  12.241 -0.1126  0.9400  0.2550
15411TIP3    H267725   5.356   0.118  12.371  0.1540 -1.2437 -0.9629
15412TIP3   OH267726   1.243   4.298  13.768  0.2561  0.4097 -0.0617
15412TIP3    H167727   1.164   4.284  13.715  0.4489 -2.5356  0.2592
15412TIP3    H267728   1.245   4.392  13.784 -3.6019  0.5296  0.5289
15413TIP3   OH267729   6.816   3.501   5.072  0.6600 -0.1813 -0.2035
15413TIP3    H167730   6.766   3.422   5.055 -0.6126  0.5376  0.1150
15413TIP3    H267731   6.766   3.549   5.138  1.5169  0.7856 -0.2183
15414TIP3   OH267732   3.781   1.453  15.283  0.6730  0.2509  0.4758
15414TIP3    H167733   3.769   1.435  15.190 -1.6752  1.0390  0.5537
15414TIP3    H267734   3.713   1.401  15.327  1.7150 -0.0751  1.7461
15415TIP3   OH267735   2.268   2.929  11.494  0.9659  0.2866  0.5362
15415TIP3    H167736   2.252   2.915  11.587  0.1399 -0.4549  0.2957
15415TIP3    H267737   2.182   2.955  11.459  0.9307 -0.8538 -0.2638
15416TIP3   OH267738   4.671   4.318  12.489  0.0620  0.7271  0.5732
15416TIP3    H167739   4.747   4.365  12.523  0.5682  0.0670  0.3702
15416TIP3    H267740   4.654   4.357  12.403  0.9549  0.0198  0.0725
15417TIP3   OH267741   4.041   3.692  11.745 -0.3853  0.0969  0.1382
15417TIP3    H167742   4.112   3.733  11.794 -0.3311 -0.5981  0.6557
15417TIP3    H267743   4.013   3.619  11.800 -2.0855  0.8561  0.3576
15418TIP3   OH267744   6.444   4.321   1.474  0.2261 -0.8606  0.2603
15418TIP3    H167745   6.464   4.414   1.465 -2.2295 -0.0064  2.4579
15418TIP3    H267746   6.350   4.314   1.453  0.2140 -2.7457  0.6985
15419TIP3   OH267747   1.822   3.262  14.636  0.3098  0.2466 -0.0713
15419TIP3    H167748   1.764   3.203  14.683  0.3448  0.4272  0.2032
15419TIP3    H267749   1.882   3.295  14.703  2.2913 -1.7565 -0.7156
15420TIP3   OH267750   0.520   3.582   5.298 -0.2361 -0.0554  0.0589
15420TIP3    H167751   0.433   3.544   5.307 -0.0398 -0.1560  1.8598
15420TIP3    H267752   0.513   3.668   5.337 -0.4213  1.5324 -3.1097
15421TIP3   OH267753   2.199   0.558   2.898  0.0628 -0.1507  0.2300
15421TIP3    H167754   2.115   0.511   2.898  0.0874 -0.2164 -0.5709
15421TIP3    H267755   2.220   0.570   2.990  0.4867 -2.5360  0.5291
15422TIP3   OH267756   1.475   3.665  11.955  0.2015  0.7447 -0.2982
15422TIP3    H167757   1.518   3.699  11.876  0.8474  0.0625 -0.2568
15422TIP3    H267758   1.531   3.696  12.026  1.1668 -0.8819 -0.2984
15423TIP3   OH267759   0.200   3.937   5.531  0.3519  0.4208 -0.2528
15423TIP3    H167760   0.132   3.995   5.495 -0.5301 -0.9438 -0.8459
15423TIP3    H267761   0.245   3.991   5.596 -0.5904  1.7006 -0.6236
15424TIP3   OH267762   2.206   6.201  16.447 -0.4850  0.7498  0.0787
15424TIP3    H167763   2.264   6.205  16.371 -0.0039  0.6154  0.4284
15424TIP3    H267764   2.171   6.112  16.446  0.1147  0.4995  0.4309
15425TIP3   OH267765   3.085   1.536   3.099  0.0715 -0.2412  0.4606
15425TIP3    H167766   3.131   1.576   3.173 -0.1617  0.5926  0.1605
15425TIP3    H267767   3.104   1.593   3.024 -0.6470 -0.4275  0.1226
15426TIP3   OH267768   5.887   5.674   0.633 -0.3496  1.1724 -0.2146
15426TIP3    H167769   5.843   5.589   0.631  2.2378 -0.3077  0.4807
15426TIP3    H267770   5.907   5.693   0.542  0.8919 -0.0700 -0.2404
15427TIP3   OH267771   1.355   3.922  15.916 -0.1412  0.2347 -0.2860
15427TIP3    H167772   1.279   3.979  15.932  0.4499  0.5401  1.6812
15427TIP3    H267773   1.327   3.835  15.946 -0.4597 -0.1994 -1.7224
15428TIP3   OH267774   1.060   2.896   2.273 -0.2725  0.4560  0.2184
15428TIP3    H167775   1.080   2.989   2.279  2.0556 -0.0072  0.6812
15428TIP3    H267776   1.098   2.869   2.189 -1.0497 -0.0692  0.0213
15429TIP3   OH267777   5.887   1.500  16.261 -0.6536 -0.3245 -0.5124
15429TIP3    H167778   5.958   1.436  16.253  0.2754  0.5828  0.1818
15429TIP3    H267779   5.873   1.532  16.172  1.6269  1.3492 -0.3733
15430TIP3   OH267780   1.425   5.890  11.433 -0.4136 -0.2988  0.4117
15430TIP3    H167781   1.331   5.896  11.443 -0.7667 -3.7853  0.6436
15430TIP3    H267782   1.446   5.948  11.360 -2.5022  1.3973  1.0709
15431TIP3   OH267783   4.668   0.598   3.255 -0.1410 -0.2047 -0.4266
15431TIP3    H167784   4.577   0.626   3.250 -0.0546  0.0575 -0.5981
15431TIP3    H267785   4.675   0.527   3.191 -0.6113 -1.3596  0.7597
15432TIP3   OH267786   1.862   3.375   5.571 -0.4436  0.4826 -0.1017
15432TIP3    H167787   1.823   3.413   5.649  1.2649  1.7500  0.1783
15432TIP3    H267788   1.814   3.293   5.558 -1.7051  0.9336  1.4380
15433TIP3   OH267789   0.303   4.224  15.791  0.3654 -0.2187 -0.4600
15433TIP3    H167790   0.267   4.136  15.804 -1.0373  0.4659  0.4048
15433TIP3    H267791   0.232   4.273  15.750  0.6889  0.8544  0.2371
15434TIP3   OH267792   6.417   2.841   6.674  0.2676  0.1243 -0.3578
15434TIP3    H167793   6.432   2.900   6.748 -1.2272 -0.0476  0.1078
15434TIP3    H267794   6.384   2.761   6.715  3.5801 -1.6841 -0.8004
15435TIP3   OH267795   2.741   2.346   6.611 -0.6074  0.4807 -0.0749
15435TIP3    H167796   2.829   2.306   6.614 -0.2714  1.0691 -1.3085
15435TIP3    H267797   2.688   2.281   6.564 -1.3273 -0.6784  2.1830
15436TIP3   OH267798   6.034   2.072  11.913  0.1529  0.3340  0.6486
15436TIP3    H167799   6.101   2.134  11.886 -0.3315  1.5740  2.1423
15436TIP3    H267800   5.987   2.117  11.984 -2.1853 -0.5330 -0.2650
15437TIP3   OH267801   1.361   2.492  15.607 -0.4792  0.0614  0.4907
15437TIP3    H167802   1.335   2.421  15.548 -0.1127  0.3772 -0.0574
15437TIP3    H267803   1.386   2.448  15.688  0.1041 -0.4717  0.0270
15438TIP3   OH267804   1.387   1.696  13.872  0.2915  0.2457  0.2200
15438TIP3    H167805   1.364   1.786  13.898 -0.3397  0.3254 -0.5734
15438TIP3    H267806   1.314   1.668  13.817  0.2719 -0.9300  0.8312
15439TIP3   OH267807   5.776   0.953   1.182 -0.3068  0.2231 -0.4114
15439TIP3    H167808   5.866   0.961   1.148 -0.1228 -1.2917 -0.3442
15439TIP3    H267809   5.786   0.904   1.263 -1.0751  1.2600  0.3381
15440TIP3   OH267810   2.225   0.590  16.037 -0.0901 -0.2260 -0.7305
15440TIP3    H167811   2.297   0.602  15.974 -0.7119 -1.2856 -1.6857
15440TIP3    H267812   2.244   0.505  16.078  0.5983  0.6940  0.9467
15441TIP3   OH267813   1.411   4.314   0.279  0.2145  0.1167 -0.2723
15441TIP3    H167814   1.422   4.353   0.192 -0.4702 -0.1300 -0.4763
15441TIP3    H267815   1.316   4.309   0.291  0.3031  0.2075  0.5221
15442TIP3   OH267816   1.782   3.118  13.455 -0.1658  0.0645  0.1059
15442TIP3    H167817   1.725   3.067  13.514  1.0121 -0.9183  0.4399
15442TIP3    H267818   1.804   3.056  13.385  1.4867  0.0169  0.6425
15443TIP3   OH267819   2.241   4.957  14.973  0.1868  0.6834 -0.3020
15443TIP3    H167820   2.266   4.909  14.894 -1.6943 -1.4166  0.2733
15443TIP3    H267821   2.323   4.971  15.020  1.0696  0.0159 -1.5849
15444TIP3   OH267822   3.895   3.334   5.512  0.2275 -0.3544 -0.3729
15444TIP3    H167823   3.816   3.337   5.566 -0.1247  1.7819 -0.9089
15444TIP3    H267824   3.891   3.248   5.469 -2.3032  0.0125 -1.0684
15445TIP3   OH267825   1.094   6.096  16.233 -0.5777 -0.8711 -0.1261
15445TIP3    H167826   1.150   6.018  16.230 -1.2466 -1.3541 -0.4121
15445TIP3    H267827   1.026   6.074  16.297  0.0860  0.0824  0.9401
15446TIP3   OH267828   3.737   5.093   5.244 -0.5640 -0.4512 -0.0240
15446TIP3    H167829   3.780   5.011   5.268  0.1836 -0.3803 -1.0706
15446TIP3    H267830   3.723   5.085   5.150 -1.8443  0.0040  0.1092
15447TIP3   OH267831   6.243   1.231   3.786 -0.5419  0.3883  0.0116
15447TIP3    H167832   6.211   1.150   3.746  0.4698  0.9266 -2.0349
15447TIP3    H267833   6.337   1.231   3.766  0.1999  0.3871  3.0797
15448TIP3   OH267834   1.795   6.360   3.548 -0.1487 -0.1386  0.1374
15448TIP3    H167835   1.858   6.296   3.516  1.6879  1.8232 -0.4284
15448TIP3    H267836   1.845   6.416   3.608 -1.4532  1.2153  0.0376
15449TIP3   OH267837   5.817   1.505   4.666  0.0070 -0.0888  0.0754
15449TIP3    H167838   5.897   1.522   4.617 -0.8569  0.5735 -1.1401
15449TIP3    H267839   5.784   1.423   4.631 -0.8146  0.5798 -0.7374
15450TIP3   OH267840   4.574   6.573   1.789 -0.8445 -0.1523 -0.3188
15450TIP3    H167841   4.629   6.523   1.728 -0.6605 -0.9750  0.4918
15450TIP3    H267842   4.611   6.554   1.875 -1.0231  1.0864  0.0485
15451TIP3   OH267843   0.429   2.655   5.596  0.5754  0.2540  0.3238
15451TIP3    H167844   0.353   2.603   5.570  0.3671  0.8274 -0.2373
15451TIP3    H267845   0.424   2.659   5.691 -1.0712  1.7047  0.2361
15452TIP3   OH267846   5.991   0.318  12.149 -0.5128 -0.0450  0.5026
15452TIP3    H167847   5.938   0.273  12.215 -1.1436  2.0421  1.5222
15452TIP3    H267848   6.009   0.404  12.188  0.9276  0.4629 -1.1714
15453TIP3   OH267849   0.386   6.532  14.954  0.1028  0.2808 -0.1581
15453TIP3    H167850   0.370   6.543  14.860 -0.7967  1.8320  0.1414
15453TIP3    H267851   0.395   6.437  14.966 -1.1725 -0.0549 -1.5760
15454TIP3   OH267852   3.215   3.112   3.993  0.3240 -0.2548 -0.7938
15454TIP3    H167853   3.242   3.053   3.923  2.2980  0.9326 -1.1392
15454TIP3    H267854   3.285   3.105   4.059 -2.1371 -2.3970  1.8693
15455TIP3   OH267855   5.141   3.337   5.905  0.0932 -0.1691  0.3861
15455TIP3    H167856   5.081   3.287   5.849  1.1207 -1.1350  0.1173
15455TIP3    H267857   5.171   3.409   5.850 -1.9082  1.2033  0.9843
15456TIP3   OH267858   6.096   5.401  16.075  0.0450 -0.0812  0.3932
15456TIP3    H167859   6.189   5.383  16.062  0.2850  0.6465  1.0223
15456TIP3    H267860   6.054   5.315  16.071  0.5648 -0.3145 -1.2032
15457TIP3   OH267861   4.394   1.518  13.544  0.4657 -0.3531 -0.6976
15457TIP3    H167862   4.390   1.582  13.616 -1.5188  0.9691 -1.8656
15457TIP3    H267863   4.329   1.452  13.567  1.2159 -0.9818 -0.3653
15458TIP3   OH267864   2.087   0.284  14.389 -0.2115  0.5443  0.3758
15458TIP3    H167865   2.080   0.376  14.366  0.6422  0.3741 -0.6637
15458TIP3    H267866   2.038   0.275  14.470 -0.8296  1.7859  0.1572
15459TIP3   OH267867   2.432   4.374  16.436  0.1556 -0.0178 -0.0036
15459TIP3    H167868   2.477   4.444  16.388 -0.1548 -0.0522 -0.3459
15459TIP3    H267869   2.440   4.297  16.380  0.0444 -0.1298  0.1346
15460TIP3   OH267870   1.991   6.811  14.403  0.0323  0.0735 -0.2789
15460TIP3    H167871   2.006   6.765  14.321 -1.9222 -1.7804  0.2802
15460TIP3    H267872   1.924   6.877  14.382  0.5977  0.5950 -0.4586
15461TIP3   OH267873   2.489   5.892   2.020 -0.2695  0.1711  0.0684
15461TIP3    H167874   2.438   5.961   2.062  0.4845  1.2870 -0.8064
15461TIP3    H267875   2.558   5.871   2.083 -1.1063 -0.5616  0.7792
15462TIP3   OH267876   4.342   5.500  11.460  0.0178  0.2948  0.3464
15462TIP3    H167877   4.295   5.516  11.542  0.9031  1.1203  0.7127
15462TIP3    H267878   4.273   5.475  11.398 -1.0050  1.9271  0.7401
15463TIP3   OH267879   6.708   4.453  12.131  0.1524 -0.7377 -0.2886
15463TIP3    H167880   6.681   4.443  12.040  0.2420 -0.6401 -0.3258
15463TIP3    H267881   6.669   4.378  12.176  1.3124 -1.5831 -0.6623
15464TIP3   OH267882   1.319   3.363  12.271  0.0915  0.3230  0.3575
15464TIP3    H167883   1.330   3.326  12.359  0.6152  2.3624  1.2035
15464TIP3    H267884   1.406   3.358  12.232 -0.6666 -3.1939 -1.2384
15465TIP3   OH267885   3.255   3.330  11.514  0.2200  0.4085  0.4867
15465TIP3    H167886   3.321   3.399  11.522  0.9288 -0.3769  1.8560
15465TIP3    H267887   3.294   3.267  11.454 -0.2625  0.9797 -0.4555
15466TIP3   OH267888   5.252   1.391  14.194 -0.0928 -0.4576 -0.0237
15466TIP3    H167889   5.187   1.350  14.136 -0.4902  0.5526 -0.3256
15466TIP3    H267890   5.310   1.439  14.135  1.1423 -1.6086  0.2236
15467TIP3   OH267891   1.720   1.015   4.990  0.1387 -0.5337 -0.5291
15467TIP3    H167892   1.790   0.957   5.018 -0.2045 -0.3312  0.8079
15467TIP3    H267893   1.764   1.096   4.964  0.5175 -0.9719 -1.2766
15468TIP3   OH267894   6.393   5.321  14.042 -0.2030 -0.2366  0.0551
15468TIP3    H167895   6.444   5.369  14.107 -0.3220  1.0679 -0.7711
15468TIP3    H267896   6.303   5.323  14.075 -0.2209  0.2009 -0.0121
15469TIP3   OH267897   3.829   1.639  15.492 -0.4102  0.3530  0.1762
15469TIP3    H167898   3.820   1.567  15.430 -0.8329  0.6650 -0.1268
15469TIP3    H267899   3.907   1.687  15.462  0.0447 -0.1403  0.5508
15470TIP3   OH267900   1.384   3.482   6.112 -0.6816 -0.1395 -0.0755
15470TIP3    H167901   1.303   3.526   6.086  0.1211  0.4543 -1.6475
15470TIP3    H267902   1.414   3.531   6.189 -0.7539  0.9211 -0.7109
15471TIP3   OH267903   3.174   2.889  15.096 -0.0400  0.5596 -0.0397
15471TIP3    H167904   3.173   2.901  15.191 -1.2742  0.7810 -0.0566
15471TIP3    H267905   3.085   2.912  15.069  0.3656  0.7258 -1.2808
15472TIP3   OH267906   0.187   2.137   0.505  0.7295 -0.0552  0.1576
15472TIP3    H167907   0.109   2.082   0.500  1.1055 -0.8003  1.6508
15472TIP3    H267908   0.169   2.197   0.578  1.5175 -0.2275  0.5090
15473TIP3   OH267909   5.848   0.228  17.125  0.4761  0.3428 -0.0951
15473TIP3    H167910   5.878   0.319  17.121 -0.2270  0.5429 -1.2566
15473TIP3    H267911   5.849   0.206  17.218  1.3289  1.3036  0.1421
15474TIP3   OH267912   1.427   4.673  13.642 -0.0130 -0.0421 -1.0155
15474TIP3    H167913   1.461   4.591  13.678  0.7048  0.9931  0.7900
15474TIP3    H267914   1.332   4.660  13.642  0.0205 -0.4797  0.3344
15475TIP3   OH267915   1.698   6.725   5.551  0.3680  0.1242  0.0301
15475TIP3    H167916   1.717   6.810   5.591  2.3608 -0.3226  0.1370
15475TIP3    H267917   1.704   6.741   5.457  0.9743  0.0739  0.0543
15476TIP3   OH267918   3.435   4.556   4.754  0.2657 -0.0225 -0.0997
15476TIP3    H167919   3.417   4.488   4.690 -1.9691  0.0595  0.3498
15476TIP3    H267920   3.418   4.515   4.839 -1.0114  1.0049  0.1829
15477TIP3   OH267921   1.061   2.347   4.536  0.4590  0.2718  0.2219
15477TIP3    H167922   1.090   2.294   4.610  1.9368 -0.0359 -0.5480
15477TIP3    H267923   1.094   2.435   4.555 -1.0418  0.7090  0.9586
15478TIP3   OH267924   1.269   5.168   1.116  0.0899  0.1792  0.2339
15478TIP3    H167925   1.356   5.179   1.077 -0.5374  1.3042 -0.9259
15478TIP3    H267926   1.285   5.172   1.210  1.3022  0.2403  0.0488
15479TIP3   OH267927   6.369   3.539   6.288  0.7034 -0.1568  0.5269
15479TIP3    H167928   6.293   3.482   6.299  0.4551 -0.0465 -0.5370
15479TIP3    H267929   6.333   3.628   6.290  0.7097 -0.1172 -0.5630
15480TIP3   OH267930   2.406   4.518  17.033 -0.1878  0.7310 -0.0536
15480TIP3    H167931   2.349   4.595  17.027  0.0170  0.8697 -0.2280
15480TIP3    H267932   2.346   4.444  17.026 -0.2347  0.8694 -1.5379
15481TIP3   OH267933   1.361   0.001   0.848  0.5028  0.4774  0.4032
15481TIP3    H167934   1.422   0.071   0.825  1.1762  0.1219  1.0546
15481TIP3    H267935   1.275   0.043   0.846  0.5048  0.4909 -2.5174
15482TIP3   OH267936   3.336   5.123  16.057 -0.1569  0.4323  0.4466
15482TIP3    H167937   3.312   5.048  16.003 -1.7364  0.2753  1.3198
15482TIP3    H267938   3.426   5.143  16.031 -0.5619 -0.1670 -1.6064
15483TIP3   OH267939   0.608   5.306   3.098 -0.4500  0.3101  0.2751
15483TIP3    H167940   0.534   5.257   3.133 -0.0830 -0.4449  0.0089
15483TIP3    H267941   0.614   5.383   3.154  0.5208 -1.1659  2.3213
15484TIP3   OH267942   3.461   5.055   0.192 -0.4042 -0.4169 -0.3875
15484TIP3    H167943   3.452   5.147   0.168 -0.2470  0.1855  1.6696
15484TIP3    H267944   3.400   5.009   0.135 -1.6421  1.1555 -0.3955
15485TIP3   OH267945   1.070   3.958  12.346  0.1622 -0.2127  0.0676
15485TIP3    H167946   0.993   3.901  12.342 -0.4714  0.5772  0.4176
15485TIP3    H267947   1.034   4.047  12.337  1.0960  0.1450 -0.2929
15486TIP3   OH267948   5.705   2.355   1.231 -0.1041 -0.8163  0.4093
15486TIP3    H167949   5.697   2.260   1.241  0.5064 -0.6294  3.8254
15486TIP3    H267950   5.646   2.391   1.298 -2.4086  1.3927 -2.5208
15487TIP3   OH267951   5.135   2.979   4.356  0.5147 -0.5025 -0.5675
15487TIP3    H167952   5.224   3.003   4.383  0.7797 -2.2850  0.3415
15487TIP3    H267953   5.091   3.062   4.339  1.6970  0.5296  1.1200
15488TIP3   OH267954   1.350   3.962   5.946 -0.0392  0.1111  0.1483
15488TIP3    H167955   1.337   3.880   5.899  0.9307  1.3237 -2.4271
15488TIP3    H267956   1.441   3.986   5.928  0.5920  0.4040  3.2164
15489TIP3   OH267957   2.683   4.520  14.676  0.0222 -0.2585  0.0043
15489TIP3    H167958   2.666   4.425  14.671  0.3595 -0.4425  1.8137
15489TIP3    H267959   2.762   4.533  14.625 -1.1980 -0.5760 -2.0998
15490TIP3   OH267960   6.390   5.019   3.777  0.2229 -0.4620 -0.4358
15490TIP3    H167961   6.370   5.024   3.683 -1.7056 -1.6315 -0.1489
15490TIP3    H267962   6.341   5.092   3.815  0.1039 -0.6523 -0.2218
15491TIP3   OH267963   6.504   4.413   3.556 -0.3289 -0.1282 -0.3890
15491TIP3    H167964   6.506   4.396   3.462  0.1126 -0.6860 -0.2878
15491TIP3    H267965   6.490   4.327   3.596 -1.1110  0.1848  0.0390
15492TIP3   OH267966   0.304   2.123  15.817  0.5498 -0.4429 -0.0173
15492TIP3    H167967   0.393   2.156  15.828 -0.2660  1.9668  0.0212
15492TIP3    H267968   0.264   2.183  15.754 -0.4715 -2.7016 -1.6581
15493TIP3   OH267969   5.696   1.061  14.254 -0.2232  0.0277  0.0246
15493TIP3    H167970   5.636   0.992  14.229  0.3072 -0.5616  0.3484
15493TIP3    H267971   5.690   1.125  14.183  0.0326 -0.8365 -0.8023
15494TIP3   OH267972   0.364   4.675   0.053  0.0755  0.3353  0.4459
15494TIP3    H167973   0.458   4.659   0.056 -0.0878 -0.5337  1.6451
15494TIP3    H267974   0.339   4.689   0.144 -1.3678 -2.0595  0.4931
15495TIP3   OH267975   5.224   6.089   1.402  0.4131 -0.1987 -0.7007
15495TIP3    H167976   5.319   6.100   1.407  0.1911  2.7919 -1.3111
15495TIP3    H267977   5.198   6.139   1.325 -1.7600  0.0662  0.1317
15496TIP3   OH267978   2.207   1.761  14.486 -0.1095 -0.4885  0.3906
15496TIP3    H167979   2.288   1.812  14.479 -0.3344 -0.2934 -1.1381
15496TIP3    H267980   2.137   1.824  14.470 -0.4147 -1.1361 -1.0216
15497TIP3   OH267981   4.493   6.060  15.629  0.0657 -0.1418  0.3996
15497TIP3    H167982   4.487   6.136  15.687  0.2485  1.5483 -1.6695
15497TIP3    H267983   4.549   6.088  15.558 -1.3265 -1.5848 -1.3891
15498TIP3   OH267984   4.571   3.549   1.343  0.3050 -0.1091  0.0509
15498TIP3    H167985   4.534   3.533   1.257 -0.3238 -1.5012  0.5564
15498TIP3    H267986   4.661   3.575   1.326  0.1714 -0.3116 -1.0197
15499TIP3   OH267987   5.162   0.380   0.461  0.1381 -0.3337 -0.3019
15499TIP3    H167988   5.211   0.337   0.391  0.4618  0.4070 -0.5460
15499TIP3    H267989   5.108   0.311   0.500 -1.3088 -0.4601 -2.3677
15500TIP3   OH267990   6.142   2.298   5.175 -0.0117 -0.1275  0.3439
15500TIP3    H167991   6.099   2.320   5.257  0.5874  0.3722  0.5318
15500TIP3    H267992   6.229   2.267   5.201  0.5662  1.0209 -0.1396
15501TIP3   OH267993   0.744   0.583   2.008 -0.0845  0.2626 -0.6984
15501TIP3    H167994   0.658   0.586   1.966 -0.9285 -1.6618  0.7227
15501TIP3    H267995   0.745   0.658   2.067 -1.8323 -0.9525  1.0031
15502TIP3   OH267996   6.398   1.846  13.172 -0.7192  0.2867  0.5721
15502TIP3    H167997   6.441   1.803  13.098 -0.7589  0.8356  0.2203
15502TIP3    H267998   6.469   1.860  13.236 -0.7857 -0.6351  0.8510
15503TIP3   OH267999   6.818   2.602  14.520  0.2450  0.1896 -0.0784
15503TIP3    H168000   6.741   2.646  14.555 -0.2712  0.1084 -1.0791
15503TIP3    H268001   6.867   2.575  14.598 -0.3780  0.8472  0.5669
15504TIP3   OH268002   5.209   5.799   6.457  0.0105  1.0205 -0.1242
15504TIP3    H168003   5.238   5.735   6.522 -0.0404  1.2378  0.1144
15504TIP3    H268004   5.113   5.797   6.461  0.0069  1.0445 -0.1805
15505TIP3   OH268005   5.755   6.252  14.521  0.0872  0.5134 -0.2770
15505TIP3    H168006   5.779   6.259  14.429 -2.2425  0.4239 -0.9489
15505TIP3    H268007   5.835   6.220  14.564  1.1717  0.3651 -2.2684
15506TIP3   OH268008   2.985   2.520  11.792  0.7914  0.2490  0.4981
15506TIP3    H168009   3.058   2.555  11.739  0.5129  0.0013 -0.0616
15506TIP3    H268010   3.022   2.508  11.879  1.9088 -1.4220 -0.1639
15507TIP3   OH268011   6.629   0.784  14.049  0.0836 -0.1972 -0.2578
15507TIP3    H168012   6.701   0.768  13.988  1.5075  0.7212  1.0965
15507TIP3    H268013   6.580   0.856  14.010  1.4363  0.9061  0.0277
15508TIP3   OH268014   3.013   3.990  12.259  0.1811 -0.2266 -0.7979
15508TIP3    H168015   2.989   4.081  12.240  2.2100  0.1461 -1.8383
15508TIP3    H268016   3.097   3.996  12.304  1.3025 -1.5894 -2.5662
15509TIP3   OH268017   5.656   4.224  13.529 -0.5127  0.6019  0.4386
15509TIP3    H168018   5.690   4.305  13.568  0.6364  0.9616 -1.1956
15509TIP3    H268019   5.682   4.229  13.437  0.1066 -1.9048  0.4106
15510TIP3   OH268020   4.343   0.732  13.452  0.2516  0.2100 -0.8957
15510TIP3    H168021   4.266   0.739  13.509 -1.9052 -0.8485 -3.4643
15510TIP3    H268022   4.370   0.641  13.460 -0.1662  0.0142 -1.6646
15511TIP3   OH268023   5.348   3.567   2.107  0.0380  0.2445  0.4555
15511TIP3    H168024   5.323   3.629   2.039  1.8807  0.3070 -0.2151
15511TIP3    H268025   5.441   3.553   2.093  0.3607 -0.1376  2.6580
15512TIP3   OH268026   5.234   0.023  16.503  0.0591  0.0509  0.2727
15512TIP3    H168027   5.293  -0.044  16.538 -0.1042 -0.0121  0.4255
15512TIP3    H268028   5.147  -0.007  16.527 -0.1106 -0.3517 -0.7993
15513TIP3   OH268029   6.606   3.396   2.746  0.2580  0.2120  0.0338
15513TIP3    H168030   6.644   3.483   2.762 -0.0667  0.4299 -0.3700
15513TIP3    H268031   6.660   3.358   2.677  1.0415 -0.3302  0.9216
15514TIP3   OH268032   3.022   5.506  13.948  0.0207  0.8643 -0.3255
15514TIP3    H168033   2.929   5.507  13.972  0.1291 -0.5673  0.2215
15514TIP3    H268034   3.028   5.444  13.875  0.4075  1.7237 -1.0416
15515TIP3   OH268035   3.503   2.856   1.633  0.3456 -0.6200  0.2699
15515TIP3    H168036   3.561   2.781   1.646  1.2406  0.0502  0.2425
15515TIP3    H268037   3.548   2.929   1.675 -0.4309 -0.0616  0.1484
15516TIP3   OH268038   1.333   5.881  13.914  0.4789 -0.1131 -0.2885
15516TIP3    H168039   1.403   5.933  13.953  0.4374  0.7035 -1.2810
15516TIP3    H268040   1.364   5.858  13.827 -0.3038 -0.1305 -0.5741
15517TIP3   OH268041   2.990   3.103   5.003  0.1457 -0.1819  0.3009
15517TIP3    H168042   2.966   3.058   4.922  0.7373  0.8395 -0.4663
15517TIP3    H268043   2.910   3.100   5.056 -0.3680 -0.5448 -0.4617
15518TIP3   OH268044   6.404   1.226   3.366  0.1798  0.4487  0.1035
15518TIP3    H168045   6.393   1.288   3.438 -0.6941 -0.2366  0.5817
15518TIP3    H268046   6.484   1.255   3.321 -0.8323  2.6627 -0.4477
15519TIP3   OH268047   1.373   3.896  12.739  0.4855  0.5020  0.0251
15519TIP3    H168048   1.365   3.908  12.645 -1.0601  3.2285  0.3911
15519TIP3    H268049   1.453   3.943  12.763  0.9808 -0.3502  0.0572
15520TIP3   OH268050   3.521   5.123   2.301  0.4885 -0.6889 -0.0252
15520TIP3    H168051   3.519   5.027   2.304 -4.4414 -0.8214  1.2216
15520TIP3    H268052   3.469   5.150   2.377  1.5497  3.0159 -0.4425
15521TIP3   OH268053   5.299   2.919  12.931  0.0152 -0.1207 -0.0906
15521TIP3    H168054   5.308   2.940  13.024  1.2864  0.0095 -0.2252
15521TIP3    H268055   5.350   2.986  12.886 -0.7736 -0.0494 -0.9024
15522TIP3   OH268056   4.585   0.285   0.484  0.3015 -0.6374 -0.1846
15522TIP3    H168057   4.619   0.209   0.533 -1.3260 -0.6775  0.9481
15522TIP3    H268058   4.558   0.249   0.400  0.0683 -1.2175  0.1331
15523TIP3   OH268059   0.010   1.748   2.467  0.3559  0.2466 -0.7026
15523TIP3    H168060   0.088   1.778   2.514 -0.4032 -0.4303  1.0787
15523TIP3    H268061  -0.046   1.826   2.462  0.4052  0.3045 -0.3952
15524TIP3   OH268062   2.817   2.103  16.983  0.7659 -0.9152 -0.0602
15524TIP3    H168063   2.798   2.129  16.893 -0.1880  1.0943  0.6503
15524TIP3    H268064   2.790   2.012  16.988 -1.8836 -0.2844 -1.1104
15525TIP3   OH268065   1.769   1.922   5.058  0.2574  0.5513 -0.4545
15525TIP3    H168066   1.757   1.846   5.115 -0.6149  1.8592  1.2208
15525TIP3    H268067   1.864   1.935   5.055  0.4290 -0.6713 -0.9036
15526TIP3   OH268068   1.091   1.199  14.393 -0.0606 -0.0022 -0.0826
15526TIP3    H168069   1.130   1.115  14.371 -1.5039 -0.6427 -0.3226
15526TIP3    H268070   1.139   1.228  14.471  1.6292 -0.1766 -1.0038
15527TIP3   OH268071   4.015   6.076   2.997  0.2973  0.2264 -0.1912
15527TIP3    H168072   4.076   6.147   3.019  0.7594 -0.5928  1.3163
15527TIP3    H268073   4.058   5.997   3.028 -0.2360 -0.7359 -1.7993
15528TIP3   OH268074   2.269   4.292  17.065 -0.8001  0.1420 -0.0604
15528TIP3    H168075   2.308   4.222  17.013  0.2508 -0.6626  1.7050
15528TIP3    H268076   2.176   4.269  17.071 -1.0593  0.5585 -1.9869
15529TIP3   OH268077   3.506   3.800  13.968 -0.5380  0.1547 -0.0405
15529TIP3    H168078   3.552   3.727  14.009 -0.7843 -0.1732 -0.3457
15529TIP3    H268079   3.484   3.858  14.041 -0.7142 -0.2827  0.2566
15530TIP3   OH268080   5.217   3.116   2.900 -0.3998  0.8994 -0.4656
15530TIP3    H168081   5.226   3.190   2.959  1.9985  2.1507 -2.2492
15530TIP3    H268082   5.288   3.126   2.836 -0.7278 -2.2546 -1.5359
15531TIP3   OH268083   0.663   2.770   5.854  0.0684 -0.0136 -0.1323
15531TIP3    H168084   0.660   2.841   5.918  0.4635 -0.2264  0.1291
15531TIP3    H268085   0.577   2.729   5.859  0.2795 -0.3866  0.6816
15532TIP3   OH268086   4.773   1.129  15.644 -0.4774 -0.3254  0.0302
15532TIP3    H168087   4.755   1.038  15.669  0.7782 -0.5233  0.2814
15532TIP3    H268088   4.836   1.123  15.573 -1.7556  0.3308 -1.1997
15533TIP3   OH268089   3.409   3.086   2.981 -0.1789 -0.0058 -0.1364
15533TIP3    H168090   3.348   3.073   2.909 -1.0507  0.0769  0.5613
15533TIP3    H268091   3.396   3.009   3.037 -0.8181  0.7831  0.8276
15534TIP3   OH268092   5.874   4.546   4.147 -0.1576  0.4359  0.2454
15534TIP3    H168093   5.837   4.631   4.170 -0.7585  0.5735 -1.1485
15534TIP3    H268094   5.966   4.563   4.129 -0.5228  1.0202 -1.1502
15535TIP3   OH268095   5.026   5.654   3.389  0.0557 -0.1730 -0.4239
15535TIP3    H168096   5.040   5.615   3.303 -2.0786 -1.2421 -0.3512
15535TIP3    H268097   5.102   5.626   3.441  1.0593 -0.0216 -1.7615
15536TIP3   OH268098   3.940   0.772  12.699  0.1089  0.4214  0.0131
15536TIP3    H168099   3.855   0.805  12.729  0.0841  1.2434 -0.9239
15536TIP3    H268100   4.002   0.805  12.764 -0.4683 -1.8766  1.8742
15537TIP3   OH268101   4.965   0.152  13.377 -0.0077  0.2527  0.5108
15537TIP3    H168102   5.049   0.155  13.333  0.3088 -0.8446  1.0286
15537TIP3    H268103   4.903   0.126  13.308  0.1856  0.3199  0.3082
15538TIP3   OH268104   6.061   6.595   2.154  0.1927 -0.3736  0.3499
15538TIP3    H168105   6.049   6.685   2.185 -0.2480 -0.4896  0.5287
15538TIP3    H268106   6.152   6.575   2.174 -0.1361 -0.5301  1.8139
15539TIP3   OH268107   1.334   5.614  12.580 -0.5592  0.1858 -0.4756
15539TIP3    H168108   1.390   5.666  12.523 -0.6199  0.5721 -0.1857
15539TIP3    H268109   1.331   5.663  12.662 -1.8447  0.5149 -0.7019
15540TIP3   OH268110   0.170   5.631   0.218  0.0430  0.2378  0.5238
15540TIP3    H168111   0.134   5.584   0.292  2.0891  0.6484  1.8652
15540TIP3    H268112   0.140   5.583   0.141 -2.2869 -0.0825  1.5684
15541TIP3   OH268113   1.862   5.996  13.108  0.0152  0.7645 -0.4298
15541TIP3    H168114   1.928   6.032  13.049 -0.7900 -0.2658 -2.0507
15541TIP3    H268115   1.779   6.030  13.075 -0.4422  0.3193  0.2387
15542TIP3   OH268116   2.227   2.502  15.225  0.6294 -0.0353 -0.0968
15542TIP3    H168117   2.268   2.548  15.298  0.4333  0.8645 -0.5430
15542TIP3    H268118   2.236   2.561  15.151 -0.5686 -0.2527 -0.4397
15543TIP3   OH268119   6.530   6.550   4.950 -0.0981  0.7208  0.1998
15543TIP3    H168120   6.554   6.619   4.888 -1.6284 -0.1373 -1.4373
15543TIP3    H268121   6.436   6.539   4.938 -0.2312 -0.3155  1.8605
15544TIP3   OH268122   2.222   2.166   4.933 -0.4782  0.0724  0.4691
15544TIP3    H168123   2.245   2.251   4.972  0.9067  0.3178 -0.7681
15544TIP3    H268124   2.189   2.188   4.846 -0.3660 -0.6438  0.2377
15545TIP3   OH268125   3.954   3.474   1.005  0.2124 -0.0180  0.0918
15545TIP3    H168126   3.924   3.477   1.095  0.6982 -0.9666  0.2970
15545TIP3    H268127   4.048   3.491   1.010  0.9355 -3.4718  0.1788
15546TIP3   OH268128   2.554   1.728   2.782 -0.0361 -0.0171  0.1555
15546TIP3    H168129   2.612   1.706   2.854  3.6174  1.6377 -2.0302
15546TIP3    H268130   2.550   1.647   2.730  0.1261 -0.1876  0.4040
15547TIP3   OH268131   0.932   1.322  14.725  0.0057 -0.2586 -0.0391
15547TIP3    H168132   0.882   1.243  14.704 -1.2604  0.4513  0.1979
15547TIP3    H268133   0.902   1.346  14.813 -0.4786  1.0997 -0.5502
15548TIP3   OH268134   1.052   5.177   1.823  0.3383  0.9531 -0.3104
15548TIP3    H168135   1.013   5.155   1.908 -1.5329 -0.4392 -1.4554
15548TIP3    H268136   1.131   5.227   1.845  1.2073 -1.3159  2.3243
15549TIP3   OH268137   4.121   2.530   3.795 -0.1030  0.5322 -0.7452
15549TIP3    H168138   4.143   2.559   3.707  1.4697  1.2015 -0.1747
15549TIP3    H268139   4.201   2.544   3.846 -0.5061 -1.1711  0.4778
15550TIP3   OH268140   2.050   3.311   0.465  0.0528 -0.2316  0.4496
15550TIP3    H168141   2.051   3.216   0.472 -1.3426 -0.2787  0.2335
15550TIP3    H268142   2.022   3.342   0.551 -1.4797 -0.1282 -0.0529
15551TIP3   OH268143   5.415   4.567  15.850  0.0103  0.3667  0.3734
15551TIP3    H168144   5.387   4.591  15.938  1.5534  2.4380  0.3687
15551TIP3    H268145   5.405   4.647  15.798  2.3137  0.1895 -0.4733
15552TIP3   OH268146   2.778   4.993   2.736  0.3111 -0.5310 -0.2773
15552TIP3    H168147   2.776   5.084   2.706  3.1966 -0.0812  0.5812
15552TIP3    H268148   2.768   4.999   2.831 -2.3199 -1.4035 -0.4401
15553TIP3   OH268149   4.919   6.538  16.662 -0.0288  1.1397 -0.1410
15553TIP3    H168150   4.903   6.444  16.672  0.5856  1.0073 -0.3809
15553TIP3    H268151   4.899   6.575  16.748 -0.5060  0.8242 -0.1151
15554TIP3   OH268152   5.493   0.633   4.477  0.2505  0.0175  0.6224
15554TIP3    H168153   5.435   0.604   4.547  1.6358 -2.4001  0.8879
15554TIP3    H268154   5.446   0.614   4.396  0.2788 -1.1179  0.8536
15555TIP3   OH268155   2.852   5.572   2.143 -0.1359 -0.0279  0.4277
15555TIP3    H168156   2.869   5.580   2.237  0.1246 -1.0952  0.4851
15555TIP3    H268157   2.927   5.523   2.109  0.9179  2.2211 -0.7519
15556TIP3   OH268158   1.572   3.331  12.202  0.0545  0.2973 -0.1554
15556TIP3    H168159   1.625   3.337  12.123  1.4026  2.6458  0.8518
15556TIP3    H268160   1.588   3.242  12.235  0.4069 -0.2927 -1.8348
15557TIP3   OH268161   4.607   0.850   6.024  0.3064  0.2965  0.3443
15557TIP3    H168162   4.642   0.823   5.939  0.3056 -0.8000  0.6775
15557TIP3    H268163   4.516   0.875   6.005  0.4913  0.6780 -0.0784
15558TIP3   OH268164   3.906   1.038  11.433 -0.4908  0.2988 -0.2003
15558TIP3    H168165   3.855   0.959  11.415 -1.8343  1.5542 -2.2410
15558TIP3    H268166   3.849   1.091  11.489 -0.3619  0.5971 -0.3505
15559TIP3   OH268167   3.377   4.211   5.684 -0.1535  0.3502  0.4145
15559TIP3    H168168   3.383   4.291   5.737 -2.5017  1.3772 -0.7159
15559TIP3    H268169   3.285   4.185   5.691 -0.4829  0.2993 -2.7451
15560TIP3   OH268170   6.355   4.009   4.787  0.1245  0.1035  0.2807
15560TIP3    H168171   6.376   3.958   4.865 -0.3690 -0.1425  0.2537
15560TIP3    H268172   6.428   3.992   4.728 -0.5646 -1.4817 -0.1704
15561TIP3   OH268173   0.211   3.155   2.610  0.0334 -0.4131 -0.1301
15561TIP3    H168174   0.283   3.098   2.635 -1.3560 -2.4856 -0.5335
15561TIP3    H268175   0.145   3.096   2.573 -2.4716  1.1467  1.4793
15562TIP3   OH268176   5.084   3.828   3.852  0.7726 -0.3347  0.6103
15562TIP3    H168177   5.005   3.789   3.814  0.8356  0.8007 -0.7968
15562TIP3    H268178   5.052   3.905   3.900  0.9036 -0.6261  1.1753
15563TIP3   OH268179   5.701   5.732   5.684  0.1149 -0.1750 -0.3853
15563TIP3    H168180   5.670   5.662   5.625  1.2514 -0.1475 -1.0536
15563TIP3    H268181   5.641   5.729   5.758 -1.1361 -0.4699 -1.3654
15564TIP3   OH268182   5.449   4.310   4.134 -0.0048 -0.2703 -0.7866
15564TIP3    H168183   5.483   4.294   4.222 -1.1075  0.7948 -0.1209
15564TIP3    H268184   5.373   4.367   4.149  0.9517  1.5906 -2.5783
15565TIP3   OH268185   3.902   0.209   4.392 -0.1205 -0.4821 -0.5776
15565TIP3    H168186   3.949   0.258   4.459  0.3494 -0.6682 -0.7618
15565TIP3    H268187   3.913   0.260   4.312 -1.4985  0.2376 -0.3306
15566TIP3   OH268188   4.234   5.999   3.617  0.3918  0.1326  0.2711
15566TIP3    H168189   4.153   6.029   3.576  1.0550  0.8078 -0.5743
15566TIP3    H268190   4.281   5.953   3.548  0.6238 -0.4678  0.8231
15567TIP3   OH268191   6.768   0.878   0.009  0.6874  0.8343 -0.0893
15567TIP3    H168192   6.769   0.890   0.104  0.0189  2.5165 -0.2612
15567TIP3    H268193   6.853   0.911  -0.020 -0.0887  2.7854 -0.2892
15568TIP3   OH268194   0.279   1.006  16.841 -0.2236  0.0513 -0.1701
15568TIP3    H168195   0.218   1.079  16.848  0.6524  0.8931 -1.1425
15568TIP3    H268196   0.230   0.938  16.795 -2.1230 -1.2437  3.3568
15569TIP3   OH268197   4.237   4.277   4.504 -0.2073 -0.0160 -0.3394
15569TIP3    H168198   4.286   4.341   4.452 -0.9062 -0.4880 -1.6274
15569TIP3    H268199   4.300   4.208   4.523 -0.2854 -0.5454 -1.8465
15570TIP3   OH268200   1.146   2.964   1.560  0.7633  0.1420 -0.1144
15570TIP3    H168201   1.088   3.007   1.497  0.0627  0.9104  1.0054
15570TIP3    H268202   1.232   3.002   1.544  0.1481  2.0959  0.8862
15571TIP3   OH268203   5.790   6.719   2.534 -0.2749 -0.0048  0.2329
15571TIP3    H168204   5.789   6.812   2.513 -0.3079  0.0404  0.4345
15571TIP3    H268205   5.701   6.700   2.564 -0.0818  0.0530  0.8614
15572TIP3   OH268206   2.682   2.228   3.119  0.4008 -0.0549  0.1184
15572TIP3    H168207   2.617   2.195   3.056  0.3711 -0.1141  0.1796
15572TIP3    H268208   2.632   2.240   3.200  0.4005  0.1899  0.0827
15573TIP3   OH268209   1.348   1.050  11.708  0.5382 -0.0279  0.5248
15573TIP3    H168210   1.364   0.961  11.676 -1.1822  0.0535 -0.7042
15573TIP3    H268211   1.253   1.060  11.703  0.8055  2.4175 -0.8283
15574TIP3   OH268212   2.688   1.386   4.621 -0.5504 -0.1190  0.5328
15574TIP3    H168213   2.663   1.478   4.631  0.5234  0.3735 -0.8998
15574TIP3    H268214   2.635   1.355   4.548  0.8486  0.1043 -0.6165
15575TIP3   OH268215   0.028   3.615   1.913 -0.7049  0.3798 -0.0002
15575TIP3    H168216   0.081   3.655   1.844 -0.4004 -1.2928 -0.7677
15575TIP3    H268217   0.076   3.636   1.994 -1.5171  3.0942 -0.1084
15576TIP3   OH268218   4.304   4.768   0.975 -0.6966 -0.1747 -0.4924
15576TIP3    H168219   4.251   4.846   0.988  0.7175  1.0851 -1.8313
15576TIP3    H268220   4.356   4.760   1.055  0.6469  1.5378 -1.1315
15577TIP3   OH268221   2.574   2.968  16.625  0.0233 -0.9516  0.2200
15577TIP3    H168222   2.537   2.880  16.636 -0.7419 -0.4199  2.7976
15577TIP3    H268223   2.642   2.974  16.693  0.8721  0.0598 -0.6933
15578TIP3   OH268224   0.165   0.870  13.642 -0.4154 -0.7093 -0.1713
15578TIP3    H168225   0.161   0.778  13.668  2.2158 -0.7206  0.5548
15578TIP3    H268226   0.259   0.891  13.644 -0.9283  1.9630 -0.4138
15579TIP3   OH268227   3.258   1.371  10.363  0.0725 -0.3545  0.1647
15579TIP3    H168228   3.309   1.379  10.443 -0.4438  0.3051  0.4346
15579TIP3    H268229   3.167   1.371  10.392 -0.1042 -1.2106 -0.3345
15580TIP3   OH268230   0.694   3.403   3.449 -0.9150 -0.2788 -0.2708
15580TIP3    H168231   0.765   3.453   3.491 -0.1998 -0.4720 -1.2127
15580TIP3    H268232   0.676   3.451   3.368 -1.0296 -0.9012 -0.6185
15581TIP3   OH268233   6.050   0.099   3.440 -0.3713 -0.1009  0.1104
15581TIP3    H168234   6.010   0.171   3.489 -0.3630 -1.2169  1.8681
15581TIP3    H268235   6.022   0.112   3.350  0.3114  2.5524  0.1989
15582TIP3   OH268236   1.400   0.804  11.608 -0.6201  0.2069 -0.2647
15582TIP3    H168237   1.475   0.752  11.579 -0.7765 -1.3706  1.9653
15582TIP3    H268238   1.325   0.763  11.565 -0.6443 -0.9204  0.8108
15583TIP3   OH268239   2.565   5.694   3.854 -0.0948 -0.2890  0.0479
15583TIP3    H168240   2.547   5.788   3.845  0.8512 -0.1485 -0.4580
15583TIP3    H268241   2.650   5.690   3.898 -0.0940 -0.9085 -0.0062
15584TIP3   OH268242   2.142   1.908   1.698  0.2333 -0.0189  0.5040
15584TIP3    H168243   2.047   1.922   1.708  0.2304  3.4591 -2.3213
15584TIP3    H268244   2.180   1.952   1.773 -0.3090 -1.8330  1.9124
15585TIP3   OH268245   4.451   3.071   5.744  0.1166  0.2505  0.1734
15585TIP3    H168246   4.382   3.014   5.778  1.1722 -0.6465  0.8882
15585TIP3    H268247   4.522   3.011   5.722  0.4905  1.1064 -1.0511
15586TIP3   OH268248   5.710   2.021   3.797  0.3453 -0.0897 -0.3808
15586TIP3    H168249   5.673   2.070   3.870 -1.5974 -0.1097 -1.2942
15586TIP3    H268250   5.721   2.086   3.728  2.2185 -0.0578 -0.1115
15587TIP3   OH268251   5.908   0.848  12.983  0.1801  0.6627 -0.1742
15587TIP3    H168252   5.867   0.795  13.051 -2.7435  0.3481 -2.0170
15587TIP3    H268253   5.985   0.796  12.957 -1.7720 -2.1301 -0.9192
15588TIP3   OH268254   5.038   3.042  13.046  0.3248 -0.2418  0.3557
15588TIP3    H168255   5.043   2.972  13.111  1.3311 -0.0759  0.4877
15588TIP3    H268256   5.043   2.997  12.962 -0.6079 -0.4329  0.4004
15589TIP3   OH268257   2.815   5.505  12.662  0.5254  0.2627  0.0541
15589TIP3    H168258   2.813   5.455  12.581 -0.6736 -2.1456  1.4609
15589TIP3    H268259   2.745   5.467  12.716  0.8083  2.2263  1.9628
15590TIP3   OH268260   5.425   1.541  14.455  0.4289  0.0251 -0.4071
15590TIP3    H168261   5.390   1.453  14.446 -0.2901  0.1783  0.7322
15590TIP3    H268262   5.463   1.544  14.542  0.9293  0.6833 -0.6337
15591TIP3   OH268263   6.297   5.564  11.885 -0.0185 -0.3429  0.2241
15591TIP3    H168264   6.270   5.472  11.890 -2.1481  0.0714 -1.9538
15591TIP3    H268265   6.264   5.603  11.966  1.9326 -1.6521  1.7435
15592TIP3   OH268266   2.573   1.127  13.572 -0.2551 -0.3548  0.3259
15592TIP3    H168267   2.558   1.210  13.527 -0.2569 -0.9041 -0.7049
15592TIP3    H268268   2.486   1.089  13.582 -0.1623 -0.6714 -0.0612
15593TIP3   OH268269   1.934   0.803  12.486  0.6545 -0.3298 -0.2641
15593TIP3    H168270   1.972   0.875  12.537  0.2211 -0.7879  0.7290
15593TIP3    H268271   1.981   0.725  12.517 -0.1357 -0.7145 -0.0068
15594TIP3   OH268272   4.236   1.221  16.477 -0.1735 -0.3807 -0.1572
15594TIP3    H168273   4.327   1.209  16.503  0.5119  4.0874  0.2219
15594TIP3    H268274   4.186   1.179  16.546  1.6276  0.0571  1.5070
15595TIP3   OH268275   0.377   4.793   2.866 -0.3400  0.2863 -0.2865
15595TIP3    H168276   0.302   4.831   2.820 -1.0092 -1.8329 -1.0427
15595TIP3    H268277   0.431   4.755   2.797 -0.8171 -2.0118  0.5348
15596TIP3   OH268278   3.109   5.480   1.814 -0.1133 -0.4870  0.6547
15596TIP3    H168279   3.066   5.411   1.865  0.1288 -1.9150 -0.9797
15596TIP3    H268280   3.057   5.488   1.734  0.0649  1.0099  0.6582
15597TIP3   OH268281   4.742   1.792  15.543 -0.2267  0.8450  0.4976
15597TIP3    H168282   4.788   1.730  15.487  2.8562  1.7523  1.7775
15597TIP3    H268283   4.712   1.739  15.617 -0.9247  0.3039 -0.1552
15598TIP3   OH268284   5.078   0.085   3.265  0.3901 -0.0423  0.1421
15598TIP3    H168285   5.093  -0.008   3.279 -1.3553 -0.6381 -1.4988
15598TIP3    H268286   5.062   0.120   3.352  1.3182 -1.2191  0.8132
15599TIP3   OH268287   1.482   3.725   0.758  0.2259 -1.1185  0.6018
15599TIP3    H168288   1.537   3.647   0.765 -0.6879 -1.8034  0.1717
15599TIP3    H268289   1.394   3.692   0.744 -0.3019 -0.0226  1.1919
15600TIP3   OH268290   4.878   0.217   5.392 -0.1848 -0.5447 -0.3661
15600TIP3    H168291   4.910   0.295   5.439 -1.1077 -0.8900  0.9114
15600TIP3    H268292   4.899   0.144   5.450 -1.1819 -1.0172 -0.5819
15601TIP3   OH268293   0.464   3.236   3.313 -0.0470 -0.2330 -0.4566
15601TIP3    H168294   0.461   3.328   3.287 -1.8097 -0.4567 -1.1932
15601TIP3    H268295   0.407   3.231   3.391  0.0533 -0.6915 -0.4102
15602TIP3   OH268296   1.674   3.771   3.057 -0.1240 -1.2322 -0.6038
15602TIP3    H168297   1.631   3.690   3.028 -0.9325  0.2807 -4.2629
15602TIP3    H268298   1.738   3.790   2.988  1.1951  0.4163  0.9880
15603TIP3   OH268299   1.174   1.943  13.228 -0.3929 -0.1361  0.3508
15603TIP3    H168300   1.151   1.861  13.185 -1.7048  0.6037 -0.4112
15603TIP3    H268301   1.138   2.011  13.171  0.4360  0.9728  1.1018
15604TIP3   OH268302   4.102   2.875  11.174  0.1995 -0.7882  0.3118
15604TIP3    H168303   4.157   2.923  11.112  0.1222  0.1761  0.9703
15604TIP3    H268304   4.156   2.800  11.201 -0.0840 -1.7399 -1.5428
15605TIP3   OH268305   1.528   1.730  12.481 -0.9334 -0.6769  0.0964
15605TIP3    H168306   1.504   1.638  12.489  0.2783 -0.8879  1.4549
15605TIP3    H268307   1.445   1.773  12.457 -1.7598 -1.9476  0.5479
15606TIP3   OH268308   5.020   5.458  11.426 -0.1526 -0.3831 -0.2156
15606TIP3    H168309   5.092   5.395  11.427  1.0934  0.9460 -1.5315
15606TIP3    H268310   5.037   5.514  11.502 -1.2900 -1.5911  0.9856
15607TIP3   OH268311   6.578   1.135  15.819 -0.3951  0.0150 -0.8382
15607TIP3    H168312   6.577   1.231  15.822  0.9699  0.0351 -0.1916
15607TIP3    H268313   6.628   1.114  15.741 -0.0101 -0.1626 -0.5453
15608TIP3   OH268314   4.447   1.365  16.669 -0.2097  0.2249 -0.5566
15608TIP3    H168315   4.441   1.305  16.743 -1.2332  0.0520 -0.7634
15608TIP3    H268316   4.525   1.337  16.620 -0.2078 -0.3992 -0.1908
15609TIP3   OH268317   1.418   3.103  13.788  0.0070 -0.2162 -0.3816
15609TIP3    H168318   1.452   3.191  13.806 -0.8156  0.2551 -1.0622
15609TIP3    H268319   1.469   3.074  13.712 -1.4571  0.7360 -1.7874
15610TIP3   OH268320   5.584   4.338   6.496  0.4694  0.5177  0.3938
15610TIP3    H168321   5.618   4.279   6.564 -1.6077 -0.5764  0.5610
15610TIP3    H268322   5.492   4.351   6.520 -0.2758  0.2522 -2.0714
15611TIP3   OH268323   1.896   6.458  13.443 -0.6565  0.4987  0.4656
15611TIP3    H168324   1.811   6.415  13.445 -0.9529  0.7787 -2.1280
15611TIP3    H268325   1.955   6.396  13.486 -1.9733 -0.1629  1.3930
15612TIP3   OH268326   4.006   5.542   2.579 -0.4850 -0.2633 -0.0858
15612TIP3    H168327   4.021   5.623   2.627 -1.4579 -0.7686  1.1171
15612TIP3    H268328   3.960   5.484   2.641 -0.6484 -1.3980 -1.2046
15613TIP3   OH268329   1.222   0.457   2.454 -0.3863  0.1099  0.4920
15613TIP3    H168330   1.205   0.369   2.421  0.3963  0.0205  0.3201
15613TIP3    H268331   1.237   0.510   2.376  2.7497 -0.3680  0.6661
15614TIP3   OH268332   3.267   6.299  16.652  0.1288  0.2195 -0.4263
15614TIP3    H168333   3.253   6.243  16.729  1.7771  1.3993  0.8060
15614TIP3    H268334   3.223   6.381  16.674  1.4688  0.9193 -0.2723
15615TIP3   OH268335   3.058   6.643  11.602 -0.2519  0.1655  0.3084
15615TIP3    H168336   3.094   6.600  11.680 -0.8027  0.8822  0.9787
15615TIP3    H268337   3.098   6.730  11.602  2.4182 -0.9004 -2.1409
15616TIP3   OH268338   0.753   0.312   0.647 -0.8006  0.5757 -0.7149
15616TIP3    H168339   0.808   0.380   0.685  1.7347 -1.4852 -0.4396
15616TIP3    H268340   0.668   0.325   0.690  0.7848  0.8901  2.7098
15617TIP3   OH268341   0.054   6.643  15.002  0.0956  0.4108  0.5206
15617TIP3    H168342   0.145   6.669  15.010  0.7330 -0.4617 -2.6843
15617TIP3    H268343   0.019   6.697  14.930 -1.0999 -1.1450 -0.1397
15618TIP3   OH268344   6.495   5.787  11.269  0.3141  0.6427  0.2006
15618TIP3    H168345   6.463   5.839  11.342 -2.9387 -0.6799 -0.0893
15618TIP3    H268346   6.472   5.837  11.191 -1.5277 -0.4596 -0.0260
15619TIP3   OH268347   0.430   2.415   2.364 -0.2471  0.0463  0.0917
15619TIP3    H168348   0.412   2.323   2.384 -1.2262 -0.0610 -1.1553
15619TIP3    H268349   0.364   2.464   2.415 -0.8995 -0.0654 -0.6215
15620TIP3   OH268350   4.462   5.134   3.588  0.0618  0.0488  0.2308
15620TIP3    H168351   4.449   5.088   3.505 -0.1924 -1.4697  1.0782
15620TIP3    H268352   4.392   5.200   3.589  0.0897  0.1180 -0.7661
15621TIP3   OH268353   2.088   4.673  16.826  0.2452 -0.6546  0.2465
15621TIP3    H168354   2.064   4.582  16.840  4.0558 -1.6542  1.6849
15621TIP3    H268355   2.162   4.669  16.764 -0.8439  1.7280 -1.3748
15622TIP3   OH268356   0.298   5.669  11.561  0.2974 -0.3143  0.3299
15622TIP3    H168357   0.216   5.715  11.539 -0.0479 -1.1062 -0.0846
15622TIP3    H268358   0.302   5.671  11.656  1.5928  2.8051  0.3474
15623TIP3   OH268359   6.136   0.024   2.815  0.3449 -0.1789 -0.3594
15623TIP3    H168360   6.151  -0.064   2.781 -0.4934  0.3891 -2.3217
15623TIP3    H268361   6.166   0.082   2.745 -2.5968  1.0322 -0.7675
15624TIP3   OH268362   3.614   5.579   0.506  0.1020 -1.0703  0.7972
15624TIP3    H168363   3.643   5.656   0.456 -0.8569  0.7821  2.9522
15624TIP3    H268364   3.685   5.564   0.568 -1.9125  1.6541  4.0999
15625TIP3   OH268365   5.071   4.008  13.522 -0.0742 -0.8188 -0.2927
15625TIP3    H168366   5.072   4.081  13.583  0.2272  0.4537 -1.7653
15625TIP3    H268367   5.007   3.947  13.559 -1.3016  0.7640  0.3168
15626TIP3   OH268368   1.100   0.666   5.793 -0.1424  0.4063  0.3759
15626TIP3    H168369   1.043   0.589   5.785  1.1582 -0.6331  0.8297
15626TIP3    H268370   1.049   0.728   5.844 -1.1841 -0.1739  0.0740
15627TIP3   OH268371   1.447   3.548   5.619  0.0350  0.9690 -0.4064
15627TIP3    H168372   1.451   3.519   5.710 -2.6068  1.8650  0.0975
15627TIP3    H268373   1.446   3.467   5.567  2.3769  0.4688  0.2483
15628TIP3   OH268374   2.721   0.730   6.209  0.0054  0.1444  0.9093
15628TIP3    H168375   2.764   0.815   6.209 -0.7425  0.5962  3.7216
15628TIP3    H268376   2.631   0.748   6.182 -0.0460  0.1678  1.0987
15629TIP3   OH268377   4.537   6.245  11.392 -0.3548 -0.1913 -0.0579
15629TIP3    H168378   4.496   6.159  11.381 -0.1802 -0.1567 -1.0661
15629TIP3    H268379   4.618   6.227  11.441 -1.1660 -0.3520  1.2879
15630TIP3   OH268380   0.725   3.621   1.762  1.0002  0.3135  0.6281
15630TIP3    H168381   0.761   3.593   1.846 -0.1025  0.3114  1.1087
15630TIP3    H268382   0.693   3.541   1.721 -0.0373  0.5282  0.9813
15631TIP3   OH268383   5.306   4.675  14.152 -0.4273 -0.4362  0.0102
15631TIP3    H168384   5.239   4.688  14.219 -0.2792  1.5967 -0.1750
15631TIP3    H268385   5.258   4.671  14.070 -0.4452 -0.8482  0.0365
15632TIP3   OH268386   4.021   0.912  15.354 -0.0578 -0.3193  0.1374
15632TIP3    H168387   4.039   1.004  15.333  1.3295 -0.8240 -1.0959
15632TIP3    H268388   4.048   0.903  15.446 -0.9786  0.6740  0.5239
15633TIP3   OH268389   5.448   3.563   1.438  0.3560  0.5004  0.3120
15633TIP3    H168390   5.459   3.492   1.374  1.2679  1.2310 -0.3779
15633TIP3    H268391   5.456   3.520   1.523  0.4425 -0.2941 -0.0869
15634TIP3   OH268392   0.207   4.627  16.418  0.6136  0.0647 -0.3703
15634TIP3    H168393   0.302   4.622  16.423  0.5343 -0.8189  0.7470
15634TIP3    H268394   0.187   4.719  16.437  1.2781  0.4945 -1.6720
15635TIP3   OH268395   6.493   1.701   2.326 -0.3126  0.6122 -0.9535
15635TIP3    H168396   6.520   1.647   2.400 -1.0522  2.6632  0.9198
15635TIP3    H268397   6.576   1.731   2.288  0.0693  0.0657 -0.5744
15636TIP3   OH268398   1.201   0.371   2.716 -0.2196 -0.1662 -0.1965
15636TIP3    H168399   1.132   0.409   2.771 -0.1890  0.7950 -0.7848
15636TIP3    H268400   1.200   0.425   2.637  0.0482 -1.2325 -0.9485
15637TIP3   OH268401   3.101   5.829  16.585  0.5764 -0.0126 -0.2049
15637TIP3    H168402   3.190   5.814  16.553  1.0631  1.0350  0.5799
15637TIP3    H268403   3.110   5.899  16.649 -0.8665  0.2975 -0.2994
15638TIP3   OH268404   0.049   4.805  15.758  0.6982  0.2124  0.1677
15638TIP3    H168405   0.136   4.766  15.767  0.8505  0.6751  0.7315
15638TIP3    H268406  -0.010   4.740  15.796  1.1014  1.1485  2.5808
15639TIP3   OH268407   0.294   4.483  15.582  0.2542  0.3217 -0.3395
15639TIP3    H168408   0.294   4.543  15.507  0.5313  2.2598  1.1123
15639TIP3    H268409   0.210   4.498  15.624  1.2849  1.5647  1.3985
15640TIP3   OH268410   1.056   4.965  15.915 -0.4814  0.0676  0.3019
15640TIP3    H168411   1.023   4.885  15.874 -1.0878  0.6203 -0.3190
15640TIP3    H268412   1.093   5.016  15.842 -0.4226  0.5039  0.6315
15641TIP3   OH268413   5.154   3.930  12.016 -0.1327  0.4726 -0.0602
15641TIP3    H168414   5.223   3.925  12.082  0.0428  1.1258 -0.1829
15641TIP3    H268415   5.201   3.930  11.932 -0.1484  2.3249 -0.1286
15642TIP3   OH268416   3.604   4.275  11.527  0.3676 -0.0771 -0.3402
15642TIP3    H168417   3.619   4.231  11.610 -0.7518 -1.9052 -1.0601
15642TIP3    H268418   3.582   4.365  11.551  0.8517 -0.3712  1.2856
15643TIP3   OH268419   4.927   2.095   0.512 -0.4507 -0.6753 -0.1654
15643TIP3    H168420   4.990   2.159   0.545 -1.4588  0.9153 -1.1657
15643TIP3    H268421   4.906   2.126   0.424 -2.3902 -1.3210  0.0307
15644TIP3   OH268422   2.128   0.599  13.540  0.1171 -0.3230 -0.2955
15644TIP3    H168423   2.184   0.541  13.488 -1.1812 -1.7691 -0.1722
15644TIP3    H268424   2.041   0.589  13.501 -0.3466  0.7609  0.4001
15645TIP3   OH268425   4.443   0.180   4.570 -0.1681 -0.0473 -0.1624
15645TIP3    H168426   4.456   0.257   4.625  0.8622 -0.8468  0.7699
15645TIP3    H268427   4.356   0.148   4.593 -0.1837  0.2537  0.2038
15646TIP3   OH268428   0.216   6.096   3.464  0.1469 -0.1577  0.6960
15646TIP3    H168429   0.305   6.081   3.431  0.5245 -2.7509  2.6080
15646TIP3    H268430   0.223   6.085   3.559 -2.0975  0.2681  0.9669
15647TIP3   OH268431   1.932   6.583   1.896 -0.2000  0.1209 -0.0779
15647TIP3    H168432   1.965   6.669   1.870  2.1769 -0.1828  1.6325
15647TIP3    H268433   1.962   6.524   1.827  2.3125 -0.0086  1.0300
15648TIP3   OH268434   2.084   5.191  14.117  0.2848  0.4203  0.0577
15648TIP3    H168435   2.063   5.284  14.104  2.3284  0.9088 -0.0883
15648TIP3    H268436   2.083   5.153  14.030  0.1882  0.4899  0.0292
15649TIP3   OH268437   3.929   5.127  12.603 -0.0298 -0.2790 -0.6163
15649TIP3    H168438   4.013   5.167  12.582 -1.2759  1.5868 -2.5867
15649TIP3    H268439   3.898   5.093  12.519 -1.5418 -0.2775 -0.0843
15650TIP3   OH268440   3.070   5.268  13.357 -0.3457  0.0668  0.5339
15650TIP3    H168441   3.143   5.293  13.413 -0.5277 -0.6291  1.0914
15650TIP3    H268442   3.008   5.224  13.416 -1.9868  2.0531  0.4332
15651TIP3   OH268443   2.397   3.876  14.158  0.0907 -0.3698 -0.0611
15651TIP3    H168444   2.405   3.795  14.208 -1.8908 -0.2441  0.5438
15651TIP3    H268445   2.386   3.945  14.224 -0.7445  0.0421 -0.6043
15652TIP3   OH268446   4.409   3.873   3.320  0.0445  0.1621  0.4755
15652TIP3    H168447   4.383   3.960   3.289 -2.5159 -1.1714 -1.5370
15652TIP3    H268448   4.337   3.816   3.292  1.3528 -2.5197  2.2540
15653TIP3   OH268449   5.506   5.039   2.120  0.8424 -0.2330 -0.0616
15653TIP3    H168450   5.461   4.975   2.064  0.1474  0.2828 -0.1096
15653TIP3    H268451   5.597   5.036   2.091  0.9657 -1.6804  0.3915
15654TIP3   OH268452   6.509   1.208  16.559  0.0751  0.4452 -0.5960
15654TIP3    H168453   6.552   1.178  16.479 -0.5614  1.9155 -1.5417
15654TIP3    H268454   6.571   1.272  16.596 -0.1987  0.7389 -0.6369
15655TIP3   OH268455   5.576   5.160   5.976  0.2367 -0.1735 -0.2448
15655TIP3    H168456   5.503   5.158   6.038  0.8876 -2.3509  0.5444
15655TIP3    H268457   5.539   5.197   5.896 -1.5550 -0.5804  0.3603
15656TIP3   OH268458   3.020   6.181   2.498  0.4071  0.0488  0.1599
15656TIP3    H168459   3.038   6.097   2.542 -2.7538  0.3334  2.3516
15656TIP3    H268460   3.042   6.247   2.563  2.5426  0.9949 -1.4351
15657TIP3   OH268461   4.281   6.173  15.915 -0.0894 -0.3200  0.0707
15657TIP3    H168462   4.194   6.197  15.949 -1.4979  1.0395 -3.9407
15657TIP3    H268463   4.265   6.094  15.864  1.6830 -1.6060  1.3739
15658TIP3   OH268464   4.059   1.408   5.287 -0.1443 -0.1153 -0.2749
15658TIP3    H168465   4.128   1.453   5.335 -1.5657  0.4751  1.3152
15658TIP3    H268466   4.051   1.457   5.205  0.0020  1.0248  0.3677
15659TIP3   OH268467   3.639   5.856   3.323  0.6111 -0.3729 -0.2323
15659TIP3    H168468   3.686   5.809   3.254 -0.6365 -0.7638 -0.8591
15659TIP3    H268469   3.609   5.787   3.383 -0.1906 -0.2684 -0.5032
15660TIP3   OH268470   0.413   5.426   3.423 -0.5230 -0.0307  0.0270
15660TIP3    H168471   0.385   5.338   3.398  0.2581 -0.4413  0.5805
15660TIP3    H268472   0.384   5.436   3.514 -0.9234  0.4252 -0.1432
15661TIP3   OH268473   4.070   1.356  15.935  0.2632  0.4176 -0.2313
15661TIP3    H168474   4.024   1.280  15.898 -1.6455  1.5860 -0.4274
15661TIP3    H268475   4.097   1.407  15.859  1.2477  0.1176 -0.0929
15662TIP3   OH268476   2.957   2.699   4.762 -0.5494 -0.7570 -0.2206
15662TIP3    H168477   2.888   2.637   4.742  0.0288 -0.9598 -1.7122
15662TIP3    H268478   2.980   2.738   4.677 -1.3144  1.9586  0.7058
15663TIP3   OH268479   4.918   5.777  14.081 -0.0045  0.7728  0.5008
15663TIP3    H168480   5.014   5.781  14.084  0.2025 -1.9105 -0.2071
15663TIP3    H268481   4.891   5.791  14.172  1.3801 -2.5057  1.5659
15664TIP3   OH268482   0.515   5.149  11.463  0.1453  0.4850 -0.7193
15664TIP3    H168483   0.490   5.075  11.408  1.0312  1.0178 -1.8724
15664TIP3    H268484   0.596   5.120  11.506  0.1337  0.5386 -0.6623
15665TIP3   OH268485   0.898   1.937   5.975 -0.2662  0.2646 -0.0405
15665TIP3    H168486   0.853   2.000   5.918  1.8841  2.0031  0.0751
15665TIP3    H268487   0.955   1.888   5.915 -0.5262 -0.2779  0.1498
15666TIP3   OH268488   1.617   1.229  13.250  0.6246 -0.2675 -0.1728
15666TIP3    H168489   1.579   1.153  13.294  0.4673  0.1895  0.4934
15666TIP3    H268490   1.637   1.290  13.321  0.0670  0.6091 -0.7550
15667TIP3   OH268491   4.743   2.959   5.771 -0.7415  0.2049 -0.1106
15667TIP3    H168492   4.738   3.055   5.773  0.0956  0.2665 -0.5224
15667TIP3    H268493   4.789   2.936   5.852  0.2467  0.2494 -0.6450
15668TIP3   OH268494   4.476   2.566  15.510 -0.5646 -0.9780 -0.5651
15668TIP3    H168495   4.519   2.543  15.428  0.3689 -2.0351  0.1989
15668TIP3    H268496   4.463   2.661  15.504 -0.2746 -0.9968 -1.8053
15669TIP3   OH268497   2.216   2.267  14.948 -0.6911 -0.1462 -0.4997
15669TIP3    H168498   2.246   2.291  15.036 -0.2550  1.0462 -0.9630
15669TIP3    H268499   2.190   2.175  14.956 -0.6456 -0.0573  0.8732
15670TIP3   OH268500   4.619   2.807  11.795  0.7509  0.9264  0.0249
15670TIP3    H168501   4.637   2.722  11.833  1.6369  1.0191 -0.1668
15670TIP3    H268502   4.572   2.788  11.714  0.2187  0.6658  0.3895
15671TIP3   OH268503   1.994   0.540  17.060 -0.0191  0.0908 -0.5428
15671TIP3    H168504   1.948   0.470  17.014 -0.7686  0.0510  0.2396
15671TIP3    H268505   1.996   0.613  16.998  0.2526 -0.4297 -1.1526
15672TIP3   OH268506   6.101   6.781   1.389 -0.3805 -0.3174 -0.0197
15672TIP3    H168507   6.182   6.774   1.439 -0.3955 -0.2809  0.0103
15672TIP3    H268508   6.110   6.717   1.319 -0.8496 -1.2074  0.7048
15673TIP3   OH268509   1.625   0.005  13.531 -0.2702  0.1290  0.1988
15673TIP3    H168510   1.565  -0.066  13.550 -0.3708  0.4342  1.0656
15673TIP3    H268511   1.709  -0.023  13.569 -0.3944  0.6060  0.8481
15674TIP3   OH268512   3.720   1.987  11.874 -0.4132 -0.1915  0.3367
15674TIP3    H168513   3.767   2.026  11.947  0.0272  0.9737 -0.5378
15674TIP3    H268514   3.733   1.892  11.885  0.2699  0.0046  1.3347
15675TIP3   OH268515   0.522   5.947   1.115 -0.4919 -0.6004  0.8794
15675TIP3    H168516   0.555   6.036   1.103 -1.3351 -0.2358  1.1600
15675TIP3    H268517   0.594   5.899   1.155 -0.4305  0.2623  1.8171
15676TIP3   OH268518   2.912   1.222   3.953  0.0902 -0.2736 -0.8672
15676TIP3    H168519   2.887   1.314   3.956  3.3880  0.8047 -1.6612
15676TIP3    H268520   2.869   1.187   3.875 -1.2259  0.5354 -0.5372
15677TIP3   OH268521   5.889   0.304   3.525  0.3361  0.3310  0.2074
15677TIP3    H168522   5.911   0.336   3.613  2.7819  0.0567 -0.2312
15677TIP3    H268523   5.802   0.265   3.535 -0.0136  1.4602  2.1871
15678TIP3   OH268524   5.015   1.667  11.860  0.4302  0.1094  0.2977
15678TIP3    H168525   5.083   1.729  11.885  0.9248 -0.5176  0.5481
15678TIP3    H268526   4.992   1.690  11.770  0.0514  1.1326  0.6394
15679TIP3   OH268527   0.159   5.569  14.905 -0.1515 -0.4140 -0.3635
15679TIP3    H168528   0.073   5.611  14.914 -0.7478 -1.3403 -1.3752
15679TIP3    H268529   0.219   5.640  14.884 -1.2638 -0.0902 -2.8212
15680TIP3   OH268530   4.827   5.540   3.550 -0.3583  0.0172  0.2234
15680TIP3    H168531   4.891   5.559   3.482  0.4374  0.3769  1.0543
15680TIP3    H268532   4.825   5.445   3.557  0.8285  0.0229  0.8688
15681TIP3   OH268533   0.432   5.828  15.834  0.0924 -0.4089  0.0704
15681TIP3    H168534   0.497   5.858  15.897 -0.3708  1.2656 -0.1790
15681TIP3    H268535   0.380   5.906  15.815 -0.2513 -1.0356 -1.8157
15682TIP3   OH268536   1.081   0.870  15.202  0.7706  0.0439 -0.4942
15682TIP3    H168537   1.090   0.818  15.122 -1.2802 -1.0005 -0.1326
15682TIP3    H268538   0.986   0.883  15.211  1.1178  2.7239  0.1870
15683TIP3   OH268539   6.163   3.225  15.285  0.3071  0.2879  0.3964
15683TIP3    H168540   6.089   3.286  15.282 -0.7099 -0.9157 -0.5421
15683TIP3    H268541   6.240   3.280  15.272 -0.2907  1.7303  2.4768
15684TIP3   OH268542   4.270   5.014   4.194  0.1015  0.5501  0.9218
15684TIP3    H168543   4.333   5.030   4.124 -1.6984  3.0639 -0.2619
15684TIP3    H268544   4.253   4.920   4.189  1.1790  0.3972 -0.9773
15685TIP3   OH268545   6.547   1.706  12.998 -0.0601  0.3380  0.2352
15685TIP3    H168546   6.537   1.625  13.049 -1.9803  0.3295 -0.1013
15685TIP3    H268547   6.637   1.734  13.018 -0.4682 -0.0259  3.1023
15686TIP3   OH268548   1.741   5.628  14.264  0.3961 -0.0070  0.3511
15686TIP3    H168549   1.645   5.631  14.267  0.3404 -1.4376  1.3909
15686TIP3    H268550   1.766   5.699  14.205 -1.1784  2.2303  2.1568
15687TIP3   OH268551   0.753   4.592   3.991  0.2293  0.2363  0.3235
15687TIP3    H168552   0.765   4.619   3.900  2.3723 -1.0434  0.1583
15687TIP3    H268553   0.659   4.574   3.999  0.2227 -1.1713 -2.1015
15688TIP3   OH268554   3.415   4.791  16.535 -0.0441 -0.1846  0.0155
15688TIP3    H168555   3.375   4.733  16.471  0.9290 -1.1736  0.2652
15688TIP3    H268556   3.476   4.844  16.484 -2.0289  1.7822 -0.4745
15689TIP3   OH268557   6.541   4.277  13.204  0.0543 -0.0019 -0.6476
15689TIP3    H168558   6.504   4.353  13.160  1.8887  1.1256 -0.3675
15689TIP3    H268559   6.546   4.210  13.136 -1.7852  0.0046 -0.8473
15690TIP3   OH268560   1.326   2.509   5.755 -0.1810  0.2019 -0.2051
15690TIP3    H168561   1.300   2.422   5.786 -1.5653  1.0162  1.0686
15690TIP3    H268562   1.335   2.561   5.835  2.4758  0.8086 -0.8048
15691TIP3   OH268563   3.275   2.550   2.678 -0.4612 -0.1513 -0.2714
15691TIP3    H168564   3.305   2.462   2.704 -1.3996 -0.3558  0.1681
15691TIP3    H268565   3.352   2.590   2.636  0.3323 -0.7573  0.5529
15692TIP3   OH268566   0.999   1.188  13.509  0.0582 -0.1693 -0.5083
15692TIP3    H168567   0.970   1.097  13.518 -0.6836  0.1152  0.0100
15692TIP3    H268568   0.929   1.240  13.547  0.6466  0.6085 -0.4560
15693TIP3   OH268569   1.994   4.983  15.128  0.2136  0.2618  0.5795
15693TIP3    H168570   2.026   4.969  15.216  1.8671  0.3474  0.0151
15693TIP3    H268571   2.065   4.954  15.071 -0.4632  1.0447 -0.7235
15694TIP3   OH268572   5.798   5.512   3.713  0.1542  0.4761 -0.2078
15694TIP3    H168573   5.824   5.597   3.677 -1.6349  0.7570 -0.9045
15694TIP3    H268574   5.719   5.488   3.665  0.3900 -1.4026  0.2660
15695TIP3   OH268575   2.826   6.742  10.678  0.2524 -0.2742  0.0894
15695TIP3    H168576   2.764   6.812  10.698  1.7066  1.1204 -0.1069
15695TIP3    H268577   2.836   6.745  10.583  0.3547 -0.7245  0.0842
15696TIP3   OH268578   6.490   0.671  15.468  0.3731  0.0634  0.2841
15696TIP3    H168579   6.462   0.607  15.533 -0.6143  1.2790  1.0888
15696TIP3    H268580   6.586   0.675  15.479  0.5822 -1.9921 -0.4943
15697TIP3   OH268581   1.327   2.165   2.148  0.3564  0.4047  0.0185
15697TIP3    H168582   1.308   2.190   2.239  1.5731  0.0128  0.3933
15697TIP3    H268583   1.401   2.220   2.122 -0.6983  1.3439 -1.1530
15698TIP3   OH268584   3.771   3.677   0.004 -0.4422  0.4754 -0.2825
15698TIP3    H168585   3.778   3.661  -0.090 -1.0430  0.5048 -0.3379
15698TIP3    H268586   3.831   3.613   0.044 -0.2055  0.4469 -0.6822
15699TIP3   OH268587   5.841   4.429   0.057  0.7157 -0.5273 -0.2000
15699TIP3    H168588   5.800   4.343   0.068  0.5939 -0.6235 -1.2912
15699TIP3    H268589   5.899   4.418  -0.018  2.0298 -0.1281  0.7272
15700TIP3   OH268590   6.513   5.853   0.362  0.0950 -0.1597  0.2104
15700TIP3    H168591   6.581   5.791   0.339 -0.3784 -0.4795 -0.3713
15700TIP3    H268592   6.541   5.936   0.322 -0.9241 -0.8020 -1.9988
15701TIP3   OH268593   3.558   4.122  15.879 -0.0421  0.3051  0.3653
15701TIP3    H168594   3.639   4.171  15.895 -1.0637  1.4666  2.4436
15701TIP3    H268595   3.513   4.122  15.964 -1.8180 -1.0624 -0.5164
15702TIP3   OH268596   3.661   6.185   4.704 -0.1419  0.4634 -0.0466
15702TIP3    H168597   3.670   6.090   4.711  0.2369  0.5644  1.0918
15702TIP3    H268598   3.625   6.200   4.617 -0.8822 -0.7681  0.0294
15703TIP3   OH268599   0.480   0.337   3.809 -0.0549 -0.0829  0.7918
15703TIP3    H168600   0.517   0.390   3.879  0.1625 -1.2286  1.5740
15703TIP3    H268601   0.416   0.394   3.766  0.4945  0.9415  1.3128
15704TIP3   OH268602   4.323   2.050   4.798  0.2364 -0.4389  0.3768
15704TIP3    H168603   4.391   2.002   4.846 -0.7557 -0.8404  1.4157
15704TIP3    H268604   4.297   1.991   4.728  0.0125 -0.8315  0.7914
15705TIP3   OH268605   0.385   6.048  13.495  0.3187 -0.0241 -0.0661
15705TIP3    H168606   0.342   6.133  13.490  1.1726  0.3871 -0.8648
15705TIP3    H268607   0.317   5.985  13.473 -0.2266  0.4834  0.1449
15706TIP3   OH268608   0.267   2.271   3.138  0.4931 -0.2156 -0.2452
15706TIP3    H168609   0.205   2.237   3.073 -0.4283  1.5312 -0.3194
15706TIP3    H268610   0.269   2.365   3.123  0.1651  0.2753  2.3316
15707TIP3   OH268611   5.244   4.406   4.953 -0.6468 -0.2636  0.0499
15707TIP3    H168612   5.187   4.479   4.978 -1.0680 -0.1922 -1.0815
15707TIP3    H268613   5.269   4.425   4.863 -0.5122 -1.3715 -0.1601
15708TIP3   OH268614   6.485   2.943   2.991  0.1005  0.2918  0.5993
15708TIP3    H168615   6.450   2.862   2.956 -0.1069  0.6456 -0.0315
15708TIP3    H268616   6.517   2.991   2.913  0.3736  0.7351  0.9771
15709TIP3   OH268617   6.810   5.086  13.538 -0.1580 -0.3923 -0.4380
15709TIP3    H168618   6.836   5.020  13.603 -0.0027  1.6483  1.6981
15709TIP3    H268619   6.718   5.105  13.560 -0.6106 -0.8017 -1.8912
15710TIP3   OH268620   3.802   2.786   2.796  0.0276 -0.0230 -0.1284
15710TIP3    H168621   3.807   2.690   2.794  0.4548  0.0027 -0.9372
15710TIP3    H268622   3.740   2.807   2.726  0.3373  0.3131 -0.2995
15711TIP3   OH268623   1.036   1.148  16.479 -0.3949  0.1353  0.1835
15711TIP3    H168624   0.974   1.111  16.542 -0.3695  0.1582  0.2213
15711TIP3    H268625   1.116   1.097  16.491 -0.8715 -0.9436 -0.9282
15712TIP3   OH268626   3.907   2.776   1.841  0.1782  0.4438 -0.0033
15712TIP3    H168627   3.874   2.728   1.764  0.3619  0.1390  0.1045
15712TIP3    H268628   3.828   2.797   1.891  0.0291  0.9089 -0.4247
15713TIP3   OH268629   5.047   6.575   3.534 -0.2542 -0.0935 -0.6957
15713TIP3    H168630   4.967   6.592   3.486 -0.9586 -0.5084  0.3059
15713TIP3    H268631   5.083   6.662   3.552 -0.3625  0.0870 -1.3208
15714TIP3   OH268632   0.992   1.149  12.838  0.3915 -0.2544  0.0239
15714TIP3    H168633   1.010   1.243  12.829 -0.1392 -0.2763 -1.4291
15714TIP3    H268634   1.033   1.109  12.761 -1.3571 -0.9297 -0.6072
15715TIP3   OH268635   3.913   0.674   2.501 -0.0223  0.0385 -0.3882
15715TIP3    H168636   3.961   0.756   2.485 -0.5756 -0.0574 -2.8957
15715TIP3    H268637   3.963   0.607   2.455  0.8770 -1.3046  2.2884
15716TIP3   OH268638   1.705   2.109   3.545 -0.0562  0.1479 -0.1999
15716TIP3    H168639   1.633   2.145   3.596 -1.5402 -0.2068 -1.9157
15716TIP3    H268640   1.732   2.031   3.592 -1.5119 -0.2770 -0.0341
15717TIP3   OH268641   5.088   0.231   4.526 -0.3898  0.2108 -0.0958
15717TIP3    H168642   5.030   0.156   4.511  0.3183 -0.6608  1.3987
15717TIP3    H268643   5.028   0.304   4.545 -1.0913 -1.0059  2.9740
15718TIP3   OH268644   0.781   3.182  16.202  0.1419  0.7991 -1.0807
15718TIP3    H168645   0.827   3.097  16.202 -2.2036 -0.5541 -0.2812
15718TIP3    H268646   0.777   3.206  16.295  0.0953  1.4089 -1.2370
15719TIP3   OH268647   3.985   3.752  15.591  0.2192 -0.1233  0.4362
15719TIP3    H168648   3.988   3.843  15.563 -0.0768 -0.9070 -2.5198
15719TIP3    H268649   4.063   3.740  15.645  1.4920  1.3653 -0.9788
15720TIP3   OH268650   4.060   2.304   0.694 -0.1697 -0.6728 -0.6377
15720TIP3    H168651   4.028   2.231   0.747  1.8184  0.0562  1.7647
15720TIP3    H268652   3.998   2.374   0.709 -0.2237 -0.8205 -0.1644
15721TIP3   OH268653   2.199   1.212  16.532 -0.4304  0.3529 -0.0444
15721TIP3    H168654   2.146   1.146  16.487 -1.7251  0.6928  0.9316
15721TIP3    H268655   2.143   1.290  16.533 -0.4564  0.3609  2.1151
15722TIP3   OH268656   5.554   5.632   2.221  0.3082  0.4085 -0.4507
15722TIP3    H168657   5.469   5.590   2.205  1.2895 -2.1724  0.5957
15722TIP3    H268658   5.534   5.726   2.224 -1.8921  0.2280 -3.8707
15723TIP3   OH268659   2.072   6.050  12.894 -0.3806 -0.3809  0.3270
15723TIP3    H168660   2.148   5.995  12.875 -0.0225  0.0155  0.5765
15723TIP3    H268661   2.014   6.038  12.819  0.9318  1.0444 -1.0171
15724TIP3   OH268662   6.057   4.831  15.598  0.7025 -0.0974  0.1585
15724TIP3    H168663   6.137   4.857  15.553  0.4522  1.2862  0.4519
15724TIP3    H268664   5.988   4.841  15.533  0.1978  2.8427  0.9951
15725TIP3   OH268665   0.069   1.939   3.076 -0.0386  0.3136 -0.2382
15725TIP3    H168666   0.123   1.878   3.025 -1.2604  0.0620 -1.2781
15725TIP3    H268667   0.089   2.024   3.038 -0.9445  0.1276 -1.1842
15726TIP3   OH268668   0.506   4.300  15.524 -0.8929 -0.5004 -0.5573
15726TIP3    H168669   0.433   4.360  15.511  0.4460  0.9156 -1.9378
15726TIP3    H268670   0.498   4.272  15.616 -0.8476  2.8844  0.6268
15727TIP3   OH268671   4.350   3.137   5.304 -0.4097 -0.1902 -0.7213
15727TIP3    H168672   4.269   3.087   5.298 -0.3015 -0.7127  1.3902
15727TIP3    H268673   4.419   3.071   5.311  0.1074  0.2617 -1.3274
15728TIP3   OH268674   2.562   2.761  12.076 -0.5962  0.0415  0.2791
15728TIP3    H168675   2.655   2.755  12.096 -0.5755  0.8638  0.4715
15728TIP3    H268676   2.518   2.740  12.158 -0.6373 -2.1160 -0.2450
15729TIP3   OH268677   2.942   5.585  16.152 -0.1296 -0.4195  0.2853
15729TIP3    H168678   2.958   5.672  16.189 -0.3824  0.1170 -0.8047
15729TIP3    H268679   2.855   5.591  16.113  0.6329 -0.5144 -1.5222
15730TIP3   OH268680   1.954   0.971   2.322  0.7934 -0.0135  0.0125
15730TIP3    H168681   1.993   1.037   2.379  2.4600 -0.6388 -0.3210
15730TIP3    H268682   2.002   0.891   2.342 -0.7952 -1.0142  0.0094
15731TIP3   OH268683   3.651   3.125  11.633 -0.0879  0.3092  0.0318
15731TIP3    H168684   3.668   3.197  11.693  0.3269  1.1999 -1.1291
15731TIP3    H268685   3.558   3.104  11.647  0.0995  0.2167  1.2565
15732TIP3   OH268686   3.482   2.127  11.753 -0.6152  0.1371 -0.0274
15732TIP3    H168687   3.456   2.182  11.827 -0.2556  0.9476 -0.4829
15732TIP3    H268688   3.557   2.078  11.784  0.1825  1.2324 -0.1549
15733TIP3   OH268689   5.659   6.737   2.262  0.1052 -0.3589  0.3408
15733TIP3    H168690   5.600   6.695   2.199  0.7018  1.0917 -1.2690
15733TIP3    H268691   5.602   6.790   2.317 -0.5221 -2.2964  1.6617
15734TIP3   OH268692   3.766   2.635  10.591  0.0235 -0.6867 -0.1564
15734TIP3    H168693   3.709   2.706  10.560  0.8199  0.5088  0.9905
15734TIP3    H268694   3.853   2.674  10.593  0.5553 -1.8565  0.0809
15735TIP3   OH268695   6.312   3.317   4.370  0.2514 -0.0502 -0.2872
15735TIP3    H168696   6.342   3.270   4.448  1.0308  1.3597  0.2925
15735TIP3    H268697   6.224   3.348   4.392 -0.2319 -1.1073 -0.6406
15736TIP3   OH268698   2.534   1.897  11.919 -0.1689 -0.3852 -0.0104
15736TIP3    H168699   2.472   1.944  11.863  0.7335  0.3503 -0.4245
15736TIP3    H268700   2.488   1.887  12.002 -2.6318 -3.8841 -1.5351
15737TIP3   OH268701   3.351   5.320  12.748  0.4752  0.4519  0.1975
15737TIP3    H168702   3.365   5.258  12.820 -0.8718  0.3172  0.3682
15737TIP3    H268703   3.256   5.323  12.737  0.6362  0.7824 -1.3188
15738TIP3   OH268704   5.216   4.718   4.937  0.1639  0.2180 -0.1815
15738TIP3    H168705   5.276   4.736   5.009 -2.3341  4.8130  1.1675
15738TIP3    H268706   5.265   4.743   4.859  1.0009  0.9172  0.5426
15739TIP3   OH268707   2.528   3.350   2.367 -0.3952  0.0665 -0.8744
15739TIP3    H168708   2.439   3.382   2.351 -1.6435 -2.4544  0.3330
15739TIP3    H268709   2.585   3.412   2.322 -2.5803  3.2046  0.3511
15740TIP3   OH268710   5.994   0.193  11.114  0.1897 -0.0698 -0.1597
15740TIP3    H168711   6.088   0.188  11.134 -0.0752 -1.4728  0.8975
15740TIP3    H268712   5.988   0.171  11.021  1.0062  1.3741 -0.5868
15741TIP3   OH268713   5.888   0.675   2.995 -0.2969 -0.1539 -0.3772
15741TIP3    H168714   5.895   0.641   3.085  2.5856  1.0505 -0.0119
15741TIP3    H268715   5.895   0.598   2.939 -0.7858 -0.8002  0.4406
15742TIP3   OH268716   6.572   4.014  14.588  0.3019 -0.7249 -0.2496
15742TIP3    H168717   6.603   3.958  14.659 -0.4331 -0.9331 -0.0766
15742TIP3    H268718   6.646   4.023  14.529  0.4383 -1.8655 -0.2654
15743TIP3   OH268719   6.290   3.822  13.951  0.0265 -0.1743  0.1409
15743TIP3    H168720   6.250   3.765  13.885  1.2171 -1.5762  0.5745
15743TIP3    H268721   6.319   3.899  13.901  0.1580 -0.8364 -0.8409
15744TIP3   OH268722   4.102   3.592   2.073 -0.0983  0.3803 -0.4575
15744TIP3    H168723   4.144   3.513   2.106 -0.2155 -0.0908 -1.3831
15744TIP3    H268724   4.098   3.578   1.978 -3.8269 -0.3539 -0.3182
15745TIP3   OH268725   0.206   1.888  11.985  0.5863  0.4171 -0.4727
15745TIP3    H168726   0.254   1.813  11.949  0.4959 -0.2862  0.8105
15745TIP3    H268727   0.264   1.963  11.969  1.6289 -0.2543  0.0637
15746TIP3   OH268728   5.407   6.743  12.790  0.3728  0.4490  0.2533
15746TIP3    H168729   5.414   6.653  12.758  0.4360  0.0944  1.2390
15746TIP3    H268730   5.391   6.795  12.711 -0.2824 -0.4970 -0.2622
15747TIP3   OH268731   4.414   6.749  12.561  0.1254 -0.1025  0.1210
15747TIP3    H168732   4.373   6.831  12.533 -1.9033 -1.4563 -1.1320
15747TIP3    H268733   4.340   6.693  12.585  1.3109 -2.2418 -0.9851
15748TIP3   OH268734   2.753   2.433   4.009 -0.3351  0.0420 -1.1313
15748TIP3    H168735   2.708   2.517   4.010  1.4774  1.0998  1.1811
15748TIP3    H268736   2.808   2.434   4.087  0.9879 -2.6466 -1.8966
15749TIP3   OH268737   4.052   2.624  10.583  0.2140 -0.4123 -0.1211
15749TIP3    H168738   4.143   2.655  10.582  0.2881 -0.5809 -1.7205
15749TIP3    H268739   4.058   2.532  10.556 -0.5168 -0.0479 -1.6567
15750TIP3   OH268740   2.803   5.491   3.571  0.3032  0.2649  0.2907
15750TIP3    H168741   2.750   5.561   3.534 -0.3289  0.3283  1.2539
15750TIP3    H268742   2.875   5.535   3.615  0.1498  0.2997  0.5142
15751TIP3   OH268743   4.876   2.957   1.839  0.5467 -0.2253  0.0017
15751TIP3    H168744   4.834   2.881   1.799  0.3357 -0.0223 -0.1607
15751TIP3    H268745   4.947   2.979   1.779  0.5969 -0.2800  0.0402
15752TIP3   OH268746   6.429   3.848  17.114  0.2665 -0.1183 -0.0765
15752TIP3    H168747   6.485   3.772  17.097 -1.9694 -1.3348 -2.5998
15752TIP3    H268748   6.387   3.829  17.198 -0.1957 -1.6711 -0.6294
15753TIP3   OH268749   4.626   5.825  15.298  0.3200 -0.0815  0.0656
15753TIP3    H168750   4.667   5.790  15.377  0.8859  1.1713  0.3463
15753TIP3    H268751   4.533   5.808  15.309  0.5074 -0.9169  0.4692
15754TIP3   OH268752   5.225   3.358  13.536 -0.0256  0.4170 -0.1283
15754TIP3    H168753   5.259   3.356  13.625 -0.1579  0.7704 -0.0702
15754TIP3    H268754   5.158   3.290  13.534  0.4236 -0.0300 -0.1386
15755TIP3   OH268755   5.277   6.801  13.890 -0.3412 -0.6014 -0.8185
15755TIP3    H168756   5.334   6.734  13.926 -1.3818 -1.3809 -0.5816
15755TIP3    H268757   5.335   6.875  13.871  0.6333 -1.1460 -0.0191
15756TIP3   OH268758   2.354   4.611   5.888 -0.0146  0.2449 -0.0282
15756TIP3    H168759   2.284   4.596   5.824  0.5264 -0.2240 -0.5234
15756TIP3    H268760   2.326   4.564   5.966  1.5417 -3.4562 -1.4591
15757TIP3   OH268761   2.653   5.078  12.424 -0.1023  0.9413 -1.3743
15757TIP3    H168762   2.720   5.119  12.369  2.0115 -2.9244 -2.0329
15757TIP3    H268763   2.680   5.097  12.514  3.4191 -2.2411 -1.5219
15758TIP3   OH268764   6.034   3.951   1.463  0.0165 -0.6063 -0.3190
15758TIP3    H168765   6.036   4.024   1.525 -0.1078 -0.4978 -0.4408
15758TIP3    H268766   5.968   3.976   1.398 -1.4127 -1.6715  0.6585
15759TIP3   OH268767   0.513   4.106  16.401 -0.3191 -0.0131  0.1895
15759TIP3    H168768   0.460   4.170  16.449  0.6940  0.5388  0.6133
15759TIP3    H268769   0.480   4.021  16.430 -0.4453  0.3214  1.0649
15760TIP3   OH268770   4.827   0.443   0.454  0.3183 -0.3368  0.0309
15760TIP3    H168771   4.737   0.415   0.472  0.3107  0.5248  1.4442
15760TIP3    H268772   4.856   0.385   0.384 -1.4624 -0.3979 -0.7168
15761TIP3   OH268773   1.815   0.703  15.720 -0.0986 -0.2831  0.3747
15761TIP3    H168774   1.746   0.675  15.780  0.0230 -2.4161 -0.3884
15761TIP3    H268775   1.797   0.655  15.639  2.4706 -1.2162  0.2683
15762TIP3   OH268776   1.816   1.787  16.719 -0.2006 -0.2038  0.0848
15762TIP3    H168777   1.744   1.733  16.687 -0.3885 -0.1601  0.4264
15762TIP3    H268778   1.787   1.877  16.706 -0.0480 -0.1836 -0.1265
15763TIP3   OH268779   5.423   2.529  13.472 -0.0059 -0.0269 -0.2358
15763TIP3    H168780   5.469   2.587  13.412  1.2238 -0.9904 -0.2648
15763TIP3    H268781   5.350   2.581  13.506 -0.8557  0.4701 -2.6841
15764TIP3   OH268782   5.466   4.177   3.887  0.3152  0.0395 -0.1187
15764TIP3    H168783   5.471   4.239   3.959 -1.6376  3.0446 -2.2935
15764TIP3    H268784   5.532   4.208   3.825 -0.7933  0.1453 -1.3033
15765TIP3   OH268785   6.135   2.051   6.541  0.5125  0.3049 -0.1199
15765TIP3    H168786   6.189   2.079   6.616 -0.6017 -0.8171  1.1659
15765TIP3    H268787   6.063   2.114   6.539 -0.6327 -0.8764  1.1899
15766TIP3   OH268788   3.515   2.333  13.465  0.1617 -0.1205  0.3182
15766TIP3    H168789   3.486   2.384  13.541  1.4288  1.4299 -0.1728
15766TIP3    H268790   3.564   2.260  13.502  2.9434  1.9529  1.0817
15767TIP3   OH268791   2.172   5.872   1.741 -0.3001 -0.2342  0.2837
15767TIP3    H168792   2.205   5.944   1.686 -1.2565  0.6377  0.7999
15767TIP3    H268793   2.231   5.799   1.724  1.3595  0.9921  0.5449
15768TIP3   OH268794   0.035   3.399   1.748 -0.4623  0.0918 -0.0853
15768TIP3    H168795  -0.060   3.389   1.740 -0.5419  0.6541  0.1139
15768TIP3    H268796   0.046   3.458   1.822  0.0682 -0.4897  0.3137
15769TIP3   OH268797   6.058   1.989   4.700 -0.4681  0.1033 -0.5444
15769TIP3    H168798   6.130   1.975   4.762  0.3299  0.7929 -1.2861
15769TIP3    H268799   6.086   1.945   4.620 -1.2759 -0.3648 -0.5789
15770TIP3   OH268800   3.029   2.293   3.611  0.5974 -0.5198 -0.7688
15770TIP3    H168801   2.960   2.286   3.678 -0.5146  1.3219 -1.6513
15770TIP3    H268802   3.093   2.353   3.649  0.1275  0.2669 -1.1933
15771TIP3   OH268803   0.009   2.737  16.538  0.2491  0.4360 -0.1504
15771TIP3    H168804  -0.050   2.661  16.532 -1.1465  1.2841  1.8302
15771TIP3    H268805   0.033   2.741  16.630  1.3101  1.6973 -0.4557
15772TIP3   OH268806   5.340   3.420   6.227 -0.0399  0.2460 -0.2476
15772TIP3    H168807   5.283   3.350   6.261  2.2644 -1.0138  1.2523
15772TIP3    H268808   5.383   3.455   6.305 -0.6241  2.9702 -1.0552
15773TIP3   OH268809   5.520   3.388  13.993 -0.1953 -0.2383  0.4198
15773TIP3    H168810   5.503   3.306  14.039  1.9026 -1.3890 -0.6566
15773TIP3    H268811   5.598   3.423  14.035 -0.2802  0.4907 -0.0141
15774TIP3   OH268812   6.043   3.640  13.066  0.2092 -0.1998  0.0611
15774TIP3    H168813   5.992   3.612  12.990  0.7059 -0.5293 -0.1601
15774TIP3    H268814   6.125   3.590  13.059  0.7756  0.6956  0.1258
15775TIP3   OH268815   3.807   2.710  14.672 -0.0320 -0.0900  0.2012
15775TIP3    H168816   3.752   2.776  14.714  0.4645  0.6027 -0.1981
15775TIP3    H268817   3.874   2.689  14.737 -0.8458 -1.0514  0.7442
15776TIP3   OH268818   3.814   2.626   4.812  0.2366  0.1292  0.0911
15776TIP3    H168819   3.907   2.624   4.789 -0.0180 -1.1017 -0.9879
15776TIP3    H268820   3.808   2.574   4.892  0.2430 -1.7161 -1.0312
15777TIP3   OH268821   4.242   2.900   5.474  0.0702 -0.0021  0.3717
15777TIP3    H168822   4.280   2.812   5.481 -2.1568 -1.0660  0.1565
15777TIP3    H268823   4.269   2.944   5.554 -0.4203 -1.6070  1.4622
15778TIP3   OH268824   4.910   1.627  11.255 -0.1698 -0.1207 -0.3158
15778TIP3    H168825   4.907   1.578  11.173  0.9448  1.2184 -1.1982
15778TIP3    H268826   4.940   1.714  11.230  0.3631  0.2757  1.5329
15779TIP3   OH268827   0.349   4.539   1.539 -0.0164  0.6850 -0.2419
15779TIP3    H168828   0.387   4.451   1.533 -0.4877  0.5871 -3.2355
15779TIP3    H268829   0.400   4.583   1.607  2.6642 -0.7547 -1.1976
15780TIP3   OH268830   4.395   5.820  13.585 -0.4697  0.3250 -0.3595
15780TIP3    H168831   4.377   5.766  13.508 -1.1942 -0.2034  0.1662
15780TIP3    H268832   4.425   5.904  13.549 -0.6179  0.0171 -1.2115
15781TIP3   OH268833   1.598   1.524  13.543 -0.2003  0.1339 -0.2257
15781TIP3    H168834   1.620   1.560  13.629 -1.5970  0.0378  0.1944
15781TIP3    H268835   1.529   1.582  13.510  0.5528  0.3769 -1.4502
15782TIP3   OH268836   2.220   0.079   2.351  0.2011 -0.1930 -0.3634
15782TIP3    H168837   2.188   0.167   2.371 -0.5984 -0.0882 -1.8967
15782TIP3    H268838   2.287   0.092   2.283  0.9751 -0.6884  0.2839
15783TIP3   OH268839   3.577   1.115  11.363  0.5292 -0.4841  0.3110
15783TIP3    H168840   3.624   1.043  11.321 -1.8899 -2.1930  0.3455
15783TIP3    H268841   3.507   1.073  11.413 -0.0813  1.8281  1.5550
15784TIP3   OH268842   1.800   5.049   4.772 -0.5063 -0.2668 -0.3832
15784TIP3    H168843   1.842   5.084   4.851 -0.7182 -0.4216 -0.2012
15784TIP3    H268844   1.841   5.097   4.700 -1.0870  0.6534 -0.1094
15785TIP3   OH268845   0.456   4.206   1.246  0.2615 -0.7267 -0.3954
15785TIP3    H168846   0.396   4.280   1.252  0.6491 -0.4725  0.6496
15785TIP3    H268847   0.535   4.242   1.206  0.9643 -0.2047  1.3803
15786TIP3   OH268848   6.807   1.047   3.283  0.6863 -0.0676  0.5191
15786TIP3    H168849   6.733   1.094   3.321  0.9508  1.0229 -0.2402
15786TIP3    H268850   6.772   0.963   3.255  0.0398 -0.0683  1.3172
15787TIP3   OH268851   1.247   2.715   0.462 -0.1760  0.8191 -0.3616
15787TIP3    H168852   1.204   2.728   0.378  0.3196 -0.3393 -0.8130
15787TIP3    H268853   1.197   2.645   0.504  0.4418  0.3895 -0.3261
15788TIP3   OH268854   1.141   1.282  13.283 -0.5742  0.2908  0.7234
15788TIP3    H168855   1.143   1.203  13.228 -0.7632  0.7024  0.1220
15788TIP3    H268856   1.086   1.256  13.358 -0.8573 -0.0695  0.4015
15789TIP3   OH268857   6.766   6.490   3.664  0.5148 -0.3792  0.0630
15789TIP3    H168858   6.682   6.479   3.620  0.5812  1.1257 -0.5261
15789TIP3    H268859   6.754   6.450   3.749 -0.9452  0.1221  0.1258
15790TIP3   OH268860   6.272   4.426   3.180  0.5584 -0.6925  0.4247
15790TIP3    H168861   6.216   4.484   3.231  2.1532  1.2452  0.1343
15790TIP3    H268862   6.215   4.356   3.150 -2.2576  2.2244 -1.6335
15791TIP3   OH268863   6.451   3.911  15.998 -0.0784  0.3945  0.2064
15791TIP3    H168864   6.527   3.960  16.029  1.2117 -0.5375 -1.3085
15791TIP3    H268865   6.456   3.918  15.902 -1.0958 -0.8541  0.0339
15792TIP3   OH268866   5.447   2.933  14.267  0.3281 -0.4496  0.2957
15792TIP3    H168867   5.409   2.915  14.182 -2.9555  2.4800  0.9249
15792TIP3    H268868   5.423   2.857  14.321 -0.3744 -0.8548 -0.5714
15793TIP3   OH268869   3.406   5.132   4.377  0.5179  0.1649  0.0642
15793TIP3    H168870   3.333   5.087   4.420  0.0003 -0.4545 -1.3975
15793TIP3    H268871   3.437   5.069   4.312  0.3610  1.5607 -1.4206
15794TIP3   OH268872   5.886   4.148   5.030  0.0848 -0.9062  0.3149
15794TIP3    H168873   5.899   4.241   5.049  0.3521 -0.9255  0.2264
15794TIP3    H268874   5.860   4.111   5.114  0.5868 -0.8612  0.4957
15795TIP3   OH268875   2.192   0.100  12.770  0.6949 -0.1677 -0.2105
15795TIP3    H168876   2.287   0.113  12.764  0.3037  3.2236 -1.7557
15795TIP3    H268877   2.155   0.182  12.736 -2.8093 -2.1979 -1.8662
15796TIP3   OH268878   2.112   5.639  14.769 -0.3362 -0.5793 -0.0764
15796TIP3    H168879   2.139   5.630  14.677 -1.4866  0.5185 -0.5530
15796TIP3    H268880   2.160   5.717  14.799 -2.1745  0.8618 -0.6730
15797TIP3   OH268881   5.692   1.342  11.867 -0.5062 -0.1369  0.1497
15797TIP3    H168882   5.651   1.261  11.898 -1.4388 -0.0062 -0.7097
15797TIP3    H268883   5.714   1.325  11.776 -0.9600  0.6798 -0.1177
15798TIP3   OH268884   0.041   5.524   0.899  0.6970  0.5315  0.1208
15798TIP3    H168885   0.055   5.464   0.971  0.6302  1.7991  1.2250
15798TIP3    H268886   0.129   5.547   0.869  0.7302 -1.1341 -1.2425
15799TIP3   OH268887   2.044   1.437   0.457  0.7028  0.5138 -0.8317
15799TIP3    H168888   2.127   1.483   0.472  1.1716 -0.7127  0.5923
15799TIP3    H268889   2.001   1.437   0.543  1.1391 -2.4120 -0.5050
15800TIP3   OH268890   1.173   0.489   4.419 -0.3260  0.8795  0.0887
15800TIP3    H168891   1.182   0.529   4.505  2.8319  0.2199  0.1747
15800TIP3    H268892   1.234   0.415   4.420 -1.0619  0.1458 -2.3369
15801TIP3   OH268893   5.640   1.197   1.267  0.1532 -0.2230  0.5885
15801TIP3    H168894   5.680   1.120   1.307 -1.3259 -0.3690  1.8939
15801TIP3    H268895   5.558   1.164   1.231  0.8084  0.2019 -1.4149
15802TIP3   OH268896   2.353   3.867   3.324 -0.3002 -0.1449 -0.6099
15802TIP3    H168897   2.293   3.844   3.395 -0.2039 -1.1070 -0.8211
15802TIP3    H268898   2.302   3.858   3.244 -0.0059 -0.5511 -0.7601
15803TIP3   OH268899   6.085   4.914  12.588  0.0755  0.1076  0.2456
15803TIP3    H168900   6.158   4.899  12.649  1.1705  0.7454 -0.8516
15803TIP3    H268901   6.127   4.918  12.502 -0.9873  2.4206 -0.2345
15804TIP3   OH268902   4.104   2.433  11.663  0.3855  0.1998  0.4536
15804TIP3    H168903   4.112   2.354  11.610 -0.3360  0.4425 -0.0257
15804TIP3    H268904   4.176   2.427  11.725 -0.8916 -1.9710  1.9023
15805TIP3   OH268905   3.704   3.692  11.441 -0.2850  0.5517  0.2490
15805TIP3    H168906   3.763   3.748  11.390 -0.1847  0.9316  0.7659
15805TIP3    H268907   3.736   3.701  11.531 -0.4535 -0.1089  0.3798
15806TIP3   OH268908   5.310   4.666  16.975 -0.6336 -0.2359  0.1036
15806TIP3    H168909   5.390   4.705  17.010 -1.1126  0.5676  0.3336
15806TIP3    H268910   5.340   4.608  16.905  0.3244 -1.6351  1.6031
15807TIP3   OH268911   6.417   5.200   4.167  0.2577 -0.6112 -0.1161
15807TIP3    H168912   6.422   5.225   4.075 -0.6520 -0.1160 -0.0463
15807TIP3    H268913   6.460   5.272   4.214 -2.3226  0.9432  0.0810
15808TIP3   OH268914   5.135   5.359   3.405 -0.1867  0.2831 -0.2124
15808TIP3    H168915   5.115   5.396   3.319  0.4181 -3.4670 -2.1851
15808TIP3    H268916   5.065   5.295   3.421 -1.0209  1.7727  2.8235
15809TIP3   OH268917   5.348   0.240  14.554 -0.5832 -1.0273 -0.0641
15809TIP3    H168918   5.303   0.157  14.572 -0.9745 -0.2858  3.0335
15809TIP3    H268919   5.309   0.302  14.616  1.3770  0.8784 -0.6005
15810TIP3   OH268920   5.225   0.613  13.279  0.2788  0.1489  0.2162
15810TIP3    H168921   5.156   0.552  13.305  1.0277 -1.3474 -1.1410
15810TIP3    H268922   5.207   0.632  13.187  0.6721  1.1499  0.3331
15811TIP3   OH268923   3.167   6.647   1.700  0.1493  0.1378  0.2737
15811TIP3    H168924   3.204   6.594   1.770  0.5852 -0.0891 -0.1229
15811TIP3    H268925   3.238   6.706   1.675  0.3767 -0.5407 -0.7361
15812TIP3   OH268926   3.773   5.032   4.329  0.0053 -0.0303  0.1728
15812TIP3    H168927   3.738   4.990   4.407 -1.3516  1.0525  0.1959
15812TIP3    H268928   3.865   5.005   4.325 -0.1440 -0.8220  1.6238
15813TIP3   OH268929   6.317   6.328   0.040  0.6507 -0.5953 -0.8634
15813TIP3    H168930   6.311   6.371   0.125  2.6531  1.4161 -1.6350
15813TIP3    H268931   6.291   6.237   0.057 -0.0164 -0.0132  1.6412
15814TIP3   OH268932   0.864   5.175   3.869  0.1979 -0.3379  0.1453
15814TIP3    H168933   0.836   5.143   3.955 -0.3587  0.8416  0.4199
15814TIP3    H268934   0.945   5.223   3.886  0.1103 -0.1404  0.0076
15815TIP3   OH268935   1.444   1.149  15.318 -0.0320 -0.2537  0.6672
15815TIP3    H168936   1.448   1.242  15.339  1.1520 -0.3054  0.7834
15815TIP3    H268937   1.500   1.139  15.241  0.1647 -0.9146  0.8851
15816TIP3   OH268938   1.593   5.494   5.810 -0.3102  0.6409  0.3902
15816TIP3    H168939   1.644   5.551   5.868 -0.7044  0.1669  1.2324
15816TIP3    H268940   1.584   5.412   5.859 -0.2059  0.0356 -0.5810
15817TIP3   OH268941   0.154   4.224   1.600 -0.4035 -0.6500 -0.1192
15817TIP3    H168942   0.119   4.153   1.546 -1.7256 -1.2182  1.4326
15817TIP3    H268943   0.133   4.199   1.689  1.3875  0.4719  0.6708
15818TIP3   OH268944   5.542   6.374   4.785 -0.3757 -0.5825  0.1633
15818TIP3    H168945   5.569   6.385   4.876  1.2576 -0.0862 -0.3290
15818TIP3    H268946   5.450   6.399   4.784  0.1100  1.5424  1.3238
15819TIP3   OH268947   1.903   0.657  13.093 -0.2940 -0.2207 -0.0711
15819TIP3    H168948   1.824   0.675  13.043  0.2602  2.5455 -0.0926
15819TIP3    H268949   1.967   0.720  13.061  0.7208  0.2619  2.6176
15820TIP3   OH268950   2.069   0.598  14.914 -0.4876 -0.2262  0.3273
15820TIP3    H168951   2.071   0.547  14.995 -0.7985  1.0471  1.1620
15820TIP3    H268952   2.158   0.631  14.904 -0.2618 -0.9747 -0.2653
15821TIP3   OH268953   3.923   6.559   4.316  0.3589  0.0114 -0.0251
15821TIP3    H168954   3.843   6.562   4.368  0.7133 -0.2308  0.5472
15821TIP3    H268955   3.991   6.591   4.375  0.4985  1.3863 -0.8880
15822TIP3   OH268956   0.675   4.132   2.548  0.0759 -0.6834 -0.2945
15822TIP3    H168957   0.724   4.135   2.630 -0.3935  0.1524 -0.0458
15822TIP3    H268958   0.733   4.174   2.484 -0.6095  0.9836  0.1575
15823TIP3   OH268959   5.164   1.509  11.358  0.7789 -0.3574  0.0920
15823TIP3    H168960   5.080   1.551  11.341  0.8516 -0.7408 -1.3455
15823TIP3    H268961   5.229   1.568  11.319  1.1265 -0.4246  0.5528
15824TIP3   OH268962   2.037   0.562   2.088 -0.1423  0.0538 -0.0145
15824TIP3    H168963   1.959   0.532   2.135  0.1533 -0.8754 -0.1106
15824TIP3    H268964   2.110   0.517   2.131  0.3483  0.9149  0.0710
15825TIP3   OH268965   6.624   2.841   2.620  0.1429 -0.2976  0.6321
15825TIP3    H168966   6.579   2.756   2.624 -2.1380  0.9102  2.4743
15825TIP3    H268967   6.558   2.902   2.589  0.5037  1.4930  3.1335
15826TIP3   OH268968   2.001   1.950  16.000  0.0581 -0.2869 -0.1898
15826TIP3    H168969   1.962   1.896  15.932  0.1864 -2.5247  1.3942
15826TIP3    H268970   2.095   1.935  15.991  0.1988  0.7587 -0.5677
15827TIP3   OH268971   0.395   1.340  11.719 -0.2064  0.2289 -0.0495
15827TIP3    H168972   0.440   1.413  11.677  0.2478 -1.3213 -2.5093
15827TIP3    H268973   0.464   1.296  11.770 -0.7925  2.2087  2.6327
15828TIP3   OH268974   0.892   6.282  12.963  0.1435 -0.1673  0.3526
15828TIP3    H168975   0.838   6.361  12.962  0.2671 -0.0630  0.9709
15828TIP3    H268976   0.903   6.259  12.871 -0.4724  0.1373  0.1949
15829TIP3   OH268977   1.463   4.204   2.089 -0.4803  0.3386 -0.1268
15829TIP3    H168978   1.386   4.173   2.042 -0.8342  1.5546 -0.3773
15829TIP3    H268979   1.469   4.297   2.068  2.9807 -0.2849 -2.8412
15830TIP3   OH268980   1.863   3.196   4.576 -0.3553  0.9096  0.3122
15830TIP3    H168981   1.922   3.216   4.648 -1.4685  0.0007  1.5281
15830TIP3    H268982   1.863   3.101   4.570 -1.4567  0.9089  0.1269
15831TIP3   OH268983   2.332   0.091  15.887 -0.9017 -0.4137  0.4944
15831TIP3    H168984   2.255   0.117  15.838 -0.1125  0.0175 -0.5343
15831TIP3    H268985   2.403   0.145  15.853 -0.0382 -1.1336  1.0876
15832TIP3   OH268986   6.772   3.286   4.072  0.4410 -0.7046 -0.1524
15832TIP3    H168987   6.728   3.295   4.156  1.7893 -1.2651  0.6502
15832TIP3    H268988   6.845   3.347   4.076 -0.5887  0.7420 -1.7461
15833TIP3   OH268989   4.337   2.245  12.280 -0.2423 -0.0695  0.1010
15833TIP3    H168990   4.394   2.314  12.314  0.2813 -0.3625 -0.1733
15833TIP3    H268991   4.319   2.190  12.356 -0.3534  0.1597  0.2408
15834TIP3   OH268992   3.853   1.848   4.327  0.2399  0.1556  0.1024
15834TIP3    H168993   3.850   1.753   4.334  1.1221  0.1868  1.1677
15834TIP3    H268994   3.766   1.873   4.295  0.1431 -1.0221 -0.6068
15835TIP3   OH268995   3.986   5.075  17.033  0.0487  0.6126  0.0057
15835TIP3    H168996   3.996   4.980  17.037  1.6758  0.7926  0.8990
15835TIP3    H268997   3.987   5.103  17.125  0.2601  1.5589 -0.2774
15836TIP3   OH268998   5.754   3.374   4.130 -0.3535  0.5530 -0.4497
15836TIP3    H168999   5.754   3.312   4.058  0.7316 -0.0345  0.0436
15836TIP3    H269000   5.712   3.328   4.202 -0.9384  0.9467 -0.5265
15837TIP3   OH269001   3.623   4.242   0.738  0.7433 -0.0778  0.2569
15837TIP3    H169002   3.560   4.194   0.683  0.8811  0.3317 -0.2750
15837TIP3    H269003   3.568   4.293   0.797  0.5913 -0.5020  0.4924
15838TIP3   OH269004   0.181   3.770   5.084  0.6026  0.1144  0.3300
15838TIP3    H169005   0.257   3.735   5.037  1.2328  1.4498  0.3150
15838TIP3    H269006   0.157   3.701   5.145 -0.4673 -1.8508 -2.1383
15839TIP3   OH269007   0.484   0.299   4.489 -0.1903  0.0935 -0.0860
15839TIP3    H169008   0.475   0.207   4.513 -1.3545 -0.1166 -1.1791
15839TIP3    H269009   0.456   0.347   4.567  1.6212 -0.4064  0.9433
15840TIP3   OH269010   0.691   2.743   5.580  0.1616 -0.3200 -0.2881
15840TIP3    H169011   0.694   2.776   5.669  1.4161 -0.2745 -0.3333
15840TIP3    H269012   0.598   2.728   5.563 -0.1203  0.0170  0.8897
15841TIP3   OH269013   0.988   6.256   2.700  0.3836  0.1145 -0.3895
15841TIP3    H169014   1.026   6.178   2.739 -1.6924 -0.9639 -0.4029
15841TIP3    H269015   0.950   6.304   2.774 -0.7848 -0.3345 -0.6722
15842TIP3   OH269016   3.150   6.819   6.054  0.6162 -0.1673  0.4081
15842TIP3    H169017   3.202   6.750   6.012  0.2415 -0.5424  0.5511
15842TIP3    H269018   3.128   6.784   6.140 -1.6550 -0.9352 -0.3963
15843TIP3   OH269019   6.693   4.304  15.336  0.6370 -0.2667 -0.8134
15843TIP3    H169020   6.728   4.344  15.257 -0.7327  1.6740 -0.5179
15843TIP3    H269021   6.599   4.323  15.333  0.7437  1.2754  1.9616
15844TIP3   OH269022   6.354   1.003  10.630  0.2689 -0.5564 -0.3800
15844TIP3    H169023   6.413   1.075  10.652  0.3835 -0.9894  0.8131
15844TIP3    H269024   6.271   1.026  10.672  0.3211 -1.1219  0.0578
15845TIP3   OH269025   6.562   0.993  16.846 -0.2925  0.4871 -0.0675
15845TIP3    H169026   6.548   1.072  16.898 -0.7884  0.9907 -0.9318
15845TIP3    H269027   6.513   0.925  16.892 -0.2318  0.7835  0.4420
15846TIP3   OH269028   5.400   3.220   5.603  0.1085  0.1232  0.5577
15846TIP3    H169029   5.309   3.213   5.631 -0.2817  0.2830 -0.6225
15846TIP3    H269030   5.406   3.165   5.525  1.0615 -0.0024  0.7020
15847TIP3   OH269031   1.535   2.400   4.960  0.3500  0.3720 -0.3665
15847TIP3    H169032   1.442   2.391   4.939  0.5756  2.5958 -2.8015
15847TIP3    H269033   1.539   2.471   5.024  0.4063  0.7143 -0.7470
15848TIP3   OH269034   5.973   2.716   4.900  0.1891 -0.1768 -0.3623
15848TIP3    H169035   5.902   2.652   4.903 -0.3653  0.4494  0.9097
15848TIP3    H269036   5.939   2.789   4.849  0.3654 -0.3789 -0.7704
15849TIP3   OH269037   4.140   3.362   4.704  0.3673 -0.2625 -0.1473
15849TIP3    H169038   4.233   3.341   4.711  0.8195  1.6773  0.1797
15849TIP3    H269039   4.131   3.401   4.617  0.5657  2.4632  0.9330
15850TIP3   OH269040   3.127   3.907   4.602  0.6621 -0.4180  0.1809
15850TIP3    H169041   3.172   3.824   4.588  1.0434 -0.4082  1.2338
15850TIP3    H269042   3.197   3.973   4.602  0.5421 -0.2823  0.8460
15851TIP3   OH269043   1.966   0.216  11.876 -0.6601 -0.6507 -0.4282
15851TIP3    H169044   1.912   0.246  11.948  0.3365 -1.3675  0.6488
15851TIP3    H269045   1.926   0.133  11.849 -1.5540  0.0413 -1.3233
15852TIP3   OH269046   5.570   0.274  16.535  0.0358  0.0479  0.2154
15852TIP3    H169047   5.632   0.286  16.463 -0.6510  3.5742  0.0538
15852TIP3    H269048   5.624   0.243  16.608  1.2655 -0.6807 -0.9492
15853TIP3   OH269049   0.978   6.475  13.698 -0.6323 -0.6696 -0.0778
15853TIP3    H169050   0.910   6.441  13.640 -1.2631  0.3736  0.0223
15853TIP3    H269051   0.955   6.442  13.784 -0.6621 -0.8136 -0.1398
15854TIP3   OH269052   5.704   3.754   4.899 -0.3811 -0.0858  0.1367
15854TIP3    H169053   5.772   3.734   4.835  1.3549  0.1879  1.8233
15854TIP3    H269054   5.654   3.673   4.908 -1.1446  0.0797 -2.0541
15855TIP3   OH269055   2.414   5.017  11.971  0.4904 -0.2495 -0.4050
15855TIP3    H169056   2.343   5.079  11.953  1.3874  1.1779  0.7307
15855TIP3    H269057   2.371   4.943  12.014 -0.5546 -0.3005 -1.4881
15856TIP3   OH269058   5.468   2.252  15.968 -0.8025 -0.0495 -0.1935
15856TIP3    H169059   5.528   2.240  15.894  1.2498  0.7015  1.2610
15856TIP3    H269060   5.448   2.346  15.967 -0.0353  0.1333  0.7096
15857TIP3   OH269061   1.544   6.084  16.839 -0.7901  0.0528 -0.2670
15857TIP3    H169062   1.622   6.119  16.794 -1.2369  0.1543 -0.9755
15857TIP3    H269063   1.499   6.033  16.772 -1.1325 -0.3334  0.2510
15858TIP3   OH269064   3.137   3.403   3.486 -0.4297  0.1325 -0.3470
15858TIP3    H169065   3.185   3.486   3.492  0.6472 -0.5673  4.4714
15858TIP3    H269066   3.204   3.338   3.464 -1.0766  0.2503 -2.9949
15859TIP3   OH269067   1.132   2.137  15.938  0.0043  0.1446 -1.3736
15859TIP3    H169068   1.179   2.206  15.984  0.4573 -0.1856 -1.3263
15859TIP3    H269069   1.042   2.168  15.933  0.2609  0.8747 -1.6326
15860TIP3   OH269070   0.423   2.063  12.179  0.0890  0.5632 -0.2593
15860TIP3    H169071   0.351   2.115  12.143 -0.0348  0.2926 -0.4046
15860TIP3    H269072   0.440   2.102  12.265  1.2024  1.9927 -1.0827
15861TIP3   OH269073   4.119   1.592   6.332 -0.2624  0.1064 -0.1454
15861TIP3    H169074   4.158   1.517   6.378  1.1177  0.2069 -1.1167
15861TIP3    H269075   4.026   1.570   6.327  0.2598 -2.1437 -1.4269
15862TIP3   OH269076   5.786   5.945  15.387 -0.6332 -0.7591 -0.5056
15862TIP3    H169077   5.879   5.964  15.396 -0.0088 -2.8498 -1.8453
15862TIP3    H269078   5.768   5.959  15.293 -2.0400  0.9290 -0.0520
15863TIP3   OH269079   4.188   3.470  12.034 -0.3660  0.1092  0.0114
15863TIP3    H169080   4.128   3.453  12.107 -0.4339 -0.6758 -0.2125
15863TIP3    H269081   4.188   3.388  11.984 -0.1446  0.5616 -0.7422
15864TIP3   OH269082   2.799   0.795   0.935 -0.1800 -0.4573 -0.1795
15864TIP3    H169083   2.761   0.788   0.847 -0.4010 -1.3642 -0.0186
15864TIP3    H269084   2.844   0.712   0.949 -0.9128 -0.6972  0.9053
15865TIP3   OH269085   4.150   0.259  16.637 -0.0336  0.6316  0.1857
15865TIP3    H169086   4.222   0.219  16.687 -0.4743 -0.9686 -0.4027
15865TIP3    H269087   4.192   0.331  16.589  1.1960 -0.2472 -0.1200
15866TIP3   OH269088   1.070   6.401   0.759 -0.0053 -0.0191  0.3002
15866TIP3    H169089   0.983   6.425   0.790  0.2016  0.6089  0.4071
15866TIP3    H269090   1.130   6.454   0.811  0.3980  0.1816 -0.3444
15867TIP3   OH269091   2.483   5.270  11.130  1.1386  1.0351 -0.3956
15867TIP3    H169092   2.405   5.268  11.074  1.0203  1.1227 -0.2349
15867TIP3    H269093   2.531   5.191  11.106  2.0444  2.0019 -1.9640
15868TIP3   OH269094   0.835   5.506  16.695 -0.4742 -0.3110 -0.0140
15868TIP3    H169095   0.785   5.504  16.613 -2.4026  1.6257  1.0250
15868TIP3    H269096   0.831   5.598  16.723 -0.1870 -0.9809  2.4306
15869TIP3   OH269097   1.339   4.657  16.469 -0.1564 -0.3040 -0.5197
15869TIP3    H169098   1.286   4.699  16.537  0.3162 -0.9223  0.2504
15869TIP3    H269099   1.295   4.679  16.387 -0.2078  1.2704 -0.1057
15870TIP3   OH269100   4.327   4.703  11.883  0.7027  0.3244  0.5282
15870TIP3    H169101   4.322   4.795  11.856  0.3731  0.2830  0.4390
15870TIP3    H269102   4.368   4.658  11.809  2.2169  0.6253  1.1483
15871TIP3   OH269103   3.461   3.734   4.796  0.0007  0.1296  0.0375
15871TIP3    H169104   3.401   3.712   4.724 -2.1360 -0.9666  2.0358
15871TIP3    H269105   3.425   3.813   4.834 -0.1030 -0.4401  1.1581
15872TIP3   OH269106   5.175   4.408   0.383 -0.1888  0.0784 -0.1060
15872TIP3    H169107   5.185   4.502   0.397  0.5041 -0.0057  0.0057
15872TIP3    H269108   5.265   4.376   0.372 -0.5153 -0.1302 -3.0842
15873TIP3   OH269109   5.237   0.017  11.959 -0.1196  0.4405 -0.6164
15873TIP3    H169110   5.264  -0.075  11.972  1.0076  0.8898  0.4839
15873TIP3    H269111   5.155   0.025  12.007 -0.3939 -0.0788 -0.9945
15874TIP3   OH269112   5.277   5.658  13.404 -0.1971 -0.4002  0.1107
15874TIP3    H169113   5.326   5.667  13.486 -2.5605 -0.2782  1.6039
15874TIP3    H269114   5.227   5.739  13.396 -0.3457 -0.5972 -1.2513
15875TIP3   OH269115   1.144   6.099   1.650  0.2477  0.4272 -0.5829
15875TIP3    H169116   1.059   6.140   1.660  0.9460  1.5795  1.0315
15875TIP3    H269117   1.138   6.050   1.568 -2.5613 -1.0756  0.3966
15876TIP3   OH269118   1.127   2.579  15.016  0.0282 -0.0570 -0.2607
15876TIP3    H169119   1.121   2.515  15.088  2.0152 -0.0714 -0.0414
15876TIP3    H269120   1.186   2.647  15.050  0.4628  0.2754 -1.6235
15877TIP3   OH269121   2.860   5.765  13.846  0.3716  0.2558 -0.1604
15877TIP3    H169122   2.914   5.705  13.795 -0.5282 -0.5355 -0.1983
15877TIP3    H269123   2.770   5.739  13.828 -0.0254  1.2568  0.2645
15878TIP3   OH269124   5.887   6.456  12.515 -0.1737 -0.2600 -0.0023
15878TIP3    H169125   5.906   6.538  12.470 -0.3527  0.8698  1.8662
15878TIP3    H269126   5.947   6.455  12.590 -0.9077 -1.2853  0.5980
15879TIP3   OH269127   2.736   4.187   4.356 -0.4043 -0.1165  0.0922
15879TIP3    H169128   2.814   4.138   4.330  0.0101 -0.0581  1.1726
15879TIP3    H269129   2.726   4.255   4.289  1.3760  0.8425  0.7523
15880TIP3   OH269130   6.678   4.057  11.810  0.1257  0.3095 -0.1814
15880TIP3    H169131   6.651   4.117  11.880 -1.1943  0.3108 -0.6781
15880TIP3    H269132   6.621   4.079  11.736  0.5011 -0.6968 -0.7817
15881TIP3   OH269133   5.162   5.031   0.253 -0.2853  0.1152  0.0877
15881TIP3    H169134   5.175   5.100   0.317 -1.8840 -0.0303  0.6169
15881TIP3    H269135   5.159   5.076   0.168 -1.1804  0.7070  0.4179
15882TIP3   OH269136   0.672   3.616   3.994 -0.1037 -0.2297 -0.1801
15882TIP3    H169137   0.655   3.553   4.064  0.2741 -1.7085 -1.3549
15882TIP3    H269138   0.602   3.599   3.930 -0.5094  1.1691 -0.1336
15883TIP3   OH269139   5.147   6.191   1.662  0.1904 -0.2680 -0.4853
15883TIP3    H169140   5.212   6.257   1.639 -1.4176  0.9506 -1.7655
15883TIP3    H269141   5.135   6.140   1.582 -1.6669  0.6660 -0.8583
15884TIP3   OH269142   1.061   6.273  15.506  0.7777 -0.6679  0.3193
15884TIP3    H169143   1.133   6.301  15.450  0.3613 -0.1921  0.0046
15884TIP3    H269144   0.987   6.261  15.445 -0.1154  1.3764  0.9259
15885TIP3   OH269145   3.726   2.589  16.440 -0.0626 -0.2015 -0.4093
15885TIP3    H169146   3.651   2.572  16.497 -0.5780  0.9207 -0.7278
15885TIP3    H269147   3.689   2.630  16.362  1.0010  1.5532 -0.0385
15886TIP3   OH269148   5.921   0.887  13.649  0.3979 -0.7326 -0.2141
15886TIP3    H169149   5.928   0.836  13.730  0.4021  0.4223  0.5417
15886TIP3    H269150   6.002   0.938  13.646 -0.3306  0.4680 -0.0608
15887TIP3   OH269151   1.950   4.646   2.217 -0.5797 -0.8038  0.1123
15887TIP3    H169152   1.929   4.649   2.311  1.3533  2.2493  0.5764
15887TIP3    H269153   2.023   4.585   2.211  1.0797  0.9782  1.1210
15888TIP3   OH269154   0.505   5.925   2.841  0.0983  0.7652  0.3871
15888TIP3    H169155   0.599   5.941   2.847  0.3363 -0.6535  0.8332
15888TIP3    H269156   0.491   5.896   2.751  0.2529  0.0304  0.5975
15889TIP3   OH269157   1.641   0.167   1.118 -0.2500 -0.1919  0.1544
15889TIP3    H169158   1.580   0.093   1.121 -0.9470  0.3217 -0.8694
15889TIP3    H269159   1.585   0.244   1.105  0.6493  0.2469 -1.3102
15890TIP3   OH269160   4.123   0.975  12.866  0.0043  0.2255  0.1962
15890TIP3    H169161   4.095   1.031  12.794 -1.3267  0.6905  1.0339
15890TIP3    H269162   4.201   0.931  12.834  0.1748  1.3919 -1.0460
15891TIP3   OH269163   1.077   4.100  13.592  0.4583  0.6389 -0.2418
15891TIP3    H169164   1.025   4.029  13.554  0.4656  1.7245 -2.4519
15891TIP3    H269165   1.147   4.055  13.640 -0.9163 -0.8213  0.5027
15892TIP3   OH269166   1.078   0.629  11.502  0.7320  0.6161 -0.5302
15892TIP3    H169167   1.040   0.570  11.437 -1.3126 -0.9808  1.9644
15892TIP3    H269168   1.028   0.710  11.493 -0.6200 -0.1260  0.0397
15893TIP3   OH269169   6.419   6.107  14.079  0.2900 -0.3761  0.2285
15893TIP3    H169170   6.513   6.094  14.097  0.4835 -0.3446 -0.7117
15893TIP3    H269171   6.413   6.106  13.984 -0.6982 -0.5500  0.2867
15894TIP3   OH269172   3.734   5.426  15.477 -0.2010  0.6416 -0.1482
15894TIP3    H169173   3.817   5.427  15.428 -0.1859  1.4372 -0.1182
15894TIP3    H269174   3.753   5.476  15.557  0.5920 -2.8549  2.0887
15895TIP3   OH269175   0.428   0.365   2.748  0.4437  0.6742  0.7306
15895TIP3    H169176   0.501   0.417   2.716  0.3028 -0.8128 -2.3203
15895TIP3    H269177   0.455   0.274   2.737 -2.2380  0.0322 -1.7933
15896TIP3   OH269178   6.128   4.384  13.907 -0.0484  0.2731  0.1084
15896TIP3    H169179   6.120   4.351  13.997 -1.9038  0.7904  0.1731
15896TIP3    H269180   6.208   4.343  13.874 -1.1828 -2.8328  0.8145
15897TIP3   OH269181   6.442   4.881  12.940  0.1300 -0.2019 -0.4012
15897TIP3    H169182   6.447   4.888  13.035  0.8838  0.8412 -0.5029
15897TIP3    H269183   6.447   4.787  12.923 -2.3526 -0.6242  0.6721
15898TIP3   OH269184   1.044   0.301  13.592 -0.2323 -0.1266  0.7524
15898TIP3    H169185   1.078   0.211  13.590  2.8812  0.9402  0.9053
15898TIP3    H269186   0.966   0.298  13.538  0.6620 -2.6045 -0.5725
15899TIP3   OH269187   4.406   3.513  12.912  0.0184 -0.4166 -0.1286
15899TIP3    H169188   4.433   3.509  13.004  2.2285  1.3157 -0.6375
15899TIP3    H269189   4.325   3.462  12.910 -0.1438 -0.4790  2.7776
15900TIP3   OH269190   5.758   5.871   3.208  0.1582  0.1364  0.7181
15900TIP3    H169191   5.805   5.791   3.184  0.6977 -0.1485  2.5514
15900TIP3    H269192   5.815   5.942   3.180  0.2790 -0.1403  0.2485
15901TIP3   OH269193   4.125   6.035  12.418  0.0363 -0.7416 -1.1040
15901TIP3    H169194   4.104   6.006  12.506  1.1227  2.1833  0.2672
15901TIP3    H269195   4.040   6.054  12.378 -0.4421 -1.0748 -0.2702
15902TIP3   OH269196   4.848   2.103  11.786 -0.0920 -0.4098  0.3808
15902TIP3    H169197   4.932   2.127  11.746  0.1249 -1.5674  0.1045
15902TIP3    H269198   4.823   2.023  11.742 -0.8354 -0.6392  1.2018
15903TIP3   OH269199   2.856   4.002   0.152 -0.3829  0.6159  0.0792
15903TIP3    H169200   2.909   4.001   0.232 -0.6313  0.8164  0.2495
15903TIP3    H269201   2.766   3.993   0.183 -0.3697 -1.0494 -0.2833
15904TIP3   OH269202   3.044   2.884   1.034 -0.0410 -0.0433  0.9364
15904TIP3    H169203   3.114   2.937   0.997 -1.1582  1.6223  1.0806
15904TIP3    H269204   3.072   2.865   1.123  0.1053  0.8810  1.0969
15905TIP3   OH269205   6.821   0.904   0.522 -0.1719 -0.2472 -0.4164
15905TIP3    H169206   6.766   0.839   0.565  1.4278 -2.1638 -1.1023
15905TIP3    H269207   6.852   0.960   0.594 -1.2034 -0.4981  0.2557
15906TIP3   OH269208   2.272   6.323  15.033  0.4191 -0.2131  0.4759
15906TIP3    H169209   2.254   6.412  15.001  0.8885 -0.7707 -1.4665
15906TIP3    H269210   2.350   6.296  14.986  0.5150 -1.5291  1.3378
15907TIP3   OH269211   6.805   5.711  15.237  0.4841 -0.0975 -0.4013
15907TIP3    H169212   6.771   5.733  15.324  0.7455 -0.1960 -0.2714
15907TIP3    H269213   6.733   5.728  15.177 -0.0044 -0.9317 -0.0612
15908TIP3   OH269214   1.706   1.121   4.022 -0.3684 -0.0326 -0.0422
15908TIP3    H169215   1.616   1.149   4.006 -0.5174 -0.3263  0.2732
15908TIP3    H269216   1.734   1.080   3.940 -0.5901 -0.1126 -0.0766
15909TIP3   OH269217   6.107   3.051  13.189 -0.1009  0.2522  0.5271
15909TIP3    H169218   6.078   3.019  13.274  1.3769 -2.5230  0.1063
15909TIP3    H269219   6.045   3.013  13.127 -0.4361  1.2349  0.2424
15910TIP3   OH269220   0.945   0.235  14.114 -0.7888  0.4294  0.3676
15910TIP3    H169221   0.855   0.266  14.102 -1.6905  0.3216  4.9620
15910TIP3    H269222   0.937   0.164  14.178  2.4876 -0.8129 -0.3936
15911TIP3   OH269223   6.576   2.605  15.913 -0.0182  0.3529 -0.3005
15911TIP3    H169224   6.541   2.517  15.927  1.3071 -0.1476 -0.0042
15911TIP3    H269225   6.671   2.594  15.915  0.1754  1.6360 -1.2619
15912TIP3   OH269226   4.380   4.044  11.588 -0.5475  0.1958  0.0269
15912TIP3    H169227   4.440   3.973  11.612 -0.1017  0.6989  0.4439
15912TIP3    H269228   4.339   4.015  11.507  1.1172  0.3373 -0.9088
15913TIP3   OH269229   5.030   3.739   4.371 -0.1111  0.3526 -0.7461
15913TIP3    H169230   5.064   3.686   4.443 -3.7339  1.9265  2.5230
15913TIP3    H269231   5.105   3.788   4.339  1.7115 -0.1689  2.2936
15914TIP3   OH269232   5.218   4.093   0.987  0.0634  0.5217 -0.3698
15914TIP3    H169233   5.189   4.145   0.912  0.7055  1.1695 -0.1787
15914TIP3    H269234   5.252   4.158   1.049  0.5027 -0.0974  0.0401
15915TIP3   OH269235   1.169   3.934  12.087  0.2946  0.2137 -0.4648
15915TIP3    H169236   1.125   3.922  12.171  1.8274  1.1137  0.5254
15915TIP3    H269237   1.145   3.857  12.036  0.8735 -1.3584  1.5021
15916TIP3   OH269238   2.922   2.762  10.322 -0.3801 -0.8366  0.3062
15916TIP3    H169239   2.881   2.822  10.384  1.5465  0.8691  0.0429
15916TIP3    H269240   2.850   2.731  10.267 -1.5521  0.7206  0.8915
15917TIP3   OH269241   3.299   4.301  16.315 -0.0279  0.6983 -0.3568
15917TIP3    H169242   3.224   4.359  16.305 -0.4726  0.1746 -0.0784
15917TIP3    H269243   3.263   4.220  16.350  0.6199  0.3271 -0.5254
15918TIP3   OH269244   4.908   3.433   1.964 -0.1909  0.7800 -0.6811
15918TIP3    H169245   4.973   3.441   2.034 -0.2255  1.9811 -0.7629
15918TIP3    H269246   4.862   3.352   1.983 -0.1193  1.0272  0.6334
15919TIP3   OH269247   2.356   4.466  11.166 -0.0288 -0.0303  0.2643
15919TIP3    H169248   2.327   4.487  11.077  3.4660 -0.0040 -0.9998
15919TIP3    H269249   2.432   4.522  11.181 -0.0848 -0.5493  3.0318
15920TIP3   OH269250   6.629   2.235  13.936  0.2742  0.9158 -0.1065
15920TIP3    H169251   6.582   2.265  13.859 -0.2622  0.6361  0.1045
15920TIP3    H269252   6.562   2.194  13.991  0.6283  1.2081  0.5574
15921TIP3   OH269253   4.090   1.311   4.502  0.5741  0.1917 -0.3716
15921TIP3    H169254   4.178   1.313   4.538  0.6543 -1.0131 -0.4682
15921TIP3    H269255   4.076   1.399   4.467  1.9318  0.2470 -0.8308
15922TIP3   OH269256   1.518   4.427  12.923  0.0787  0.0623 -0.0410
15922TIP3    H169257   1.596   4.481  12.940  0.0210 -0.0667  0.6961
15922TIP3    H269258   1.520   4.411  12.829 -0.1396  1.6962 -0.3551
15923TIP3   OH269259   5.244   2.556   2.667 -0.1927 -0.4718  0.1931
15923TIP3    H169260   5.214   2.574   2.577 -1.2997  1.1052  0.8246
15923TIP3    H269261   5.277   2.640   2.698  0.4025 -1.0633  1.2009
15924TIP3   OH269262   6.018   2.970  14.343  0.3988 -0.6258 -0.2719
15924TIP3    H169263   6.021   3.003  14.433  0.3154 -0.5328 -0.3041
15924TIP3    H269264   5.929   2.935  14.333  0.3465 -0.4589 -0.3826
15925TIP3   OH269265   1.806   1.798   4.255  0.1829  0.3084  0.0083
15925TIP3    H169266   1.828   1.872   4.311  0.9580 -0.7251  1.1232
15925TIP3    H269267   1.888   1.750   4.244 -0.0152  0.2984 -1.7793
15926TIP3   OH269268   3.268   2.611  14.351  0.1422  0.7493 -0.1227
15926TIP3    H169269   3.177   2.635  14.366 -0.2201  0.9687 -2.3815
15926TIP3    H269270   3.270   2.573  14.264  2.1652  0.4419 -0.0052
15927TIP3   OH269271   6.225   6.561   5.263 -0.2281 -0.3220  0.4179
15927TIP3    H169272   6.224   6.474   5.302  0.1472 -0.3478  0.3786
15927TIP3    H269273   6.183   6.618   5.328  2.4123  0.0589  1.9202
15928TIP3   OH269274   5.176   0.211   5.527  0.6593  0.0530 -0.5586
15928TIP3    H169275   5.128   0.293   5.514 -0.8058 -0.7519 -0.4176
15928TIP3    H269276   5.133   0.171   5.603  1.9970 -0.4071 -0.0140
15929TIP3   OH269277   6.666   1.093  16.333 -0.2607  0.4371 -0.3891
15929TIP3    H169278   6.653   1.005  16.296 -2.1023  0.0994  0.9463
15929TIP3    H269279   6.624   1.151  16.270 -0.6131  0.1746 -0.4032
15930TIP3   OH269280   3.370   4.839  13.037  0.4723 -0.4206 -0.0507
15930TIP3    H169281   3.428   4.889  13.095  0.9987 -0.2355 -0.7280
15930TIP3    H269282   3.388   4.874  12.949 -0.5096 -0.5085 -0.2982
15931TIP3   OH269283   3.629   0.430  11.804 -0.2560  0.8516 -0.2347
15931TIP3    H169284   3.542   0.432  11.844 -0.1693  1.3290 -0.0751
15931TIP3    H269285   3.624   0.494  11.733  0.1302  1.2597  0.1081
15932TIP3   OH269286   2.863   1.892  15.498  0.4950 -0.2133 -0.4995
15932TIP3    H169287   2.799   1.863  15.432  0.6435  1.0347 -1.2207
15932TIP3    H269288   2.820   1.964  15.543  0.5312 -0.8410  0.5701
15933TIP3   OH269289   4.589   1.881   1.267 -0.1215 -0.3084 -0.2006
15933TIP3    H169290   4.672   1.846   1.232  0.2390 -0.7808  1.0748
15933TIP3    H269291   4.526   1.810   1.256  0.7444 -1.7448  2.9191
15934TIP3   OH269292   0.219   5.156   2.279 -0.0725  0.9004 -0.3222
15934TIP3    H169293   0.197   5.153   2.186  1.7272  0.1433 -0.7568
15934TIP3    H269294   0.174   5.081   2.318  0.1403  0.5251 -0.8058
15935TIP3   OH269295   2.249   5.233  10.853  0.5213  0.0856 -0.4261
15935TIP3    H169296   2.176   5.262  10.798 -0.1379 -0.0086  0.3696
15935TIP3    H269297   2.327   5.256  10.804 -0.0258  1.2869 -0.7803
15936TIP3   OH269298   6.357   1.161  13.757  0.2483  0.3465 -0.4326
15936TIP3    H169299   6.425   1.219  13.723  1.5604 -1.2365 -0.6291
15936TIP3    H269300   6.392   1.073  13.745 -1.1710 -0.4618  0.9127
15937TIP3   OH269301   0.495   0.728   3.821  0.0777  0.5741 -0.1911
15937TIP3    H169302   0.529   0.802   3.770 -0.0708 -1.4527 -3.4912
15937TIP3    H269303   0.573   0.677   3.845  0.1878  1.6803  2.1433
15938TIP3   OH269304   4.897   2.030  14.441  0.0805 -0.4518 -0.4128
15938TIP3    H169305   4.889   2.118  14.478  0.6014 -0.5665 -0.0219
15938TIP3    H269306   4.976   2.033  14.388 -0.0391 -0.6172 -0.6035
15939TIP3   OH269307   6.207   4.677   4.395  0.6107 -0.7370 -0.1993
15939TIP3    H169308   6.263   4.746   4.359  1.1972 -0.8433  0.4853
15939TIP3    H269309   6.128   4.723   4.422  0.8517 -0.3809 -0.0790
15940TIP3   OH269310   1.900   5.115   2.801 -0.2394  0.5986  0.2435
15940TIP3    H169311   1.875   5.026   2.824  0.3104  0.6139  0.9029
15940TIP3    H269312   1.991   5.124   2.829 -0.1691  1.2552 -0.1419
15941TIP3   OH269313   6.713   3.645   2.716  0.5473  0.4419  0.4494
15941TIP3    H169314   6.788   3.643   2.775  1.8068  1.1618 -1.0724
15941TIP3    H269315   6.675   3.732   2.727  1.2758  0.8727 -0.3756
15942TIP3   OH269316   0.774   6.529   1.365  0.2952 -0.0645  0.2090
15942TIP3    H169317   0.730   6.599   1.319 -0.5698 -0.9132 -0.2901
15942TIP3    H269318   0.807   6.472   1.296  0.1214 -0.6680  0.6137
15943TIP3   OH269319   1.561   1.699  10.801  0.1134  0.0825  0.0303
15943TIP3    H169320   1.598   1.727  10.718  0.0290 -1.7977 -0.6929
15943TIP3    H269321   1.467   1.708  10.790 -0.0699 -2.3746 -1.0211
15944TIP3   OH269322   2.520   0.038  11.345  0.0894  0.3528  0.3397
15944TIP3    H169323   2.557  -0.022  11.410 -0.0733  0.5892  0.6515
15944TIP3    H269324   2.434   0.062  11.380 -0.1504  0.2059 -0.1336
15945TIP3   OH269325   5.143   5.841   4.745 -0.1563 -0.1934 -0.1682
15945TIP3    H169326   5.125   5.862   4.653  1.7120  1.1685 -0.2629
15945TIP3    H269327   5.118   5.920   4.793  1.7203  0.2728  0.1131
15946TIP3   OH269328   5.986   3.372   5.307  0.1039  0.5837  0.2665
15946TIP3    H169329   6.055   3.425   5.347 -0.1988  1.0406  0.2014
15946TIP3    H269330   5.938   3.434   5.252 -0.0749  0.1693 -0.0436
15947TIP3   OH269331   1.530   0.309   0.817 -0.7341  0.0091  0.2892
15947TIP3    H169332   1.518   0.330   0.909  0.2045 -1.1455  0.7041
15947TIP3    H269333   1.462   0.359   0.771 -0.1747  1.8977  1.4257
15948TIP3   OH269334   0.814   0.423  10.879 -0.3783 -0.4157  0.5713
15948TIP3    H169335   0.821   0.447  10.787 -0.8991  0.4482  0.7462
15948TIP3    H269336   0.751   0.351  10.881 -0.6287 -0.2067  0.2827
15949TIP3   OH269337   4.969   3.328   1.582 -0.3147  0.3798  0.4519
15949TIP3    H169338   4.938   3.313   1.672  0.6249 -0.3071  0.6825
15949TIP3    H269339   5.039   3.392   1.592  0.4624 -0.4353  0.3488
15950TIP3   OH269340   1.428   2.097   3.220  0.1338 -0.1922  0.1169
15950TIP3    H169341   1.359   2.037   3.192  0.0610  0.1832 -0.5401
15950TIP3    H269342   1.509   2.053   3.196  0.0951 -0.2840  0.1553
15951TIP3   OH269343   5.723   6.116   5.878 -0.3895  0.6654  0.3908
15951TIP3    H169344   5.709   6.159   5.962  2.8922  2.5302  0.1693
15951TIP3    H269345   5.815   6.088   5.881 -0.3885  0.1657 -2.2756
15952TIP3   OH269346   5.757   3.651   0.598  0.5309 -0.1845 -0.3837
15952TIP3    H169347   5.836   3.602   0.619  0.7976  0.3359 -0.1338
15952TIP3    H269348   5.781   3.742   0.614 -0.6791 -0.1516  1.5649
15953TIP3   OH269349   1.537   6.057   0.941 -0.3994 -0.0078  0.2643
15953TIP3    H169350   1.442   6.072   0.941 -0.4107  0.1152 -1.3604
15953TIP3    H269351   1.547   5.964   0.925 -0.2418 -0.1156  0.9696
15954TIP3   OH269352   2.818   1.105   0.406  0.3315 -0.1286 -0.3714
15954TIP3    H169353   2.802   1.199   0.413  1.2495  0.0168  0.0207
15954TIP3    H269354   2.788   1.081   0.319 -3.4128 -0.2405  0.7747
15955TIP3   OH269355   6.522   4.383   2.105  0.5532 -0.6985  0.5495
15955TIP3    H169356   6.445   4.337   2.070  1.3289 -0.5654 -1.4920
15955TIP3    H269357   6.590   4.315   2.109  0.4565 -0.7435  2.0423
15956TIP3   OH269358   3.983   5.846   4.594 -0.1655 -0.5584  0.4043
15956TIP3    H169359   4.052   5.881   4.650  1.0728 -0.8008 -0.9136
15956TIP3    H269360   4.004   5.880   4.507 -0.6565 -2.1241 -0.3508
15957TIP3   OH269361   6.591   5.923  12.991 -0.3419 -0.2438  0.1495
15957TIP3    H169362   6.499   5.913  13.016 -1.8050  0.5644 -4.0943
15957TIP3    H269363   6.602   6.017  12.978  1.3326 -0.2642  1.0927
15958TIP3   OH269364   4.782   2.204  15.640  0.7570  0.0802  0.0968
15958TIP3    H169365   4.690   2.189  15.660  0.7774 -0.5095 -0.2391
15958TIP3    H269366   4.787   2.198  15.544  1.2497 -0.5043  0.1557
15959TIP3   OH269367   4.470   2.415  12.675 -0.0215 -0.6055 -0.3407
15959TIP3    H169368   4.393   2.451  12.718 -0.0513 -0.6954 -0.3183
15959TIP3    H269369   4.461   2.321  12.686  0.4807 -0.5794  0.3193
15960TIP3   OH269370   1.158   4.928   0.560 -0.1393  0.1591 -0.3929
15960TIP3    H169371   1.241   4.976   0.555  0.0924 -0.0832  0.8455
15960TIP3    H269372   1.183   4.836   0.552 -0.4840  0.1624 -1.7573
15961TIP3   OH269373   4.904   1.618  15.380  0.2263  0.1589  0.3674
15961TIP3    H169374   4.838   1.563  15.420  0.3636  0.2562  0.7322
15961TIP3    H269375   4.886   1.613  15.286  0.1629 -0.4035  0.4075
15962TIP3   OH269376   4.048   6.322  13.410 -0.0787  0.2671 -0.0977
15962TIP3    H169377   4.052   6.417  13.420 -1.1967  0.3265  0.0123
15962TIP3    H269378   3.995   6.293  13.484 -0.8988 -0.2791 -0.8731
15963TIP3   OH269379   2.514   5.870   4.351 -0.1116 -0.0163  0.5343
15963TIP3    H169380   2.528   5.802   4.416 -1.3349  0.0836  0.9397
15963TIP3    H269381   2.502   5.822   4.269  1.8506 -0.1211  0.2687
15964TIP3   OH269382   0.655   3.555   2.523  0.6639 -0.2827  0.2187
15964TIP3    H169383   0.675   3.469   2.486 -0.1552 -0.3332 -0.1222
15964TIP3    H269384   0.618   3.536   2.609  0.5595 -0.2634  0.1776
15965TIP3   OH269385   5.706   4.004   6.493  0.2971  0.3233 -0.1983
15965TIP3    H169386   5.614   4.001   6.521 -0.1530  3.0975 -1.0448
15965TIP3    H269387   5.704   3.979   6.401  0.0877  2.0015 -0.6798
15966TIP3   OH269388   2.082   2.517   3.093 -0.0654  0.1773  0.5111
15966TIP3    H169389   2.056   2.515   3.001  2.9113  3.0960 -0.6130
15966TIP3    H269390   2.079   2.426   3.121 -3.0546 -0.5876 -1.7819
15967TIP3   OH269391   6.427   3.933  12.754 -0.2305 -0.4810 -0.4997
15967TIP3    H169392   6.522   3.924  12.754 -0.2765 -1.0724  0.4864
15967TIP3    H269393   6.399   3.895  12.836 -1.1039  2.3606  0.6470
15968TIP3   OH269394   2.978   1.190  12.572  0.3549 -0.3254 -0.5882
15968TIP3    H169395   3.070   1.211  12.590  0.9786 -1.7950 -1.8043
15968TIP3    H269396   2.979   1.152  12.484 -1.2954 -1.2041 -0.2680
15969TIP3   OH269397   0.676   2.563  15.063  0.2582 -0.6960 -0.2066
15969TIP3    H169398   0.587   2.580  15.032  0.4804  0.3599 -0.3003
15969TIP3    H269399   0.728   2.637  15.031  0.8106 -0.3817  1.3046
15970TIP3   OH269400   6.443   6.137   5.497 -0.3198 -0.5372 -0.0731
15970TIP3    H169401   6.538   6.146   5.492 -0.1443 -2.0192  0.1135
15970TIP3    H269402   6.420   6.171   5.583  0.2486 -1.5057  0.4889
15971TIP3   OH269403   5.078   5.365  16.609  0.4177  0.1209 -0.4312
15971TIP3    H169404   5.139   5.407  16.548 -0.0734 -0.1127 -1.0970
15971TIP3    H269405   5.009   5.329  16.553 -1.2172  1.7767  0.3967
15972TIP3   OH269406   3.431   5.864  10.863 -0.3681  0.3019 -0.3893
15972TIP3    H169407   3.458   5.928  10.930  0.2108  0.2103 -0.5264
15972TIP3    H269408   3.337   5.857  10.874 -0.4645  1.2881 -0.4616
15973TIP3   OH269409   4.343   6.727  16.630 -0.2184  0.6779 -0.0914
15973TIP3    H169410   4.430   6.746  16.593 -0.3424  1.0897 -0.1801
15973TIP3    H269411   4.284   6.730  16.554 -0.2505 -0.0608 -0.1096
15974TIP3   OH269412   1.387   0.922  13.109  0.1849 -0.6277 -0.8218
15974TIP3    H169413   1.359   1.008  13.076 -1.1544 -0.3144  0.9510
15974TIP3    H269414   1.338   0.911  13.191  2.0092 -2.1095  0.1493
15975TIP3   OH269415   6.212   4.667   6.601 -0.0317  0.0441  0.5351
15975TIP3    H169416   6.147   4.596   6.596 -0.4759  0.4858 -0.1780
15975TIP3    H269417   6.275   4.637   6.666  0.4584 -1.5652 -0.6098
15976TIP3   OH269418   6.488   6.369   2.388  0.1210  0.3364  0.1492
15976TIP3    H169419   6.576   6.352   2.423  0.3487  2.5623  0.7755
15976TIP3    H269420   6.462   6.453   2.426 -1.3382  0.8509 -1.7962
15977TIP3   OH269421   5.079   2.150   2.983  0.5368  0.5989 -0.3225
15977TIP3    H169422   5.160   2.121   3.026 -0.1323 -0.2560  0.4180
15977TIP3    H269423   5.041   2.070   2.947 -0.8614  0.6722  0.8897
15978TIP3   OH269424   1.404   0.839   3.817 -0.2202 -0.2139  0.9887
15978TIP3    H169425   1.399   0.911   3.880 -1.6984  0.3772  0.2444
15978TIP3    H269426   1.354   0.768   3.858 -1.3021  0.2188  0.4436
15979TIP3   OH269427   6.810   5.807   0.525 -0.0204  0.3390 -0.2747
15979TIP3    H169428   6.756   5.799   0.447 -1.1210  0.2242  0.4807
15979TIP3    H269429   6.781   5.735   0.582 -0.0020  1.0722  0.6881
15980TIP3   OH269430   2.043   5.325  10.693 -0.0111 -0.3501 -0.0531
15980TIP3    H169431   1.954   5.359  10.701  0.7124  2.9856 -3.3594
15980TIP3    H269432   2.044   5.280  10.609  1.6860  0.9728 -0.8086
15981TIP3   OH269433   6.174   4.646  13.454  0.3363  0.7763 -0.2879
15981TIP3    H169434   6.161   4.684  13.367  1.0899  2.1568  0.1649
15981TIP3    H269435   6.253   4.594  13.447  0.4740  1.0011 -0.4060
15982TIP3   OH269436   0.047   6.318  16.873 -0.0874 -0.5754  0.4865
15982TIP3    H169437   0.041   6.345  16.781  0.0642  0.9385  0.8934
15982TIP3    H269438  -0.013   6.243  16.879 -0.9622 -0.0045 -0.6055
15983TIP3   OH269439   0.218   4.987   3.224  0.4098  0.4535 -0.1120
15983TIP3    H169440   0.178   5.009   3.308  1.0136 -1.6611  0.7881
15983TIP3    H269441   0.212   4.891   3.219  0.9220  0.4882 -2.2152
15984TIP3   OH269442   1.587   1.408   0.712  0.0551  0.4396  0.0921
15984TIP3    H169443   1.557   1.345   0.646 -0.4554 -0.2454  0.9447
15984TIP3    H269444   1.652   1.360   0.764  0.3177  0.9076  0.2080
15985TIP3   OH269445   2.021   6.703   4.933 -0.1216  0.4292 -0.2278
15985TIP3    H169446   2.064   6.788   4.939  1.0246  0.0281 -1.9438
15985TIP3    H269447   1.933   6.722   4.899  0.1593  0.9201 -0.6832
15986TIP3   OH269448   6.243   2.125  14.906 -0.5422  0.4376 -0.3858
15986TIP3    H169449   6.302   2.051  14.894 -1.2573 -0.6714  2.3515
15986TIP3    H269450   6.300   2.195  14.939 -0.2548  0.3549 -0.6992
15987TIP3   OH269451   5.299   3.787   5.584  0.1578  0.3129  0.3837
15987TIP3    H169452   5.220   3.821   5.541  0.9040  0.3480 -1.0087
15987TIP3    H269453   5.338   3.863   5.627  0.3775  0.6679 -0.4354
15988TIP3   OH269454   1.892   6.038  14.608  0.0845 -0.2011 -0.1065
15988TIP3    H169455   1.924   6.089  14.682  2.9441 -0.4910 -1.0269
15988TIP3    H269456   1.854   6.103  14.548  0.6436  0.4326  0.2145
15989TIP3   OH269457   1.709   6.700  14.496 -0.0993 -0.2199  0.1138
15989TIP3    H169458   1.763   6.773  14.466 -0.4837  0.4847  1.0769
15989TIP3    H269459   1.687   6.723  14.587  0.4945 -1.9539  0.7256
15990TIP3   OH269460   5.295   5.488   3.102 -0.3682  0.5552 -0.1192
15990TIP3    H169461   5.315   5.472   3.010 -0.9284 -0.5967 -0.0617
15990TIP3    H269462   5.313   5.581   3.115 -0.3392  0.7428 -1.4037
15991TIP3   OH269463   0.888   3.922  11.828 -0.1743 -0.1685 -0.0522
15991TIP3    H169464   0.863   3.872  11.751 -0.2368  0.6418 -0.5649
15991TIP3    H269465   0.956   3.869  11.870 -1.3472 -1.4590  0.3030
15992TIP3   OH269466   4.434   4.756   4.154 -0.4510  0.2512 -0.1869
15992TIP3    H169467   4.446   4.792   4.067  1.2160  0.1086 -0.0426
15992TIP3    H269468   4.394   4.670   4.139 -0.6950  0.4611 -0.7673
15993TIP3   OH269469   0.200   5.228  16.525 -0.3297 -0.9036 -0.0787
15993TIP3    H169470   0.258   5.218  16.450 -0.6342 -1.8640 -0.1938
15993TIP3    H269471   0.254   5.209  16.601  0.6640  2.4487  0.2236
15994TIP3   OH269472   2.299   1.094  12.522  0.4912  0.0715  0.2203
15994TIP3    H169473   2.348   1.013  12.505  0.4900  0.3672 -1.3805
15994TIP3    H269474   2.211   1.064  12.545  0.1768 -0.4004 -1.4674
15995TIP3   OH269475   4.286   6.597   0.422  0.4022 -0.0789  0.2508
15995TIP3    H169476   4.335   6.678   0.437  1.4119 -0.4422 -0.8786
15995TIP3    H269477   4.353   6.529   0.416 -0.3067 -0.7378 -0.4685
15996TIP3   OH269478   1.884   0.347  15.830 -0.0820 -0.0874  0.6150
15996TIP3    H169479   1.899   0.427  15.880 -1.0478  0.9811 -0.7293
15996TIP3    H269480   1.825   0.296  15.885  1.0946 -0.2119  1.7973
15997TIP3   OH269481   5.498   1.608   2.065 -0.1358 -0.0739  0.4784
15997TIP3    H169482   5.549   1.687   2.086 -0.6129  0.0332  1.2784
15997TIP3    H269483   5.450   1.589   2.146 -1.8240  0.1798 -0.4325
15998TIP3   OH269484   4.409   1.950  12.146 -0.4593  0.0831  0.0056
15998TIP3    H169485   4.415   1.863  12.105  0.3935  1.1564 -2.3130
15998TIP3    H269486   4.318   1.956  12.176 -0.3365 -1.8720  0.9325
15999TIP3   OH269487   6.474   0.771   1.781  0.3754  0.2053  0.1906
15999TIP3    H169488   6.403   0.791   1.720 -0.1327 -2.1035 -0.0812
15999TIP3    H269489   6.535   0.844   1.771 -0.6640  0.9134 -1.5684
16000TIP3   OH269490   3.745   3.596  14.994  0.0592  0.1341  0.3558
16000TIP3    H169491   3.755   3.687  15.021  1.1118 -0.5949  2.6711
16000TIP3    H269492   3.818   3.580  14.935  0.9647  0.3307  1.3889
16001TIP3   OH269493   1.457   5.445  14.436 -0.2298  0.4583 -0.2993
16001TIP3    H169494   1.485   5.481  14.519 -0.2992  0.6287 -0.3501
16001TIP3    H269495   1.432   5.521  14.383  0.2320  0.3875 -0.6303
16002TIP3   OH269496   4.887   1.338   6.006 -0.4689  0.2488  0.3069
16002TIP3    H169497   4.815   1.400   6.014  1.0603  1.9270  1.8918
16002TIP3    H269498   4.923   1.355   5.918 -0.3376  1.3514  0.5527
16003TIP3   OH269499   3.413   2.424  15.345 -0.2784 -0.3585 -0.6361
16003TIP3    H169500   3.356   2.411  15.269 -0.8922 -1.8407  0.0328
16003TIP3    H269501   3.484   2.479  15.312 -1.1310 -0.0038 -1.9696
16004TIP3   OH269502   1.889   3.579  15.476 -0.1077 -0.1868 -0.1406
16004TIP3    H169503   1.904   3.655  15.420 -0.0382  1.4854  2.0057
16004TIP3    H269504   1.823   3.528  15.429  0.2939  0.8504 -1.9467
16005TIP3   OH269505   5.616   3.388   4.894  0.1124 -0.4361  0.6203
16005TIP3    H169506   5.547   3.453   4.905  1.2953  0.7361  1.3423
16005TIP3    H269507   5.697   3.437   4.903  1.0562 -1.8487  0.1713
16006TIP3   OH269508   4.721   0.213  15.526 -0.4221 -0.4510 -0.2133
16006TIP3    H169509   4.673   0.130  15.529 -1.6869  0.2835  0.6716
16006TIP3    H269510   4.769   0.215  15.609 -0.9078 -0.0169  0.0628
16007TIP3   OH269511   5.909   3.638  11.152 -0.5123 -0.3298  0.1179
16007TIP3    H169512   5.907   3.580  11.075 -2.3044  2.2104 -1.9229
16007TIP3    H269513   5.980   3.700  11.133 -0.2802 -0.2937  1.0512
16008TIP3   OH269514   3.954   0.035   0.133  0.2328  0.3224  0.2346
16008TIP3    H169515   3.959   0.067   0.223  2.0981 -1.0476  0.6909
16008TIP3    H269516   4.028  -0.026   0.125  1.7273  2.2898 -2.9929
16009TIP3   OH269517   3.898   0.994   1.177 -0.2919  0.1733  0.1304
16009TIP3    H169518   3.954   1.042   1.239  0.0566 -0.7212  0.5263
16009TIP3    H269519   3.849   0.932   1.232 -0.6053 -0.0494 -0.3905
16010TIP3   OH269520   5.000   5.538  13.981  0.4798 -0.4050 -0.5228
16010TIP3    H169521   5.011   5.540  13.886  2.0698 -0.9306 -0.3822
16010TIP3    H269522   4.969   5.626  14.004 -2.7180 -1.0959 -1.7771
16011TIP3   OH269523   3.953   1.937   0.465  0.0566 -1.0651  0.3817
16011TIP3    H169524   4.031   1.978   0.428 -0.3996 -0.3300  0.2296
16011TIP3    H269525   3.893   2.009   0.481 -0.4455 -1.5856  0.8649
16012TIP3   OH269526   5.317   3.162   3.556  0.1436 -0.1527 -0.3424
16012TIP3    H169527   5.325   3.070   3.531 -0.1887 -0.4004  0.4547
16012TIP3    H269528   5.312   3.209   3.472  3.3521 -0.5388 -0.9021
16013TIP3   OH269529   0.385   2.886  15.230  0.1383  0.1206  0.3208
16013TIP3    H169530   0.469   2.915  15.265  0.8862 -1.3363 -0.2034
16013TIP3    H269531   0.407   2.830  15.156 -1.2922 -0.3681  0.2258
16014TIP3   OH269532   0.697   2.780  11.501 -0.0608  0.1800  0.0560
16014TIP3    H169533   0.606   2.802  11.478 -0.0006  1.1134  0.6467
16014TIP3    H269534   0.690   2.699  11.551 -0.4425 -0.4210 -0.9409
16015TIP3   OH269535   4.051   1.123   3.791  0.0333  0.0440  0.2486
16015TIP3    H169536   4.073   1.148   3.701 -0.3819  0.1898  0.1879
16015TIP3    H269537   3.985   1.186   3.818  2.2747  1.9234  1.7040
16016TIP3   OH269538   5.004   1.674  11.587  0.5708 -0.1686  0.0283
16016TIP3    H169539   5.074   1.702  11.528 -0.7851 -0.6530 -1.9054
16016TIP3    H269540   4.924   1.683  11.535 -0.7071 -0.5407  1.8494
16017TIP3   OH269541   5.479   0.432  14.847 -0.0562  0.2102 -0.6447
16017TIP3    H169542   5.506   0.349  14.806  0.4349  0.3530 -0.6127
16017TIP3    H269543   5.425   0.405  14.922  0.1396 -0.0825 -0.6060
16018TIP3   OH269544   3.720   1.781  10.995  0.0641  0.8198  0.0942
16018TIP3    H169545   3.763   1.713  11.046 -1.5245  1.0620  1.8751
16018TIP3    H269546   3.791   1.833  10.958  1.3054 -1.2651 -0.6210
16019TIP3   OH269547   4.081   5.416  12.182  0.2993 -0.3119  0.3021
16019TIP3    H169548   4.082   5.473  12.259  0.1328 -0.4365  0.3969
16019TIP3    H269549   3.999   5.437  12.137  0.4724 -0.1246  0.0710
16020TIP3   OH269550   2.619   4.612   2.230  0.1761  0.3085 -0.0565
16020TIP3    H169551   2.669   4.622   2.311  0.1673 -0.6027  0.0731
16020TIP3    H269552   2.528   4.617   2.257  0.1387 -1.1053  0.1850
16021TIP3   OH269553   2.948   6.180  11.246 -0.2621 -0.1991 -0.0514
16021TIP3    H169554   3.029   6.165  11.196 -0.6716 -0.9757 -0.5139
16021TIP3    H269555   2.960   6.265  11.287  0.1971  0.3659 -1.3016
16022TIP3   OH269556   1.855   5.490   0.188  0.0604 -0.7698 -0.3596
16022TIP3    H169557   1.906   5.412   0.210 -0.3442 -0.9783 -0.1350
16022TIP3    H269558   1.856   5.543   0.268  2.0759  0.4655 -1.1277
16023TIP3   OH269559   5.283   5.852   0.698  0.3096 -0.2029 -0.3054
16023TIP3    H169560   5.352   5.893   0.646 -0.2484 -0.2371 -1.0901
16023TIP3    H269561   5.234   5.926   0.736  0.2249 -0.1607 -0.4936
16024TIP3   OH269562   3.623   6.644   4.935 -0.4387  0.6731  0.0375
16024TIP3    H169563   3.634   6.725   4.885 -1.2186  0.3408 -0.7065
16024TIP3    H269564   3.633   6.574   4.870  3.4578 -0.0523  1.1672
16025TIP3   OH269565   0.057   4.209  14.300  0.0614 -0.0429 -0.4873
16025TIP3    H169566  -0.018   4.163  14.339  1.4793 -2.3695 -0.2454
16025TIP3    H269567   0.094   4.145  14.239  1.1415  1.4983 -1.4883
16026TIP3   OH269568   1.334   0.422  16.437  0.1312  0.1482  0.4351
16026TIP3    H169569   1.347   0.484  16.508  0.2173  0.6923 -0.0461
16026TIP3    H269570   1.242   0.433  16.412  0.4875  1.0962 -0.5628
16027TIP3   OH269571   0.972   0.066   0.666 -0.1105 -0.3067  0.6335
16027TIP3    H169572   0.995  -0.018   0.625 -0.8149 -0.7982  1.2060
16027TIP3    H269573   0.882   0.053   0.698 -0.8587  1.2189 -0.7130
16028TIP3   OH269574   4.255   3.280   2.684  0.3189 -0.0715  0.0778
16028TIP3    H169575   4.229   3.339   2.613 -0.7612  0.0155  0.5348
16028TIP3    H269576   4.223   3.194   2.657  0.9893 -0.2666 -0.1079
16029TIP3   OH269577   6.071   6.406  14.878  0.1009  0.0852  0.2456
16029TIP3    H169578   6.011   6.437  14.810  0.5693 -0.1559 -0.2764
16029TIP3    H269579   6.013   6.377  14.949 -0.6262 -3.7689 -1.6943
16030TIP3   OH269580   1.931   5.397   2.922 -0.2259 -0.2932  0.1307
16030TIP3    H169581   1.994   5.330   2.897  1.0619  0.5411  0.9604
16030TIP3    H269582   1.927   5.456   2.846 -1.3492 -1.2753 -0.5913
16031TIP3   OH269583   0.588   2.066  16.075  0.4963  0.0819  0.7368
16031TIP3    H169584   0.558   1.975  16.084  3.1404 -0.7380  2.8185
16031TIP3    H269585   0.517   2.119  16.111 -1.7138 -0.9399 -1.7974
16032TIP3   OH269586   4.764   0.766   0.447 -0.5016 -0.4870 -0.0957
16032TIP3    H169587   4.809   0.696   0.495 -0.9907  0.1747  1.3711
16032TIP3    H269588   4.672   0.756   0.471 -0.7063  0.0860 -0.6261
16033TIP3   OH269589   0.042   3.248   4.768  0.5184 -0.2378 -0.7042
16033TIP3    H169590   0.017   3.336   4.739  0.0509  0.4626  1.6044
16033TIP3    H269591   0.135   3.242   4.748  0.5397  0.7727 -0.9598
16034TIP3   OH269592   5.449   1.520  12.233 -0.3314  0.5367  0.5125
16034TIP3    H169593   5.419   1.439  12.191 -0.3203  0.1644  1.1969
16034TIP3    H269594   5.541   1.528  12.208 -0.8053  1.3362 -1.0693
16035TIP3   OH269595   1.592   3.225  10.658  0.0497 -0.3779 -0.2516
16035TIP3    H169596   1.670   3.228  10.603  0.1927 -1.6747 -0.1568
16035TIP3    H269597   1.527   3.179  10.604 -0.4146  0.0415 -0.0526
16036TIP3   OH269598   1.800   3.636   1.155  0.3015  0.0934  0.0296
16036TIP3    H169599   1.891   3.622   1.128  0.4246  0.9414 -0.0219
16036TIP3    H269600   1.776   3.720   1.116 -0.8084 -0.5537 -0.7148
16037TIP3   OH269601   5.416   6.649  16.587  0.1802 -0.7980  0.0869
16037TIP3    H169602   5.499   6.671  16.631 -1.5160  1.3040  2.5851
16037TIP3    H269603   5.393   6.563  16.622  0.6578 -0.7788  0.4680
16038TIP3   OH269604   4.114   1.128  10.654  0.0928 -0.7047  0.0180
16038TIP3    H169605   4.180   1.092  10.713  0.9455 -0.0644 -0.5235
16038TIP3    H269606   4.075   1.051  10.612  2.5464 -1.0690 -1.8289
16039TIP3   OH269607   5.763   5.178   0.197 -0.0266 -0.1905 -0.3487
16039TIP3    H169608   5.672   5.178   0.225 -0.4533  1.8040 -1.4740
16039TIP3    H269609   5.776   5.265   0.157  0.7294 -2.1919 -5.2219
16040TIP3   OH269610   5.915   6.688   5.178  0.0820 -0.2721 -0.4208
16040TIP3    H169611   5.874   6.632   5.111  0.3316 -0.7198 -0.2029
16040TIP3    H269612   5.996   6.719   5.137 -0.4660  0.6119 -0.8519
16041TIP3   OH269613   1.999   6.602  16.027  0.2626  0.1873  0.2798
16041TIP3    H169614   1.915   6.602  15.982 -0.3731 -0.9576  1.3988
16041TIP3    H269615   1.997   6.523  16.082  1.8199  0.4603  0.7811
16042TIP3   OH269616   0.264   2.842   6.006 -0.1196 -0.2894  0.1613
16042TIP3    H169617   0.296   2.880   6.088 -1.9696 -1.2343  1.4163
16042TIP3    H269618   0.201   2.906   5.973 -0.1033 -0.3526  0.0082
16043TIP3   OH269619   0.719   3.659   5.674 -0.0654 -0.5430  0.2516
16043TIP3    H169620   0.679   3.575   5.693  0.3320 -0.5889  0.9230
16043TIP3    H269621   0.647   3.722   5.674 -0.2301 -0.7313  0.7454
16044TIP3   OH269622   5.808   4.559   4.605 -0.2577  0.1480 -0.3468
16044TIP3    H169623   5.801   4.510   4.523  1.6355 -0.7641 -0.0029
16044TIP3    H269624   5.860   4.636   4.583  0.6761 -0.3479  0.0815
16045TIP3   OH269625   0.325   0.601   4.920  0.4412 -0.0528 -0.4399
16045TIP3    H169626   0.384   0.526   4.926  1.8841  1.1328  1.4614
16045TIP3    H269627   0.374   0.666   4.869  0.3477  0.5379  0.2035
16046TIP3   OH269628   2.616   4.240   4.936  0.2836 -0.1837  0.2634
16046TIP3    H169629   2.620   4.282   5.022  1.5816 -2.2792  1.3182
16046TIP3    H269630   2.681   4.169   4.941  1.1348  0.2334 -2.7942
16047TIP3   OH269631   0.627   5.114   2.131  0.2474 -0.2606 -0.3219
16047TIP3    H169632   0.600   5.129   2.221  0.3208 -0.0640 -0.3316
16047TIP3    H269633   0.648   5.021   2.127  3.0945  0.2348  0.6382
16048TIP3   OH269634   5.071   1.868   4.796 -0.2796 -0.2638 -0.2698
16048TIP3    H169635   5.147   1.889   4.742 -0.7880 -0.6700 -1.1670
16048TIP3    H269636   5.049   1.949   4.841  0.5739 -0.0993 -0.1396
16049TIP3   OH269637   0.367   5.234   0.073 -0.3832 -0.0147 -0.4809
16049TIP3    H169638   0.400   5.324   0.079 -1.3618  0.3260  0.0361
16049TIP3    H269639   0.404   5.190   0.150 -1.3557  0.4576  0.2862
16050TIP3   OH269640   3.323   1.549  13.041 -0.2818 -0.4800 -0.2357
16050TIP3    H169641   3.390   1.539  13.109 -0.4378 -0.0825 -0.0170
16050TIP3    H269642   3.365   1.604  12.974 -0.8778  1.0692  0.6094
16051TIP3   OH269643   1.719   0.274   1.961 -0.6440 -0.0660  0.7235
16051TIP3    H169644   1.737   0.363   1.993 -0.8396 -0.2593  1.3812
16051TIP3    H269645   1.732   0.280   1.867 -0.2793  0.5738  0.8058
16052TIP3   OH269646   0.559   5.922  15.171  0.0997 -0.1688 -0.3879
16052TIP3    H169647   0.650   5.896  15.175 -0.2813 -1.4648  0.6024
16052TIP3    H269648   0.514   5.863  15.232 -1.2776  0.9435 -0.2510
16053TIP3   OH269649   5.360   0.227   4.492  0.1343  1.3777 -0.2036
16053TIP3    H169650   5.426   0.224   4.561  0.8488 -0.9650 -0.8699
16053TIP3    H269651   5.279   0.249   4.537  0.9498  1.9693  1.0276
16054TIP3   OH269652   0.937   0.948   4.493 -0.0022 -0.1894 -0.5107
16054TIP3    H169653   0.866   0.889   4.518 -1.1430  1.8459  1.3269
16054TIP3    H269654   1.013   0.914   4.541 -0.5853 -0.3094  0.3515
16055TIP3   OH269655   3.532   5.511   5.625 -0.1365 -0.4567  0.0078
16055TIP3    H169656   3.576   5.477   5.546 -1.0957 -0.5573 -0.4981
16055TIP3    H269657   3.589   5.484   5.697  2.3059  2.0944 -0.8020
16056TIP3   OH269658   6.553   1.892   0.551 -0.1264  0.2004 -0.2479
16056TIP3    H169659   6.517   1.969   0.506  1.0463  2.9447  3.0769
16056TIP3    H269660   6.481   1.860   0.605 -0.5237 -1.0149 -1.4141
16057TIP3   OH269661   1.011   2.542   3.268  0.1161  0.1634 -0.4161
16057TIP3    H169662   1.009   2.629   3.229 -0.2702  0.3385 -0.0139
16057TIP3    H269663   1.001   2.482   3.194  1.3954  0.4150 -0.8155
16058TIP3   OH269664   4.116   0.900  15.864  0.2918  0.0850 -0.4093
16058TIP3    H169665   4.051   0.894  15.933  1.0873  0.7418  0.4252
16058TIP3    H269666   4.190   0.848  15.896  0.7534  0.5751 -0.6651
16059TIP3   OH269667   5.751   0.809   0.403  0.2893  0.5281 -0.2646
16059TIP3    H169668   5.700   0.849   0.332  0.3320 -0.0737 -0.6451
16059TIP3    H269669   5.835   0.787   0.362 -0.4183 -1.7510 -0.6255
16060TIP3   OH269670   1.029   1.088  14.878 -0.4365  0.2073 -0.0429
16060TIP3    H169671   0.946   1.062  14.917  0.5115  0.0889  2.0241
16060TIP3    H269672   1.063   1.009  14.837  0.0877 -0.6076  1.8638
16061TIP3   OH269673   0.644   0.845   2.075  0.2326  0.4022  0.1680
16061TIP3    H169674   0.646   0.887   2.161  0.4891  1.8606 -0.5193
16061TIP3    H269675   0.553   0.851   2.048  0.1762  0.0605  0.2824
16062TIP3   OH269676   2.099   5.577   4.644 -0.0062 -0.1918 -0.1682
16062TIP3    H169677   2.111   5.670   4.626 -0.0891 -0.2239 -0.3974
16062TIP3    H269678   2.113   5.568   4.738 -0.0609  0.0616 -0.1364
16063TIP3   OH269679   5.050   2.746   4.272  0.4653 -0.4219  0.5381
16063TIP3    H169680   5.076   2.834   4.297 -0.0703 -0.2565  0.5251
16063TIP3    H269681   4.966   2.732   4.315 -1.3277  0.4799 -2.3760
16064TIP3   OH269682   1.774   3.338   2.718 -0.4891  0.3393 -0.6301
16064TIP3    H169683   1.836   3.295   2.659 -1.7735 -2.1747 -0.2787
16064TIP3    H269684   1.709   3.379   2.660 -1.1165 -1.1475 -1.0142
16065TIP3   OH269685   2.177   4.615   1.261  0.3349  0.4284 -0.3690
16065TIP3    H169686   2.180   4.597   1.167  0.9668  1.6805 -0.5945
16065TIP3    H269687   2.084   4.609   1.283  0.2930 -1.0367 -0.8213
16066TIP3   OH269688   3.688   1.169  11.844  0.1366 -0.4390  0.2758
16066TIP3    H169689   3.752   1.125  11.899  1.0736  1.7446  1.0275
16066TIP3    H269690   3.733   1.181  11.760 -0.1684 -0.9808  0.0259
16067TIP3   OH269691   4.297   6.568  16.103  0.1751 -0.1220 -0.0547
16067TIP3    H169692   4.361   6.627  16.063  0.5794  0.1415  0.9365
16067TIP3    H269693   4.328   6.558  16.193 -0.8682 -0.4529  0.2774
16068TIP3   OH269694   6.396   5.375   6.377  0.1368 -0.4680 -0.2651
16068TIP3    H169695   6.467   5.365   6.440 -0.8855  0.4584  1.0634
16068TIP3    H269696   6.423   5.449   6.322 -1.7604  3.1849  3.1909
16069TIP3   OH269697   3.913   4.942  11.729 -0.0340 -0.1367  0.4105
16069TIP3    H169698   3.895   4.946  11.636  1.2031 -1.3224  0.0732
16069TIP3    H269699   3.898   5.031  11.761 -2.5320 -0.1792 -0.4741
16070TIP3   OH269700   0.893   0.853   3.850  0.2388 -0.2248 -0.2389
16070TIP3    H169701   0.851   0.785   3.903 -0.9658  0.9505  0.3742
16070TIP3    H269702   0.824   0.916   3.833  1.3203  0.8499 -0.8005
16071TIP3   OH269703   5.996   2.683  13.145  0.7429 -0.5987 -0.3296
16071TIP3    H169704   5.915   2.716  13.183  0.6843 -1.7755  0.6435
16071TIP3    H269705   6.062   2.699  13.212  0.6507 -2.6749  0.3019
16072TIP3   OH269706   2.989   0.639  15.219  0.1493  0.1846 -0.3827
16072TIP3    H169707   3.078   0.644  15.183 -0.0169  1.9780 -0.6432
16072TIP3    H269708   2.998   0.671  15.309 -0.3056  0.8724 -0.5751
16073TIP3   OH269709   6.382   4.354   5.700  0.1109 -0.0958  0.7715
16073TIP3    H169710   6.399   4.261   5.692 -1.1889 -0.3199  0.3379
16073TIP3    H269711   6.322   4.374   5.628  1.0221  1.2476  0.3613
16074TIP3   OH269712   2.811   0.510   3.421  0.5607  0.3512  0.0457
16074TIP3    H169713   2.898   0.471   3.410 -0.4720 -1.7752 -1.1766
16074TIP3    H269714   2.821   0.600   3.389  2.2770  0.1518 -0.1065
16075TIP3   OH269715   4.603   4.848  16.867  0.6203 -0.2916  0.1125
16075TIP3    H169716   4.687   4.880  16.834  0.1246 -0.0121 -0.9352
16075TIP3    H269717   4.549   4.840  16.789 -0.3733 -0.3354  0.7918
16076TIP3   OH269718   4.372   2.498   2.138 -0.3114  0.3297 -0.0652
16076TIP3    H169719   4.296   2.469   2.188 -0.7393  2.2295  0.4764
16076TIP3    H269720   4.445   2.496   2.200 -0.1940 -0.2169 -0.2173
16077TIP3   OH269721   5.253   5.109   3.367 -0.1605  0.4733  0.1046
16077TIP3    H169722   5.199   5.188   3.356 -0.6572  0.3111  1.2268
16077TIP3    H269723   5.213   5.063   3.440  1.2182  0.0946  0.6465
16078TIP3   OH269724   1.921   5.435  14.173 -0.2240  0.1532  0.5245
16078TIP3    H169725   1.841   5.485  14.186  0.1650  0.7120  0.7760
16078TIP3    H269726   1.908   5.355  14.225 -1.0834 -0.2934 -0.3380
16079TIP3   OH269727   0.328   4.945   3.776 -0.3940 -0.4452 -0.4507
16079TIP3    H169728   0.234   4.961   3.769 -0.3184 -0.2483 -1.0506
16079TIP3    H269729   0.359   4.944   3.686  0.4620  1.1963 -0.2177
16080TIP3   OH269730   6.596   4.794   4.450  0.5029 -0.5180 -0.4828
16080TIP3    H169731   6.614   4.818   4.540  0.6929 -2.4270  0.0249
16080TIP3    H269732   6.644   4.713   4.436 -2.5382 -2.3999 -1.0466
16081TIP3   OH269733   2.121   3.188  14.070 -0.1118 -0.3271 -0.1424
16081TIP3    H169734   2.118   3.174  13.975  1.6449  0.5235 -0.3699
16081TIP3    H269735   2.194   3.133  14.099 -0.1868 -0.0305  0.6090
16082TIP3   OH269736   6.191   3.713  15.414  0.2635  0.2405  0.1720
16082TIP3    H169737   6.285   3.729  15.403  0.3425 -0.0864  0.3379
16082TIP3    H269738   6.164   3.671  15.333  0.2430  0.4098  0.0915
16083TIP3   OH269739   3.628   3.047   2.127 -0.1010  0.5333 -0.3536
16083TIP3    H169740   3.574   3.117   2.090  0.4027  0.2253 -1.7190
16083TIP3    H269741   3.618   3.057   2.222 -1.4273  1.3528 -0.5533
16084TIP3   OH269742   6.041   0.299   1.808  0.3851  0.5501  0.3471
16084TIP3    H169743   6.014   0.231   1.746 -1.3241  0.1001  1.5238
16084TIP3    H269744   6.134   0.283   1.822  0.2845 -0.7590 -0.3720
16085TIP3   OH269745   3.742   2.582  14.426  0.5718  0.2745  0.0980
16085TIP3    H169746   3.809   2.629  14.377  0.6455  0.4484  0.3605
16085TIP3    H269747   3.743   2.623  14.513 -1.1721  1.5504 -0.4352
16086TIP3   OH269748   2.698   6.723  15.957  0.1056  0.0313 -0.0716
16086TIP3    H169749   2.772   6.777  15.983  0.9457 -0.3779 -1.5359
16086TIP3    H269750   2.621   6.775  15.981  0.8621  0.8909  0.5678
16087TIP3   OH269751   6.384   1.127  11.925  0.5815 -0.6498 -0.5345
16087TIP3    H169752   6.417   1.070  11.994  1.4203  0.2892 -0.1318
16087TIP3    H269753   6.295   1.149  11.953  1.2197  0.4432  0.7533
16088TIP3   OH269754   5.165   6.285   5.437 -0.1219 -0.0074 -0.3097
16088TIP3    H169755   5.243   6.233   5.459  0.5128  0.2029 -1.9165
16088TIP3    H269756   5.183   6.319   5.349 -0.8825  2.2666  0.3462
16089TIP3   OH269757   6.337   0.497   2.136 -0.3207  0.0216 -0.0049
16089TIP3    H169758   6.283   0.433   2.183  0.2092 -1.3968 -1.2637
16089TIP3    H269759   6.373   0.553   2.205 -1.4629 -0.5077  1.0547
16090TIP3   OH269760   4.783   4.483   3.152 -0.0925 -0.0180 -0.0056
16090TIP3    H169761   4.713   4.505   3.213 -0.5826  1.2661 -0.9922
16090TIP3    H269762   4.862   4.480   3.206 -0.4759  1.3478  0.6647
16091TIP3   OH269763   1.051   4.761  15.285  0.2002 -0.1057 -0.3354
16091TIP3    H169764   0.987   4.833  15.288  0.7219  0.3406  0.6263
16091TIP3    H269765   1.052   4.733  15.194  0.3934  1.4772 -0.8378
16092TIP3   OH269766   4.623   6.041  16.786 -0.8036 -0.0868  0.1533
16092TIP3    H169767   4.599   6.125  16.825  0.9949  0.8239 -0.5705
16092TIP3    H269768   4.708   6.020  16.823 -0.3336 -0.5944 -1.1311
16093TIP3   OH269769   5.466   1.275   3.609 -0.0522  0.2041  0.2215
16093TIP3    H169770   5.419   1.353   3.638  0.3402  0.3210  0.5627
16093TIP3    H269771   5.505   1.240   3.689 -0.8231 -0.7575  0.2008
16094TIP3   OH269772   0.087   4.831  14.789 -0.2344 -0.4924  0.0413
16094TIP3    H169773   0.154   4.887  14.828 -1.8132  1.8775 -0.4890
16094TIP3    H269774   0.008   4.848  14.840 -1.1775 -0.9139 -1.2234
16095TIP3   OH269775   5.187   4.912  13.921 -0.5274  0.5961 -0.4226
16095TIP3    H169776   5.149   4.826  13.939  0.1172  0.1965 -0.8913
16095TIP3    H269777   5.145   4.941  13.840 -0.1449  0.3387 -0.7180
16096TIP3   OH269778   4.776   6.634   4.091 -0.5870  0.2740  0.8225
16096TIP3    H169779   4.694   6.680   4.106  0.2772  1.2021  3.1688
16096TIP3    H269780   4.815   6.679   4.016 -1.9110  0.2235  0.0849
16097TIP3   OH269781   0.201   0.324  12.602 -0.3573 -0.0771 -0.2320
16097TIP3    H169782   0.286   0.348  12.640  0.1170 -2.0054  0.0224
16097TIP3    H269783   0.139   0.386  12.640  0.4362 -0.6444  2.1532
16098TIP3   OH269784   4.891   5.110   0.772 -0.1391 -0.1866  0.2273
16098TIP3    H169785   4.894   5.205   0.764 -1.7163 -0.0116  1.3102
16098TIP3    H269786   4.964   5.079   0.717  0.0122  1.5953 -0.6497
16099TIP3   OH269787   3.798   6.231  13.979  0.0889 -0.1854  0.1430
16099TIP3    H169788   3.783   6.215  14.073 -0.7335 -2.6992 -0.3615
16099TIP3    H269789   3.852   6.310  13.978  0.4406 -0.2769  2.7485
16100TIP3   OH269790   2.964   4.564  13.034 -0.9029 -0.0133  0.4452
16100TIP3    H169791   2.892   4.528  12.981 -0.3801  0.3871 -0.5794
16100TIP3    H269792   3.023   4.490  13.049 -0.3840  0.1369 -0.7130
16101TIP3   OH269793   3.180   0.035   4.940  0.0706 -0.3402 -0.7685
16101TIP3    H169794   3.114   0.104   4.937 -0.2207 -0.6260 -1.1052
16101TIP3    H269795   3.262   0.079   4.919  0.3039  0.3644  1.3594
16102TIP3   OH269796   3.748   2.671   3.663  0.3237  0.2371 -0.0337
16102TIP3    H169797   3.688   2.658   3.590 -1.0731  0.2047  1.0687
16102TIP3    H269798   3.828   2.703   3.623 -0.8694  1.5967 -1.4598
16103TIP3   OH269799   0.112   5.302   5.653  0.3679  0.0008  0.2011
16103TIP3    H169800   0.093   5.217   5.693 -1.3459  0.5217  0.5923
16103TIP3    H269801   0.049   5.308   5.580  2.0942 -0.0700 -1.3665
16104TIP3   OH269802   4.306   4.627  16.692 -0.1430  0.1170 -0.1774
16104TIP3    H169803   4.380   4.646  16.635 -0.3332 -1.9597 -1.1929
16104TIP3    H269804   4.274   4.713  16.718  0.7424  1.1307 -2.1771
16105TIP3   OH269805   3.407   0.315  17.088 -0.0883 -0.5839  0.1151
16105TIP3    H169806   3.473   0.384  17.078 -0.4132 -0.4198 -0.9673
16105TIP3    H269807   3.382   0.292  16.999 -1.7567 -0.4038  0.5035
16106TIP3   OH269808   5.069   3.098   2.258 -0.2066 -0.2894 -0.4791
16106TIP3    H169809   5.140   3.142   2.211 -1.2060  0.9489 -0.9062
16106TIP3    H269810   5.090   3.111   2.350  1.2688 -1.9018 -0.5495
16107TIP3   OH269811   2.091   2.990  10.908 -0.1817 -0.0670  0.0573
16107TIP3    H169812   2.186   2.997  10.900 -0.2911 -0.6017 -2.8148
16107TIP3    H269813   2.056   3.052  10.843 -1.7765 -0.4903  0.4574
16108TIP3   OH269814   0.836   3.488  12.322 -0.3362 -0.8910 -0.1667
16108TIP3    H169815   0.842   3.567  12.268 -0.0523 -1.4439 -0.9503
16108TIP3    H269816   0.916   3.440  12.304  0.6136 -0.2884  2.0523
16109TIP3   OH269817   1.087   2.715  17.122  0.7403  0.3436  0.1065
16109TIP3    H169818   1.146   2.742  17.052  1.4388  0.3157  0.6754
16109TIP3    H269819   1.135   2.734  17.202 -0.2564  0.8549  0.5956
16110TIP3   OH269820   3.789   6.054  11.978 -0.5252  0.3507 -0.2522
16110TIP3    H169821   3.841   5.992  11.927  0.3251  1.8907 -1.3422
16110TIP3    H269822   3.698   6.035  11.953 -0.2961 -0.5863 -0.3899
16111TIP3   OH269823   0.434   1.612   5.854 -0.6240 -0.1997  0.8113
16111TIP3    H169824   0.435   1.522   5.821  0.8583 -0.0751  0.4607
16111TIP3    H269825   0.355   1.616   5.908 -0.3217 -1.9285  1.4488
16112TIP3   OH269826   3.388   4.408   5.886 -0.2574 -0.3921 -0.0694
16112TIP3    H169827   3.374   4.502   5.876 -2.2531 -0.5200  0.9782
16112TIP3    H269828   3.445   4.401   5.963 -0.5193 -0.0458  0.1624
16113TIP3   OH269829   2.084   2.161  13.765 -0.4448  0.1839  0.4859
16113TIP3    H169830   2.149   2.094  13.785 -1.1304  0.0607  2.5061
16113TIP3    H269831   2.073   2.156  13.670  0.7938 -1.3664  0.3889
16114TIP3   OH269832   6.047   5.489   5.975  0.5377  0.8400 -0.1144
16114TIP3    H169833   6.058   5.420   5.909 -0.4043  1.5662 -1.0659
16114TIP3    H269834   6.106   5.464   6.045 -0.9804 -1.9102  0.3523
16115TIP3   OH269835   1.712   3.791   1.982 -0.1097 -0.2700 -0.2063
16115TIP3    H169836   1.660   3.865   1.951  0.6547  0.1658 -0.4805
16115TIP3    H269837   1.686   3.779   2.073 -0.9204 -0.2711 -0.4343
16116TIP3   OH269838   6.530   6.352   5.146  0.1246 -0.2629  0.1333
16116TIP3    H169839   6.556   6.388   5.061 -0.0190 -1.2996 -0.3723
16116TIP3    H269840   6.448   6.306   5.128  0.4791 -1.1275  0.6585
16117TIP3   OH269841   4.679   1.961   6.115 -0.3066 -0.2535  0.3574
16117TIP3    H169842   4.729   1.980   6.195  2.6713 -1.7605 -1.0175
16117TIP3    H269843   4.647   1.872   6.128  1.1295 -0.9290 -0.5029
16118TIP3   OH269844   2.547   2.117  11.275  0.0269 -0.2608 -0.6341
16118TIP3    H169845   2.629   2.099  11.321  0.2287  0.0556 -0.8695
16118TIP3    H269846   2.495   2.166  11.339 -0.3481 -1.2502 -0.1521
16119TIP3   OH269847   0.012   3.630  11.961  0.9673 -0.8664  0.1938
16119TIP3    H169848   0.024   3.725  11.970  2.3158 -0.9628 -0.4403
16119TIP3    H269849   0.100   3.594  11.964  0.5947 -1.9755 -1.1240
16120TIP3   OH269850   6.795   2.975  11.361 -0.1344  0.1583 -0.1002
16120TIP3    H169851   6.828   2.993  11.273 -1.7565  1.1825 -0.5499
16120TIP3    H269852   6.852   3.026  11.418 -0.5328  1.4443 -0.7985
16121TIP3   OH269853   3.842   0.041  14.189 -0.0765 -0.0900 -0.1318
16121TIP3    H169854   3.864   0.134  14.193  0.3594 -0.1855 -0.2509
16121TIP3    H269855   3.927  -0.004  14.192 -0.3469 -0.5626  1.9559
16122TIP3   OH269856   6.446   3.309  16.276  0.3841  0.2542 -0.1279
16122TIP3    H169857   6.432   3.337  16.366  0.2419 -0.8791  0.2149
16122TIP3    H269858   6.358   3.291  16.243  0.4654  0.3101 -0.3773
16123TIP3   OH269859   2.430   1.523  14.867  0.2406  0.3265 -0.1441
16123TIP3    H169860   2.436   1.517  14.963 -0.8587  0.6208 -0.0455
16123TIP3    H269861   2.477   1.447  14.836 -0.1945 -0.2925  0.6663
16124TIP3   OH269862   4.151   4.441  17.163  0.1434 -0.2626  0.1884
16124TIP3    H169863   4.217   4.450  17.094 -0.5682  1.6079 -0.2918
16124TIP3    H269864   4.117   4.529  17.176  0.9893 -0.3095  3.7411
16125TIP3   OH269865   5.852   0.305  14.966  0.1098  0.1391 -0.3036
16125TIP3    H169866   5.827   0.349  14.885 -2.3125 -0.6895 -0.0963
16125TIP3    H269867   5.839   0.371  15.034  0.1866  0.2374 -0.3844
16126TIP3   OH269868   0.827   3.172   1.008 -0.6992  0.0029  0.1161
16126TIP3    H169869   0.805   3.079   1.001 -0.3807 -0.1609  1.0874
16126TIP3    H269870   0.742   3.217   1.002 -1.0357 -0.4556  1.0995
16127TIP3   OH269871   6.722   4.269   2.924 -0.3583  0.2344  0.1017
16127TIP3    H169872   6.672   4.218   2.987 -0.9768 -1.7741 -1.9117
16127TIP3    H269873   6.661   4.335   2.891 -0.1146  1.1039  1.3104
16128TIP3   OH269874   0.471   3.542  14.915  0.2766 -0.7363  0.0551
16128TIP3    H169875   0.533   3.585  14.974 -1.2468 -1.7558  2.5324
16128TIP3    H269876   0.392   3.530  14.968 -0.6051 -3.2576 -1.6732
16129TIP3   OH269877   5.261   4.913  14.827  0.3897  0.1051  0.1879
16129TIP3    H169878   5.346   4.952  14.848  0.3395 -0.5460  1.6941
16129TIP3    H269879   5.210   4.920  14.908 -1.1733  0.8698 -0.7958
16130TIP3   OH269880   2.570   3.678   1.093  0.4040 -0.1631 -0.1312
16130TIP3    H169881   2.630   3.668   1.167 -2.3759  1.4344  2.6016
16130TIP3    H269882   2.603   3.754   1.045  1.2724 -0.0703  0.5812
16131TIP3   OH269883   3.710   3.199  12.689 -0.1321  0.5670 -0.4148
16131TIP3    H169884   3.643   3.261  12.718  1.0713  2.6242 -1.7610
16131TIP3    H269885   3.711   3.208  12.593  0.7742 -0.8176 -0.5598
16132TIP3   OH269886   3.220   1.371  11.179 -0.3027  0.3247 -0.0716
16132TIP3    H169887   3.313   1.389  11.168 -0.2112 -0.4866 -0.7290
16132TIP3    H269888   3.192   1.334  11.095 -1.2548  0.6855  0.0640
16133TIP3   OH269889   2.116   6.674  11.884 -0.3083 -0.2074  0.7228
16133TIP3    H169890   2.160   6.740  11.937  0.9405 -0.1532 -0.3221
16133TIP3    H269891   2.028   6.709  11.870  0.3540  1.3034  0.1040
16134TIP3   OH269892   2.851   4.974  14.960 -0.3349 -0.0306 -0.0630
16134TIP3    H169893   2.907   4.942  14.889 -1.9064  0.8393 -1.8042
16134TIP3    H269894   2.799   4.898  14.986 -1.5209  0.1730 -1.6669
16135TIP3   OH269895   5.965   5.046   0.025 -1.0023 -0.3442 -0.4098
16135TIP3    H169896   5.947   5.127   0.073  3.5252  1.1534 -0.7432
16135TIP3    H269897   5.945   5.068  -0.066 -1.8762 -0.4189 -0.2486
16136TIP3   OH269898   2.391   5.979   5.253  0.0789  0.0824 -0.4867
16136TIP3    H169899   2.346   6.061   5.234 -0.3897 -0.1143 -0.2486
16136TIP3    H269900   2.434   5.993   5.337  1.7558  0.7900 -1.4044
16137TIP3   OH269901   6.659   3.319   4.339  0.3985  0.3585 -0.3404
16137TIP3    H169902   6.603   3.357   4.407  1.1043  0.0504  0.4193
16137TIP3    H269903   6.729   3.383   4.328 -0.0319  0.6955 -1.2212
16138TIP3   OH269904   5.359   6.185   6.122 -0.6592  0.1759 -0.0429
16138TIP3    H169905   5.309   6.132   6.184 -0.6387  0.3814  0.1463
16138TIP3    H269906   5.296   6.210   6.055 -0.3902 -1.2641 -0.9029
16139TIP3   OH269907   1.144   4.550   3.372 -0.2753  0.4018 -0.2704
16139TIP3    H169908   1.168   4.524   3.283  0.7320 -0.4905  0.2379
16139TIP3    H269909   1.213   4.611   3.398  0.5688 -0.8523  0.5782
16140TIP3   OH269910   5.483   1.086   5.969 -0.2137 -0.6238 -1.1334
16140TIP3    H169911   5.477   1.178   5.945 -2.3685 -0.8951 -1.8807
16140TIP3    H269912   5.564   1.079   6.019 -1.1412  2.1467  1.0134
16141TIP3   OH269913   6.315   2.170   1.843  0.3378 -0.4545  0.0201
16141TIP3    H169914   6.303   2.109   1.770 -3.1704  0.1111 -0.0537
16141TIP3    H269915   6.293   2.120   1.921  0.0360 -0.0090  0.2277
16142TIP3   OH269916   6.325   5.347  12.877  0.4309 -0.8978  0.4260
16142TIP3    H169917   6.271   5.312  12.948 -1.1562  1.2829  0.3896
16142TIP3    H269918   6.274   5.330  12.798 -0.4941  1.5295  0.4286
16143TIP3   OH269919   6.809   2.100   3.716 -0.2055  0.0568  0.3013
16143TIP3    H169920   6.754   2.115   3.793  0.0028 -1.1668  0.7155
16143TIP3    H269921   6.852   2.184   3.700 -1.1171  0.6401  0.8297
16144TIP3   OH269922   3.812   6.447  10.293  0.6267 -0.5122  0.2805
16144TIP3    H169923   3.722   6.418  10.304  0.2749  0.0809 -0.9393
16144TIP3    H269924   3.809   6.542  10.301  0.8656 -0.3381 -1.3363
16145TIP3   OH269925   0.959   2.861  15.135 -0.2025  0.2108 -0.8610
16145TIP3    H169926   0.972   2.824  15.222 -1.6790  2.7582  0.5784
16145TIP3    H269927   0.932   2.787  15.081 -1.0906 -1.1590  1.3283
16146TIP3   OH269928   4.964   5.169  14.328  0.3192  0.2161 -0.1723
16146TIP3    H169929   4.917   5.252  14.326  0.2099  0.1614  0.0763
16146TIP3    H269930   4.955   5.134  14.239  0.3948  0.4836 -0.2877
16147TIP3   OH269931   6.019   4.308   3.804  0.8764  0.0085  0.0267
16147TIP3    H169932   5.954   4.375   3.825 -1.4041 -1.4828 -1.7643
16147TIP3    H269933   6.040   4.267   3.888 -1.9170 -0.6214  0.5126
16148TIP3   OH269934   0.545   5.176  11.954  0.5311  0.1145  0.1878
16148TIP3    H169935   0.519   5.238  11.885  0.8678 -0.7099 -0.6991
16148TIP3    H269936   0.471   5.116  11.961  0.5654  0.1017  0.4320
16149TIP3   OH269937   1.504   0.207  14.498  1.1778 -0.4335  0.1879
16149TIP3    H169938   1.499   0.298  14.470  2.0730 -0.2068  0.7489
16149TIP3    H269939   1.413   0.175  14.493  0.5576  0.9678  1.5790
16150TIP3   OH269940   3.285   4.424   5.380 -0.1233  0.3277  0.6311
16150TIP3    H169941   3.358   4.484   5.362 -0.9528  1.2093  0.0776
16150TIP3    H269942   3.327   4.339   5.391  0.9125  0.6259 -0.6612
16151TIP3   OH269943   5.815   6.309   3.006 -0.4232 -0.2414  0.3611
16151TIP3    H169944   5.746   6.244   2.995 -1.6375  1.0127  0.3472
16151TIP3    H269945   5.769   6.392   3.019  1.0779  0.5792  0.7164
16152TIP3   OH269946   5.425   4.846   1.914  0.0531  0.0549  0.1979
16152TIP3    H169947   5.493   4.789   1.880 -0.3652  0.3303 -1.1656
16152TIP3    H269948   5.360   4.787   1.952  0.7938 -0.2301  1.0534
16153TIP3   OH269949   2.420   3.754   0.308  0.3394 -0.5701 -0.1532
16153TIP3    H169950   2.377   3.673   0.335  0.5004 -0.8274 -0.6496
16153TIP3    H269951   2.421   3.749   0.212  1.2980 -0.4759 -0.1553
16154TIP3   OH269952   4.741   1.429  11.657 -0.9041  0.0660 -0.3644
16154TIP3    H169953   4.698   1.460  11.736 -0.5944 -2.3620  0.8336
16154TIP3    H269954   4.709   1.488  11.588 -2.3536  1.3042  1.2728
16155TIP3   OH269955   2.806   5.837   4.730 -0.5133  0.4279 -0.9660
16155TIP3    H169956   2.837   5.763   4.781 -2.3855  0.0419 -0.3203
16155TIP3    H269957   2.825   5.913   4.785 -1.2224  0.1481 -0.3223
16156TIP3   OH269958   0.157   1.649  16.751  0.7350  0.0478 -0.0873
16156TIP3    H169959   0.140   1.578  16.813 -0.0899 -0.7807 -1.2186
16156TIP3    H269960   0.251   1.645  16.734  0.9146  0.0793  0.8356
16157TIP3   OH269961   4.907   0.230   0.278  0.3376  0.1287  0.3099
16157TIP3    H169962   4.877   0.156   0.331  0.4033  1.1295  1.8054
16157TIP3    H269963   4.975   0.193   0.221 -0.6734 -1.2492 -0.0544
16158TIP3   OH269964   4.861   0.726  13.292 -0.0694  0.2000  0.1267
16158TIP3    H169965   4.796   0.664  13.327  1.2304 -0.0271  2.3238
16158TIP3    H269966   4.908   0.677  13.225 -0.4278 -0.5147  0.3859
16159TIP3   OH269967   2.925   4.143   6.555 -0.2132 -0.1089 -0.3949
16159TIP3    H169968   3.001   4.156   6.611  0.2828 -0.6470 -0.9251
16159TIP3    H269969   2.884   4.063   6.588 -0.3633 -0.0005 -0.3172
16160TIP3   OH269970   4.254   1.954  11.562 -0.3469  0.1219 -0.1277
16160TIP3    H169971   4.326   1.922  11.617  0.5187  0.7490 -0.8614
16160TIP3    H269972   4.178   1.956  11.621  0.5616  0.8272  1.0614
16161TIP3   OH269973   1.070   6.466   3.562  0.1469  0.7487 -0.4517
16161TIP3    H169974   1.082   6.383   3.515 -0.7399 -0.5854  1.5553
16161TIP3    H269975   1.159   6.497   3.578  0.5666 -0.7288  0.2600
16162TIP3   OH269976   4.455   2.195   1.903  0.0872  0.0953  0.1505
16162TIP3    H169977   4.509   2.197   1.824 -0.9894  0.2950 -0.6110
16162TIP3    H269978   4.508   2.237   1.970  1.0536 -0.1507 -0.4467
16163TIP3   OH269979   0.318   3.985  11.485  0.4667  0.2002  0.0001
16163TIP3    H169980   0.347   3.994  11.576 -1.6997  2.2071  0.5868
16163TIP3    H269981   0.339   4.070  11.446 -1.4167  0.4968 -0.4524
16164TIP3   OH269982   3.132   0.397  17.084  0.0853  0.3006 -0.1938
16164TIP3    H169983   3.104   0.326  17.141 -2.4669  1.4859  0.1950
16164TIP3    H269984   3.227   0.404  17.098  0.0283 -1.4857  1.4640
16165TIP3   OH269985   2.575   6.137  17.113 -0.4358  0.0854 -0.2451
16165TIP3    H169986   2.652   6.082  17.127  0.1998  1.3112  1.4443
16165TIP3    H269987   2.553   6.170  17.200 -2.6520  0.0947 -0.7431
16166TIP3   OH269988   1.779   1.104  17.145 -0.1378 -0.0754 -0.8276
16166TIP3    H169989   1.825   1.055  17.213 -1.8636 -0.2829  0.2573
16166TIP3    H269990   1.778   1.046  17.069 -1.0023 -1.2380  0.0235
16167TIP3   OH269991   3.270   3.882  13.829 -0.2200  0.3800  0.0574
16167TIP3    H169992   3.297   3.968  13.797  0.3654 -0.2181 -1.1170
16167TIP3    H269993   3.352   3.840  13.855 -0.0581 -1.0114 -2.4358
16168TIP3   OH269994   6.065   5.278   0.632 -0.3267 -0.1396 -0.0102
16168TIP3    H169995   6.000   5.274   0.562 -0.8157  1.3320  0.3249
16168TIP3    H269996   6.073   5.187   0.662  0.0565 -0.8480 -2.0811
16169TIP3   OH269997   1.550   1.403   4.786  0.1664  0.0687  0.2796
16169TIP3    H169998   1.623   1.432   4.731  0.0326  0.6665  0.4159
16169TIP3    H269999   1.534   1.312   4.758  0.3098  0.2612 -0.4427
16170TIP3   OH270000   4.736   1.637  11.480  0.5254 -0.0527 -0.9448
16170TIP3    H170001   4.675   1.709  11.463  1.0179  0.6710  0.1857
16170TIP3    H270002   4.778   1.621  11.396  0.1101  0.6981 -1.3088
16171TIP3   OH270003   4.201   0.761   4.795 -0.1664  0.0435  0.1994
16171TIP3    H170004   4.122   0.814   4.787 -0.7466 -0.9105 -0.6606
16171TIP3    H270005   4.195   0.722   4.882 -0.2030  0.6385  0.4689
16172TIP3   OH270006   1.231   3.722  15.281  0.3437 -0.2955  0.0562
16172TIP3    H170007   1.270   3.658  15.340  1.0744  0.4328  0.3935
16172TIP3    H270008   1.275   3.707  15.197  2.7159  1.6284  0.8415
16173TIP3   OH270009   3.165   3.039   4.379  0.2556 -0.1586 -0.1534
16173TIP3    H170010   3.244   3.082   4.345  0.2679  0.1114  0.2153
16173TIP3    H270011   3.112   3.022   4.302  0.9716 -0.9532 -0.4921
16174TIP3   OH270012   6.780   6.441  12.063  0.1986 -0.3151  0.4061
16174TIP3    H170013   6.834   6.488  12.000 -0.2598 -0.2287  0.0692
16174TIP3    H270014   6.694   6.483  12.056 -0.5827 -1.9955 -0.8480
16175TIP3   OH270015   0.308   2.607   0.119  0.0648 -0.2263  0.4073
16175TIP3    H170016   0.232   2.629   0.173 -0.1635 -0.4491  0.1784
16175TIP3    H270017   0.274   2.601   0.030  0.6898  1.4801  0.0130
16176TIP3   OH270018   0.753   4.025   5.669  0.0090 -0.2675 -0.5662
16176TIP3    H170019   0.717   4.028   5.580  0.5643  0.9090 -0.7636
16176TIP3    H270020   0.762   4.117   5.694 -0.5383 -0.5840  0.8832
16177TIP3   OH270021   5.485   3.944  13.777 -0.3217  0.7351  0.3864
16177TIP3    H170022   5.435   4.009  13.826  2.0441  2.3264  0.8376
16177TIP3    H270023   5.560   3.992  13.742  0.4698 -1.3444 -0.9835
16178TIP3   OH270024   1.293   2.687  11.307  0.2271  0.1774  0.3396
16178TIP3    H170025   1.249   2.618  11.357  1.0581 -0.6562 -0.0441
16178TIP3    H270026   1.255   2.680  11.219 -1.2629  1.6668  0.8093
16179TIP3   OH270027   3.308   6.156  16.920  0.3432  0.4218  0.0994
16179TIP3    H170028   3.362   6.185  16.994  0.1548  0.9957  0.0190
16179TIP3    H270029   3.219   6.155  16.954  0.2489  0.7387 -0.1343
16180TIP3   OH270030   3.966   6.460  13.148 -0.0691  0.8141 -0.0208
16180TIP3    H170031   4.004   6.403  13.081  0.0393  1.1078 -0.2101
16180TIP3    H270032   4.041   6.495  13.196 -0.1859 -0.4823  1.1692
16181TIP3   OH270033   5.921   3.129  12.154  0.0089 -0.3674 -0.3005
16181TIP3    H170034   6.010   3.158  12.174 -0.0479  1.2683 -2.1784
16181TIP3    H270035   5.893   3.083  12.234  2.0347  0.2023  0.8228
16182TIP3   OH270036   1.315   1.175  12.285 -0.1840 -0.4969  0.1657
16182TIP3    H170037   1.344   1.122  12.359  0.7323 -3.1277 -1.8737
16182TIP3    H270038   1.393   1.181  12.228 -0.8890  1.2593 -0.6943
16183TIP3   OH270039   3.289   1.162  10.188  0.6146  0.2294  0.6239
16183TIP3    H170040   3.283   1.237  10.248 -0.3306  0.9979 -0.4045
16183TIP3    H270041   3.327   1.198  10.108  1.9959 -0.8245  0.7685
16184TIP3   OH270042   5.390   3.978   0.487 -0.7091  0.2581 -0.2046
16184TIP3    H170043   5.306   3.992   0.443  0.0743 -0.4223 -2.0261
16184TIP3    H270044   5.383   3.890   0.524 -1.0750  0.5218  0.3768
16185TIP3   OH270045   3.846   6.282  12.378  0.1224  0.4873 -0.2243
16185TIP3    H170046   3.806   6.199  12.403  0.3374  0.7799  1.1997
16185TIP3    H270047   3.885   6.266  12.292  1.6629 -1.3959  0.7494
16186TIP3   OH270048   4.652   5.014   3.106 -0.5128 -0.5561  0.3833
16186TIP3    H170049   4.677   5.100   3.075  2.0739 -1.1777  0.5716
16186TIP3    H270050   4.667   4.956   3.032 -2.4759 -0.8901  0.1689
16187TIP3   OH270051   1.461   2.708   1.891  0.4046 -0.4532  0.4721
16187TIP3    H170052   1.480   2.687   1.982  1.6453 -1.6456 -0.0277
16187TIP3    H270053   1.508   2.790   1.876 -0.6818  0.3228  1.1731
16188TIP3   OH270054   4.632   3.018   4.565 -0.0619  0.0527  0.5074
16188TIP3    H170055   4.721   2.987   4.583 -0.1403  0.1329  1.0631
16188TIP3    H270056   4.578   2.972   4.629 -0.2860  0.7306  0.8178
16189TIP3   OH270057   3.428   3.083  15.611  0.4787  0.0496 -0.0709
16189TIP3    H170058   3.468   3.010  15.563  2.0839 -0.0387  1.3117
16189TIP3    H270059   3.503   3.131  15.647 -0.6408  0.9104  1.1799
16190TIP3   OH270060   4.358   1.173   4.409 -0.2133 -0.1652  0.2236
16190TIP3    H170061   4.314   1.164   4.325 -0.0103 -0.6311  0.1607
16190TIP3    H270062   4.434   1.115   4.403  0.9141  1.2733  0.0003
16191TIP3   OH270063   1.392   1.903   1.359  0.0437  0.5510  0.2784
16191TIP3    H170064   1.431   1.817   1.343  1.3211  0.8789  1.5052
16191TIP3    H270065   1.426   1.958   1.288 -1.5762 -0.1426 -1.1128
16192TIP3   OH270066   0.227   2.524  11.717 -0.5389  0.1692  0.1973
16192TIP3    H170067   0.232   2.550  11.809 -1.8773 -1.0984  0.6588
16192TIP3    H270068   0.205   2.605  11.671  0.0636  0.8038  0.9870
16193TIP3   OH270069   2.198   6.177  11.729 -0.2091  0.3149 -0.4857
16193TIP3    H170070   2.220   6.268  11.712  2.8878 -0.2490 -0.0523
16193TIP3    H270071   2.179   6.174  11.822  0.5066  0.4084 -0.3290
16194TIP3   OH270072   1.989   2.295  11.183  0.0883 -0.0451  0.1365
16194TIP3    H170073   2.044   2.355  11.132 -0.0810 -0.5318 -0.6404
16194TIP3    H270074   2.008   2.316  11.274 -0.7720  1.9706 -0.0807
16195TIP3   OH270075   2.619   4.169  15.962  0.4463  0.3757  0.1351
16195TIP3    H170076   2.526   4.152  15.944  0.4377 -0.5688  0.9544
16195TIP3    H270077   2.656   4.083  15.978  1.1181  0.8718  1.3780
16196TIP3   OH270078   6.776   6.677  13.587  0.5223 -0.3914 -0.1483
16196TIP3    H170079   6.832   6.666  13.663 -0.1957 -0.7354  0.3462
16196TIP3    H270080   6.713   6.745  13.612  0.9898  0.3302 -0.8670
16197TIP3   OH270081   1.878   6.601  12.181 -0.5544  0.4420 -0.4598
16197TIP3    H170082   1.945   6.547  12.223 -2.4235 -2.3168 -0.6777
16197TIP3    H270083   1.869   6.677  12.238  0.4277 -0.7651  1.4349
16198TIP3   OH270084   3.902   1.172  14.963  0.1946 -0.0269 -0.2351
16198TIP3    H170085   3.963   1.111  14.921 -1.1757 -1.8107  0.2375
16198TIP3    H270086   3.854   1.211  14.891 -0.2171 -0.9589 -0.4773
16199TIP3   OH270087   2.499   2.400  16.892 -0.0951 -0.8720 -0.2174
16199TIP3    H170088   2.563   2.390  16.961 -0.6559 -1.0049  0.2946
16199TIP3    H270089   2.487   2.312  16.857 -0.8873 -1.0587  0.5031
16200TIP3   OH270090   4.070   6.596  13.449 -0.0052  0.0307 -0.5578
16200TIP3    H170091   3.998   6.643  13.406  0.5029  0.9676 -0.3959
16200TIP3    H270092   4.104   6.658  13.514  0.6571 -0.5769 -0.3159
16201TIP3   OH270093   3.696   5.564  13.702  1.0234  0.3913  0.1499
16201TIP3    H170094   3.701   5.469  13.707 -0.1585  0.3250  0.3994
16201TIP3    H270095   3.769   5.595  13.755  0.6135 -0.3866  1.2003
16202TIP3   OH270096   3.195   0.433   3.763  0.0475  0.4862 -0.0541
16202TIP3    H170097   3.245   0.361   3.724 -0.0519 -0.2146  1.0497
16202TIP3    H270098   3.105   0.420   3.731  0.2212  0.7147 -0.6471
16203TIP3   OH270099   3.143   0.222   5.421  0.4400 -0.2104 -0.1137
16203TIP3    H170100   3.070   0.228   5.482  1.4222  0.2665  1.0590
16203TIP3    H270101   3.167   0.313   5.403  1.5441 -0.3571  0.5285
16204TIP3   OH270102   0.319   4.886   4.328  0.6170 -0.0042 -1.0266
16204TIP3    H170103   0.300   4.928   4.245  2.0894  0.3861 -1.1896
16204TIP3    H270104   0.359   4.802   4.304  0.0216 -0.3883 -0.7026
16205TIP3   OH270105   1.605   1.594  16.706  0.1640  0.0676  0.3957
16205TIP3    H170106   1.600   1.503  16.736  1.2123  0.2216  1.0841
16205TIP3    H270107   1.524   1.607  16.657  0.1311 -1.3291  0.0209
16206TIP3   OH270108   5.133   1.239  12.654  0.0669 -0.4390 -0.5348
16206TIP3    H170109   5.098   1.181  12.722 -0.5599  0.5193 -0.0138
16206TIP3    H270110   5.222   1.258  12.683 -0.1703 -0.1021 -0.0122
16207TIP3   OH270111   4.992   0.822  12.019 -0.0650  0.2143  0.5387
16207TIP3    H170112   4.965   0.739  11.981  0.1824  0.4584 -0.1879
16207TIP3    H270113   5.004   0.803  12.112  0.2062 -0.6177  0.3434
16208TIP3   OH270114   6.184   6.614  11.674 -0.0231  0.4629 -0.4808
16208TIP3    H170115   6.146   6.700  11.657  0.1459  1.1613  2.2316
16208TIP3    H270116   6.112   6.553  11.659 -0.6108  1.2314 -0.8805
16209TIP3   OH270117   3.940   1.104   2.719  0.2272 -0.1733 -0.3355
16209TIP3    H170118   3.845   1.093   2.731  0.2101  0.6113  0.3146
16209TIP3    H270119   3.951   1.197   2.704  0.9743 -0.1445  0.3550
16210TIP3   OH270120   4.784   1.931  14.820  0.1179 -0.6176  0.3316
16210TIP3    H170121   4.779   2.000  14.885  0.3450 -0.3082  0.0249
16210TIP3    H270122   4.808   1.976  14.739 -0.4585 -0.9555 -0.0352
16211TIP3   OH270123   5.021   5.028  13.720  0.2351 -0.1311 -0.2582
16211TIP3    H170124   4.965   4.953  13.702  0.2465  0.1043 -1.3363
16211TIP3    H270125   5.037   5.068  13.634  0.7244  0.7503  0.2228
16212TIP3   OH270126   3.793   2.790   4.268  0.2279  0.4979 -0.2468
16212TIP3    H170127   3.880   2.802   4.230  0.2890  0.7939 -0.0246
16212TIP3    H270128   3.739   2.757   4.196  0.0912  2.0168 -0.8867
16213TIP3   OH270129   5.939   3.845   4.160 -0.7825  0.6171 -0.6234
16213TIP3    H170130   5.875   3.906   4.125  0.9326  2.2542 -1.0821
16213TIP3    H270131   6.023   3.891   4.152  0.6738 -1.9887 -1.4159
16214TIP3   OH270132   1.349   0.529  13.437 -0.1997 -0.1896  0.2928
16214TIP3    H170133   1.381   0.589  13.505 -0.0561 -0.1894  0.2256
16214TIP3    H270134   1.405   0.546  13.362 -0.4768 -0.0636  0.1151
16215TIP3   OH270135   3.169   2.780   0.725 -0.5293  0.9433  0.0569
16215TIP3    H170136   3.101   2.740   0.779 -1.0333  0.0132 -1.2255
16215TIP3    H270137   3.126   2.853   0.681 -0.3926  1.0421  0.0834
16216TIP3   OH270138   5.423   3.185  13.069 -0.2478 -0.7250  0.1916
16216TIP3    H170139   5.445   3.181  12.976  2.3458 -1.3467  0.7557
16216TIP3    H270140   5.407   3.277  13.086 -1.1079 -0.6472 -0.9129
16217TIP3   OH270141   2.706   3.393  13.892 -0.1316  0.2280 -0.4186
16217TIP3    H170142   2.732   3.373  13.982 -0.6329 -0.8126 -0.4796
16217TIP3    H270143   2.688   3.307  13.853 -0.7451  0.7155 -1.2545
16218TIP3   OH270144   1.012   2.737  12.010 -0.1594 -0.1506  0.7155
16218TIP3    H170145   1.095   2.725  11.963 -0.3649  2.5373 -0.5049
16218TIP3    H270146   0.966   2.654  11.998  1.8169 -1.2696  0.3679
16219TIP3   OH270147   2.715   2.614   6.525 -0.1764  0.2523 -0.2356
16219TIP3    H170148   2.715   2.542   6.588  1.6569  0.5033  0.0864
16219TIP3    H270149   2.807   2.630   6.506 -0.2776  4.1258  1.5869
16220TIP3   OH270150   2.746   1.473   0.687 -0.2169 -0.5435 -0.3160
16220TIP3    H170151   2.840   1.481   0.701 -0.2852  1.3418 -0.7674
16220TIP3    H270152   2.718   1.559   0.658 -1.9239 -1.3507 -1.2310
16221TIP3   OH270153   1.234   3.658  16.625  0.4684 -0.6162  0.0864
16221TIP3    H170154   1.271   3.694  16.705  1.1502  0.6143 -0.7456
16221TIP3    H270155   1.218   3.734  16.569 -1.3586 -1.3112 -0.4137
16222TIP3   OH270156   0.661   6.382  15.228 -0.5603  0.5553 -0.1915
16222TIP3    H170157   0.627   6.423  15.307 -2.1192 -1.0162  0.0252
16222TIP3    H270158   0.666   6.453  15.164  1.0801  1.9166  1.3777
16223TIP3   OH270159   5.378   5.609   5.644  0.3061  0.0984  0.4435
16223TIP3    H170160   5.335   5.576   5.723  0.7320  0.0472  0.6546
16223TIP3    H270161   5.360   5.703   5.643 -0.1965  0.0039  0.2882
16224TIP3   OH270162   1.194   1.524  13.163 -0.4522 -0.4829 -0.2782
16224TIP3    H170163   1.283   1.524  13.198 -0.5795 -1.5056  0.0711
16224TIP3    H270164   1.162   1.436  13.178 -1.3426 -0.2813 -0.8974
16225TIP3   OH270165   3.457   5.613   3.835 -0.5175  0.2557  0.6305
16225TIP3    H170166   3.450   5.596   3.929 -0.5433  0.6862  0.7110
16225TIP3    H270167   3.507   5.539   3.801 -1.4489 -0.4727  0.8007
16226TIP3   OH270168   0.756   3.698   0.585  0.1044 -0.1113 -0.1744
16226TIP3    H170169   0.784   3.607   0.590  0.9794  0.2148  1.5759
16226TIP3    H270170   0.661   3.694   0.600  0.0835 -0.7433 -0.4194
16227TIP3   OH270171   5.342   1.555   5.973  0.3810 -0.2723  0.7432
16227TIP3    H170172   5.283   1.489   6.010  0.0779  0.8769  2.3968
16227TIP3    H270173   5.286   1.628   5.949  0.9975  0.5621  1.7145
16228TIP3   OH270174   4.990   0.826   0.666  0.1920 -0.4013 -0.2752
16228TIP3    H170175   4.982   0.861   0.755  1.5592 -1.0810  0.1400
16228TIP3    H270176   4.924   0.874   0.616 -2.1145 -1.4592  1.5161
16229TIP3   OH270177   2.634   5.402  12.849  0.1285 -0.6698  0.0195
16229TIP3    H170178   2.637   5.351  12.930  2.6145 -0.5223  0.1004
16229TIP3    H270179   2.597   5.486  12.875  1.2713 -0.4810  1.1239
16230TIP3   OH270180   2.758   5.599  12.227 -0.0512 -0.1530 -0.1696
16230TIP3    H170181   2.675   5.572  12.266  0.3955 -0.4397  0.6106
16230TIP3    H270182   2.737   5.679  12.179 -0.8225 -0.3557 -0.1876
16231TIP3   OH270183   6.700   4.878   4.697 -0.7912  0.2577 -1.0111
16231TIP3    H170184   6.612   4.911   4.715 -0.3682  1.8544 -1.7184
16231TIP3    H270185   6.752   4.957   4.681 -0.0409 -0.7827 -4.3088
16232TIP3   OH270186   2.265   6.647   6.061 -0.1238  0.2902 -0.4481
16232TIP3    H170187   2.271   6.581   6.130 -1.1297 -0.4200 -1.0177
16232TIP3    H270188   2.214   6.718   6.099  0.0588  0.2804 -0.1843
16233TIP3   OH270189   0.047   5.719   5.530  0.6937 -0.3854  0.0679
16233TIP3    H170190  -0.007   5.643   5.548  1.1124 -0.4562  1.0838
16233TIP3    H270191  -0.009   5.777   5.479 -0.0970 -0.7642  0.4934
16234TIP3   OH270192   5.619   6.301   5.703 -0.0387 -0.4764 -0.0906
16234TIP3    H170193   5.648   6.220   5.745  1.2519  0.1063  0.1819
16234TIP3    H270194   5.700   6.346   5.679 -0.6810  1.6441  1.5005
16235TIP3   OH270195   2.793   3.548  16.351 -0.0158 -0.1264 -0.1146
16235TIP3    H170196   2.769   3.579  16.264  0.4117 -0.3931 -0.3330
16235TIP3    H270197   2.800   3.627  16.404 -0.4792  0.0199 -0.2743
16236TIP3   OH270198   2.232   2.854  16.979 -0.4219  0.3746 -0.1775
16236TIP3    H170199   2.302   2.795  16.951 -0.9393 -0.9067  1.0743
16236TIP3    H270200   2.167   2.796  17.018 -1.0668  1.7642  0.8830
16237TIP3   OH270201   5.389   6.574  11.127 -0.1627  0.1276 -0.2161
16237TIP3    H170202   5.460   6.517  11.157 -0.1028  0.8647  1.1059
16237TIP3    H270203   5.433   6.654  11.100 -0.5445  1.0909  1.8382
16238TIP3   OH270204   0.139   0.113   6.160  0.2124  0.7397  0.2279
16238TIP3    H170205   0.100   0.200   6.160 -1.0700  0.1884 -0.0577
16238TIP3    H270206   0.099   0.068   6.235  1.2096  0.5399  0.6542
16239TIP3   OH270207   2.164   1.348   2.279  0.1019 -0.4878  0.2604
16239TIP3    H170208   2.240   1.375   2.332 -0.5818  0.2965  0.8651
16239TIP3    H270209   2.117   1.429   2.262 -1.6791 -1.1745  1.5979
16240TIP3   OH270210   1.986   4.339  13.752 -0.4021  0.4860  0.3423
16240TIP3    H170211   2.000   4.433  13.756 -1.6925  0.7274 -0.3257
16240TIP3    H270212   1.960   4.322  13.661 -1.0496 -0.3829  0.6719
16241TIP3   OH270213   0.641   2.377   0.564 -0.0534  0.0856  0.1066
16241TIP3    H170214   0.660   2.287   0.538 -0.4945 -0.1886  0.7068
16241TIP3    H270215   0.560   2.399   0.517 -0.1868  0.0139  0.3025
16242TIP3   OH270216   0.819   6.264  16.322  0.1020  0.1523  0.2654
16242TIP3    H170217   0.748   6.324  16.346 -0.0788 -0.8749  2.4962
16242TIP3    H270218   0.797   6.182  16.365  0.8651 -1.2901 -1.9084
16243TIP3   OH270219   2.181   6.075   1.975 -0.4931  0.3587  0.7046
16243TIP3    H170220   2.174   6.016   1.899  1.5164  1.9873 -0.8690
16243TIP3    H270221   2.092   6.079   2.010 -1.1365 -1.8400 -0.4671
16244TIP3   OH270222   1.711   3.938   1.254 -0.4123  0.2352 -0.1669
16244TIP3    H170223   1.675   3.998   1.189 -2.4477 -1.7151 -0.9864
16244TIP3    H270224   1.637   3.882   1.278  1.3806 -2.0532  0.3916
16245TIP3   OH270225   3.030   6.090  13.917 -0.1779 -0.7819 -0.4358
16245TIP3    H170226   3.109   6.121  13.874 -0.2430 -0.2042 -0.1535
16245TIP3    H270227   2.981   6.170  13.938 -1.1860 -1.1605 -1.2683
16246TIP3   OH270228   2.305   4.932   3.077 -0.0057 -0.1474 -0.0813
16246TIP3    H170229   2.331   5.024   3.069  1.9349 -0.7070 -0.7710
16246TIP3    H270230   2.386   4.887   3.102 -0.4114 -1.9328 -1.7771
16247TIP3   OH270231   5.067   5.775  10.863 -0.5908  0.3303  0.0287
16247TIP3    H170232   5.068   5.839  10.935 -0.3265 -0.5638  0.8352
16247TIP3    H270233   5.018   5.819  10.794  1.0465  2.1179 -0.1035
16248TIP3   OH270234   2.430   2.063  10.236  0.3601  0.2292 -0.4201
16248TIP3    H170235   2.396   2.089  10.321  1.8173  0.7458  0.0330
16248TIP3    H270236   2.384   2.119  10.174 -1.8939 -1.2422 -0.1854
16249TIP3   OH270237   1.677   4.853   0.108  0.5585  0.1973 -0.2470
16249TIP3    H170238   1.633   4.921   0.056  0.3626  0.3027  0.0559
16249TIP3    H270239   1.767   4.885   0.117  1.1021 -0.6704 -2.0423
16250TIP3   OH270240   3.142   0.029   1.432  0.7814 -0.0835  0.8144
16250TIP3    H170241   3.214   0.086   1.406 -0.1342  0.8645  0.3134
16250TIP3    H270242   3.124   0.052   1.523  0.3141  0.5666  0.5693
16251TIP3   OH270243   6.108   5.753   5.803  0.0469 -0.0140 -0.4138
16251TIP3    H170244   6.052   5.722   5.732  0.4657  1.8640 -1.6528
16251TIP3    H270245   6.197   5.741   5.770  0.2608  0.5251 -0.0571
16252TIP3   OH270246   5.855   1.281  13.579 -0.0045  0.0944  0.2318
16252TIP3    H170247   5.944   1.310  13.599  0.0631 -0.0705  0.1667
16252TIP3    H270248   5.829   1.336  13.504 -0.3094  0.8069  0.8485
16253TIP3   OH270249   5.431   1.329  13.930  0.1477 -0.8027 -0.5630
16253TIP3    H170250   5.414   1.420  13.907  1.0220 -0.8572 -1.4810
16253TIP3    H270251   5.401   1.278  13.855  0.9522 -1.1623 -0.6548
16254TIP3   OH270252   4.973   3.613  11.783  0.2293 -0.3872 -0.0359
16254TIP3    H170253   4.996   3.584  11.871 -1.2262 -1.9880 -0.1144
16254TIP3    H270254   4.898   3.558  11.759  0.3329  0.2924 -2.1155
16255TIP3   OH270255   3.715   6.447   4.758  0.3351 -0.2875 -0.5424
16255TIP3    H170256   3.810   6.451   4.756  0.4406 -0.2467  1.6862
16255TIP3    H270257   3.694   6.356   4.740  0.6751 -0.0409 -2.4054
16256TIP3   OH270258   1.888   0.331   2.169 -0.3023 -0.2098 -0.0529
16256TIP3    H170259   1.819   0.361   2.228 -0.2689 -2.0584  1.0071
16256TIP3    H270260   1.857   0.246   2.138  0.0485  0.3824 -2.1355
16257TIP3   OH270261   3.563   4.634  13.734  0.2597 -0.1111  0.3068
16257TIP3    H170262   3.639   4.684  13.705  0.8589 -1.0927  0.1749
16257TIP3    H270263   3.502   4.701  13.767  0.8330  0.7497 -0.3351
16258TIP3   OH270264   2.126   1.626   1.382 -0.4227 -0.3111  0.1967
16258TIP3    H170265   2.179   1.546   1.378  0.8301  0.5431 -1.1202
16258TIP3    H270266   2.097   1.641   1.292 -1.1565  0.4130  0.5321
16259TIP3   OH270267   4.436   5.945   5.148 -0.5525 -0.5042  0.0818
16259TIP3    H170268   4.421   5.858   5.113 -1.6387 -0.9147  1.4927
16259TIP3    H270269   4.530   5.948   5.166 -0.2803 -0.8915 -1.1651
16260TIP3   OH270270   4.598   5.906   0.397 -1.1533 -0.6993  0.0100
16260TIP3    H170271   4.579   5.927   0.489 -0.0323  1.5839 -0.2280
16260TIP3    H270272   4.547   5.970   0.347  0.1674 -0.3097 -0.8697
16261TIP3   OH270273   3.474   3.950  13.328  0.9664 -0.9380 -0.0137
16261TIP3    H170274   3.567   3.937  13.310  1.1620 -0.0180  0.2500
16261TIP3    H270275   3.438   3.862  13.332  1.8378 -1.3119 -0.0521
16262TIP3   OH270276   0.338   3.588   2.466  0.3881  0.3689 -0.4181
16262TIP3    H170277   0.397   3.659   2.441 -0.8532  1.5381 -0.1164
16262TIP3    H270278   0.254   3.631   2.482 -0.0101 -0.9553  1.2744
16263TIP3   OH270279   3.970   5.681  15.183  0.1543 -0.0022  0.5124
16263TIP3    H170280   3.969   5.609  15.247  0.2157 -0.2676  0.2145
16263TIP3    H270281   3.912   5.652  15.113  1.0855 -0.2739 -0.1680
16264TIP3   OH270282   5.274   4.525   0.688 -0.0750  0.4191 -0.4375
16264TIP3    H170283   5.325   4.604   0.670  0.1858  0.5710  0.9044
16264TIP3    H270284   5.188   4.557   0.715 -0.4548  0.1881 -1.3031
16265TIP3   OH270285   5.052   4.946  11.564 -0.2664 -0.4605  0.1286
16265TIP3    H170286   5.126   4.893  11.596  1.3913  1.1822 -0.8283
16265TIP3    H270287   5.061   5.029  11.609 -1.1870 -0.0249 -0.4728
16266TIP3   OH270288   3.294   6.129   1.210  0.8686 -0.0389  0.7116
16266TIP3    H170289   3.355   6.170   1.149  1.2083  0.0091  1.0752
16266TIP3    H270290   3.213   6.178   1.200  1.0654  0.2744  0.6453
16267TIP3   OH270291   6.194   5.679  11.071 -0.9606  0.2529 -0.3438
16267TIP3    H170292   6.276   5.640  11.040 -1.0750 -0.6244  0.3979
16267TIP3    H270293   6.211   5.773  11.070  0.2333  0.0686  0.2387
16268TIP3   OH270294   2.138   6.522   2.669  0.1853 -0.2435 -0.1851
16268TIP3    H170295   2.096   6.442   2.638  0.8465 -0.3654 -0.8031
16268TIP3    H270296   2.228   6.516   2.636  0.5273  0.2735  0.6285
16269TIP3   OH270297   1.805   6.690  15.415  0.3621  0.0147 -0.0121
16269TIP3    H170298   1.780   6.750  15.345  0.3026  0.3537  0.2987
16269TIP3    H270299   1.884   6.646  15.382  0.1006 -0.1233 -0.4569
16270TIP3   OH270300   2.631   6.041  13.078  0.1569  0.0918  0.3819
16270TIP3    H170301   2.573   6.013  13.006 -0.0406 -3.0931  1.6491
16270TIP3    H270302   2.714   5.997  13.060  0.4865  0.2694  1.4420
16271TIP3   OH270303   6.712   2.661  16.865 -0.3786 -0.1502 -0.2932
16271TIP3    H170304   6.740   2.604  16.794  1.8936  0.6733 -0.1531
16271TIP3    H270305   6.778   2.730  16.868 -2.2514  1.7529  0.4347
16272TIP3   OH270306   3.536   4.111  13.080  0.0079 -0.0212 -0.2784
16272TIP3    H170307   3.590   4.056  13.138 -0.5751 -0.0935  0.2025
16272TIP3    H270308   3.523   4.191  13.130 -0.2373  0.0422 -0.4446
16273TIP3   OH270309   6.214   4.830  13.729  0.4257  0.7051  0.0882
16273TIP3    H170310   6.175   4.743  13.718 -0.3233  1.0085  0.2898
16273TIP3    H270311   6.286   4.816  13.791 -0.4222  0.4278  1.0341
16274TIP3   OH270312   6.020   2.223   0.515 -0.0795 -0.0376  0.0041
16274TIP3    H170313   6.077   2.283   0.466 -1.9938  1.1078 -0.9131
16274TIP3    H270314   5.951   2.200   0.453 -1.0036 -0.8514  1.3052
16275TIP3   OH270315   1.186   0.633  14.275  0.2343 -0.2083  0.7907
16275TIP3    H170316   1.126   0.617  14.202  0.1196  0.0051  0.8380
16275TIP3    H270317   1.269   0.655  14.233 -0.0721  0.8477  0.7121
16276TIP3   OH270318   0.317   6.549  15.993  0.0998 -0.2313 -0.1189
16276TIP3    H170319   0.281   6.468  16.028  1.0623 -0.2169  0.9352
16276TIP3    H270320   0.305   6.614  16.062  1.3372 -0.0172 -0.0760
16277TIP3   OH270321   0.653   1.901  13.180  0.2399  0.0111 -0.5664
16277TIP3    H170322   0.698   1.846  13.244  1.0239  1.6589  0.3666
16277TIP3    H270323   0.723   1.951  13.139 -0.6286  2.0173  0.2927
16278TIP3   OH270324   6.730   1.161   4.693 -0.0865  0.7818 -0.0342
16278TIP3    H170325   6.772   1.233   4.740 -0.6971  0.4532  1.0589
16278TIP3    H270326   6.792   1.137   4.624  2.2406 -0.5831  2.3192
16279TIP3   OH270327   0.252   4.682   6.588 -0.6216 -0.0012 -0.0695
16279TIP3    H170328   0.306   4.743   6.538 -1.1989  1.3087  0.8561
16279TIP3    H270329   0.313   4.613   6.616  0.1098  0.3200 -0.8563
16280TIP3   OH270330   3.186   0.090  11.940  0.0677  0.5340  0.0302
16280TIP3    H170331   3.218   0.078  11.850  0.0348  0.5401  0.0177
16280TIP3    H270332   3.194   0.003  11.980  0.8303  0.7110  0.2655
16281TIP3   OH270333   5.513   4.167   2.505  0.1621 -0.4170  0.2629
16281TIP3    H170334   5.490   4.084   2.463  1.1139 -1.2155  1.2451
16281TIP3    H270335   5.485   4.234   2.443 -4.3502 -1.2305  1.0871
16282TIP3   OH270336   0.554   2.663  14.098 -0.6402  0.1492  0.1283
16282TIP3    H170337   0.464   2.630  14.094 -0.5584 -0.1462  0.5545
16282TIP3    H270338   0.599   2.619  14.026 -0.8306  0.2821 -0.0737
16283TIP3   OH270339   6.092   0.446   0.792 -0.5481  0.1993  0.5815
16283TIP3    H170340   6.178   0.404   0.800 -1.1450 -0.9509  1.1830
16283TIP3    H270341   6.112   0.537   0.768  0.7451 -0.8808 -3.0930
16284TIP3   OH270342   1.069   0.427   0.031  0.1417 -0.3191 -0.7743
16284TIP3    H170343   1.163   0.426   0.013  0.2967 -0.8368 -0.0057
16284TIP3    H270344   1.063   0.430   0.127 -0.6180 -1.2691 -0.7785
16285TIP3   OH270345   2.995   1.331   1.076 -0.0378 -0.2153 -0.7620
16285TIP3    H170346   2.989   1.240   1.105 -1.3976  0.4450  1.2227
16285TIP3    H270347   3.084   1.340   1.042  0.9823 -1.6515  1.3113
16286TIP3   OH270348   6.272   3.544  15.951  0.0671 -0.0339 -0.5234
16286TIP3    H170349   6.367   3.543  15.967 -0.0920 -2.3174  0.6101
16286TIP3    H270350   6.265   3.566  15.858  1.6641  0.7521 -0.5017
16287TIP3   OH270351   5.909   2.129   2.147  0.2298 -0.0773 -0.6189
16287TIP3    H170352   5.960   2.084   2.080  1.8955  0.9655 -0.1196
16287TIP3    H270353   5.940   2.220   2.143 -2.6034  0.9645 -1.2108
16288TIP3   OH270354   1.165   0.848   4.609 -0.2957 -0.6009 -0.4655
16288TIP3    H170355   1.181   0.767   4.658 -2.4980 -1.1263 -0.5416
16288TIP3    H270356   1.253   0.885   4.595  0.8086 -3.1083 -0.6966
16289TIP3   OH270357   4.336   5.106  14.771  0.6835 -0.5172 -0.3310
16289TIP3    H170358   4.312   5.184  14.721  0.0245 -1.0629 -0.8838
16289TIP3    H270359   4.393   5.056  14.712 -2.0355 -2.3579 -1.5600
16290TIP3   OH270360   5.281   4.964  15.369  1.0866 -0.0533  0.6508
16290TIP3    H170361   5.273   4.999  15.458 -1.6015 -1.9263  1.2568
16290TIP3    H270362   5.288   5.042  15.313  0.7445  1.2334  2.3268
16291TIP3   OH270363   5.745   1.034   6.033  0.0458 -0.6055  0.2284
16291TIP3    H170364   5.789   1.033   5.948  0.9017 -0.4111  0.6561
16291TIP3    H270365   5.816   1.044   6.097 -0.6375 -0.1199  0.9334
16292TIP3   OH270366   3.793   6.021  11.063 -0.0394 -0.2058 -0.3367
16292TIP3    H170367   3.829   6.102  11.027 -0.5282  0.5694  0.8421
16292TIP3    H270368   3.868   5.965  11.079  0.5872  0.9953  1.1534
16293TIP3   OH270369   6.727   0.776   2.737 -0.1279  0.4152 -0.3948
16293TIP3    H170370   6.636   0.751   2.754 -0.1614  0.9745  0.2578
16293TIP3    H270371   6.779   0.719   2.793  0.0227 -0.8311 -1.7315
16294TIP3   OH270372   1.327   5.527   3.336 -0.3087  0.3837 -0.2213
16294TIP3    H170373   1.393   5.482   3.388 -1.4989 -0.4425  0.6117
16294TIP3    H270374   1.321   5.477   3.255  2.0563  2.0747 -1.5656
16295TIP3   OH270375   5.706   1.021  16.508 -0.2606  0.0196 -0.0818
16295TIP3    H170376   5.628   0.969  16.526 -1.1369  0.9749 -1.0332
16295TIP3    H270377   5.777   0.972  16.551 -1.0712 -1.8547 -0.7594
16296TIP3   OH270378   0.871   1.915  12.967 -0.2062  0.0772 -0.0692
16296TIP3    H170379   0.837   1.826  12.960  2.1938 -0.8969 -0.2901
16296TIP3    H270380   0.959   1.910  12.932 -1.1299  3.3387 -3.5676
16297TIP3   OH270381   4.564   3.434   3.324 -0.3364 -0.2227  0.3753
16297TIP3    H170382   4.626   3.386   3.269  0.9942 -0.7758  2.2389
16297TIP3    H270383   4.525   3.368   3.381 -1.2211  0.4024  0.5142
16298TIP3   OH270384   2.027   2.010  10.497  0.0675 -0.1235 -0.1283
16298TIP3    H170385   2.037   1.987  10.404  0.4251 -0.1671 -0.0802
16298TIP3    H270386   1.952   2.070  10.498 -1.6408 -2.1026 -0.1238
16299TIP3   OH270387   0.115   2.130  16.791  0.1586  0.4576  0.0942
16299TIP3    H170388   0.178   2.149  16.721  0.4731 -1.9757 -0.3904
16299TIP3    H270389   0.030   2.133  16.747  0.3752 -1.3516 -0.5356
16300TIP3   OH270390   3.476   5.645   0.187  0.7394  0.0965 -0.2100
16300TIP3    H170391   3.520   5.586   0.248  1.3476  1.3698  0.6353
16300TIP3    H270392   3.546   5.674   0.128 -0.1504 -2.3963 -2.6348
16301TIP3   OH270393   0.376   5.033   5.408  0.5098 -0.1860  0.0314
16301TIP3    H170394   0.374   5.090   5.331  0.8166 -0.4857 -0.2052
16301TIP3    H270395   0.466   4.998   5.409  0.7817  0.5119  1.0358
16302TIP3   OH270396   5.772   4.231  10.877  0.4129  0.1729 -0.3916
16302TIP3    H170397   5.804   4.163  10.818  1.3770 -1.2188  1.6197
16302TIP3    H270398   5.701   4.189  10.926  2.8034 -0.4943  2.8495
16303TIP3   OH270399   6.484   2.144  16.502 -0.2475 -0.2384  0.1247
16303TIP3    H170400   6.428   2.169  16.428  0.0434 -0.0160 -0.0213
16303TIP3    H270401   6.444   2.063  16.535 -1.4238  0.6050  0.8573
16304TIP3   OH270402   1.673   2.001  11.252 -0.0820 -0.0592  0.5729
16304TIP3    H170403   1.619   2.066  11.206 -3.0617 -1.0019  2.4714
16304TIP3    H270404   1.762   2.031  11.238 -0.8864  1.1630 -3.5048
16305TIP3   OH270405   2.608   6.321  10.938 -0.0916 -0.1441  0.7099
16305TIP3    H170406   2.564   6.241  10.963 -1.4499 -0.0454 -1.1586
16305TIP3    H270407   2.640   6.304  10.849  0.9117  0.8883  0.8438
16306TIP3   OH270408   0.277   0.543   5.325 -0.3264  0.0493  0.4412
16306TIP3    H170409   0.257   0.451   5.309  0.7720 -0.0356 -0.5364
16306TIP3    H270410   0.194   0.589   5.311 -0.6106 -0.6568 -0.2433
16307TIP3   OH270411   0.186   4.705   3.153 -0.1226  1.0246  0.3306
16307TIP3    H170412   0.224   4.632   3.202 -0.2876  0.1937 -0.7350
16307TIP3    H270413   0.222   4.696   3.065 -2.8456  0.0746 -0.7902
16308TIP3   OH270414   2.143   4.570  12.364  0.3163 -0.2099 -0.2143
16308TIP3    H170415   2.101   4.543  12.283  0.5343 -0.1835 -0.3392
16308TIP3    H270416   2.217   4.510  12.374 -0.7997 -1.4519  0.9733
16309TIP3   OH270417   5.868   0.330  14.434 -0.1118  0.1093 -0.0702
16309TIP3    H170418   5.809   0.258  14.409  0.5070 -0.1640 -0.7787
16309TIP3    H270419   5.888   0.313  14.527 -1.3211  0.3423  0.2495
16310TIP3   OH270420   0.454   4.590   4.026  0.1088  0.3674  0.1493
16310TIP3    H170421   0.376   4.645   4.015 -1.1837 -1.3134  0.3577
16310TIP3    H270422   0.427   4.525   4.092  1.3268 -0.8737 -0.5261
16311TIP3   OH270423   4.934   3.820  15.121  0.2044  0.3541 -0.5663
16311TIP3    H170424   4.964   3.891  15.065  3.4957  0.4460  1.1120
16311TIP3    H270425   5.000   3.752  15.112 -0.7709 -0.8585  0.9099
16312TIP3   OH270426   3.447   4.813   3.942  0.3405  0.7141 -0.2393
16312TIP3    H170427   3.369   4.817   3.886  0.3494  1.9716 -0.2008
16312TIP3    H270428   3.516   4.779   3.885 -0.5172 -1.7875  0.1044
16313TIP3   OH270429   4.745   1.911   3.183 -0.2689  0.2186  0.0875
16313TIP3    H170430   4.710   1.891   3.096 -0.7606 -1.0103  0.5358
16313TIP3    H270431   4.742   2.006   3.189  0.8936  0.4092 -1.6760
16314TIP3   OH270432   3.212   2.574  13.542 -0.2651  0.3864  0.4912
16314TIP3    H170433   3.224   2.563  13.448  0.0234 -0.5757  0.6312
16314TIP3    H270434   3.267   2.507  13.582  0.4935  1.4884  1.3879
16315TIP3   OH270435   2.978   2.243  15.628 -0.3086  0.5843  0.1774
16315TIP3    H170436   2.983   2.334  15.656 -2.9641  0.2864  2.0415
16315TIP3    H270437   3.001   2.244  15.535  0.6496  2.9689  0.3783
16316TIP3   OH270438   1.001   5.535  10.755 -0.0186 -0.3002 -0.7179
16316TIP3    H170439   0.947   5.541  10.677 -2.5754 -2.7608  0.6600
16316TIP3    H270440   0.967   5.604  10.813  0.0285 -0.2340 -0.7695
16317TIP3   OH270441   1.386   6.172  11.922 -0.8215 -0.2210  0.0246
16317TIP3    H170442   1.472   6.211  11.935 -1.1814  0.5190  0.2842
16317TIP3    H270443   1.387   6.138  11.833  0.1713 -1.3735  0.4494
16318TIP3   OH270444   0.972   1.771  14.442  0.9057  0.5664 -0.3022
16318TIP3    H170445   0.961   1.692  14.495  1.6809 -0.0844 -1.0716
16318TIP3    H270446   0.990   1.840  14.505 -0.0619  0.1896  0.4076
16319TIP3   OH270447   5.926   0.105   2.949  0.1262 -0.3215  0.2874
16319TIP3    H170448   5.954   0.091   3.039 -1.3713 -1.2508  0.6486
16319TIP3    H270449   6.003   0.084   2.896  2.0869  3.2277  1.3774
16320TIP3   OH270450   0.835   1.158   1.885  0.0440  0.9371  0.5101
16320TIP3    H170451   0.886   1.132   1.962 -0.1629  1.2129  0.7437
16320TIP3    H270452   0.759   1.204   1.921  0.2256  1.5529  0.1225
16321TIP3   OH270453   6.451   5.745   4.536 -0.4686  0.1952  0.3579
16321TIP3    H170454   6.483   5.735   4.446 -1.2689 -0.5064  0.1311
16321TIP3    H270455   6.528   5.732   4.591  0.0409  0.6677 -0.2272
16322TIP3   OH270456   1.778   6.819   3.374 -0.8509 -0.1007 -0.3865
16322TIP3    H170457   1.713   6.784   3.312 -1.6561 -0.2086  0.4992
16322TIP3    H270458   1.862   6.799   3.334 -1.3495 -0.5858 -1.2286
16323TIP3   OH270459   0.009   5.981   3.003 -0.0248  0.0522  0.3880
16323TIP3    H170460  -0.048   5.915   3.042  0.3459  0.1448  1.1035
16323TIP3    H270461   0.062   5.933   2.938 -0.7215 -0.0792 -0.0937
16324TIP3   OH270462   2.066   4.931  13.934 -0.1594  0.0550  0.1356
16324TIP3    H170463   2.070   4.882  14.016 -1.5199  0.1593  0.2912
16324TIP3    H270464   2.157   4.946  13.911  0.2674  0.5831  1.9673
16325TIP3   OH270465   1.389   6.671  16.859  0.5366  0.1010 -0.0953
16325TIP3    H170466   1.372   6.682  16.952  1.3885  0.4620  0.0198
16325TIP3    H270467   1.344   6.589  16.836 -0.7051  0.6333  0.3467
16326TIP3   OH270468   4.532   5.297  14.523 -0.3806 -0.6591 -0.1435
16326TIP3    H170469   4.625   5.283  14.540 -0.4667 -1.8087 -0.5160
16326TIP3    H270470   4.510   5.375  14.573  0.8152 -0.2845 -0.1652
16327TIP3   OH270471   2.127   4.769   3.559  0.0248  0.0391  0.0609
16327TIP3    H170472   2.089   4.682   3.574  1.3478 -0.6676 -0.4995
16327TIP3    H270473   2.202   4.773   3.619  0.1903  0.6477 -0.1744
16328TIP3   OH270474   4.218   3.465  16.133 -1.1881  0.1910  0.7763
16328TIP3    H170475   4.264   3.389  16.167  1.5797  0.6369 -1.5491
16328TIP3    H270476   4.234   3.534  16.198  0.1412 -0.0992  0.7937
16329TIP3   OH270477   1.011   2.239   2.573  0.9136 -0.0967 -0.4230
16329TIP3    H170478   1.037   2.331   2.585 -1.1365  0.8371 -2.3305
16329TIP3    H270479   1.093   2.193   2.556  1.8481  1.6932 -1.0426
16330TIP3   OH270480   4.692   0.690  10.683  0.3565 -0.0534  0.2508
16330TIP3    H170481   4.678   0.766  10.625  1.4742  1.3826  1.7642
16330TIP3    H270482   4.607   0.647  10.687 -0.9314  2.3527  0.9498
16331TIP3   OH270483   4.043   0.300   2.203  0.5609  0.0213 -0.5665
16331TIP3    H170484   4.062   0.207   2.190  0.0641 -0.0571 -0.7613
16331TIP3    H270485   3.970   0.302   2.264  0.6017  0.2841 -0.5250
16332TIP3   OH270486   0.026   0.793   5.825  0.2636  0.0288  0.3331
16332TIP3    H170487   0.111   0.806   5.866  0.2890 -0.2514  0.3721
16332TIP3    H270488  -0.026   0.748   5.891  0.4533 -0.8587 -0.1069
16333TIP3   OH270489   2.248   6.309   1.832  0.1455  0.1757  0.0204
16333TIP3    H170490   2.216   6.230   1.875  0.7539  1.2139  2.5250
16333TIP3    H270491   2.174   6.339   1.779 -0.0431 -2.0980 -1.1550
16334TIP3   OH270492   3.364   3.853   1.455 -0.3462 -0.0634  0.0874
16334TIP3    H170493   3.423   3.779   1.442  0.2563  0.1213  1.5342
16334TIP3    H270494   3.278   3.820   1.429  0.1022 -0.8978 -0.3677
16335TIP3   OH270495   5.252   5.873   2.562  0.2456 -0.1106  0.1731
16335TIP3    H170496   5.294   5.952   2.529  2.0663 -0.8366  0.6108
16335TIP3    H270497   5.276   5.805   2.499 -1.0160 -0.4043 -0.0191
16336TIP3   OH270498   1.718   5.808  14.528 -0.4690  0.8063  0.9347
16336TIP3    H170499   1.755   5.850  14.606  0.5612  1.2826  0.2162
16336TIP3    H270500   1.789   5.756  14.493 -0.7979  0.9111  0.0919
16337TIP3   OH270501   5.047   2.041   0.797 -0.5058 -1.1404 -0.5220
16337TIP3    H170502   5.007   1.982   0.733  1.5623 -1.0942 -1.9518
16337TIP3    H270503   5.099   2.102   0.745 -1.0151  0.7293  1.0484
16338TIP3   OH270504   0.993   3.935   4.127 -0.4894  0.0448 -0.1276
16338TIP3    H170505   1.023   3.956   4.039 -0.6700  0.8288 -0.0107
16338TIP3    H270506   1.053   3.867   4.158 -0.5339 -0.3634 -0.9136
16339TIP3   OH270507   3.789   0.218  14.789 -0.2968  0.0816  0.8952
16339TIP3    H170508   3.821   0.258  14.869 -0.1158 -0.2312  0.9798
16339TIP3    H270509   3.813   0.126  14.796 -0.2935  0.0476  0.4900
16340TIP3   OH270510   5.358   0.513  13.759  0.3045 -0.2810 -0.0745
16340TIP3    H170511   5.362   0.457  13.682  1.3026 -0.8600  0.3722
16340TIP3    H270512   5.290   0.473  13.814  0.1471 -0.3325 -0.3091
16341TIP3   OH270513   1.668   4.167   1.742  0.4699 -0.1280  0.6820
16341TIP3    H170514   1.651   4.258   1.767 -0.4807  0.0298 -0.4333
16341TIP3    H270515   1.685   4.171   1.648 -0.4191 -1.1859  0.4462
16342TIP3   OH270516   6.569   4.423  14.923  0.0937  0.0016  0.3764
16342TIP3    H170517   6.584   4.329  14.918 -0.0407 -0.0957  1.4353
16342TIP3    H270518   6.477   4.434  14.899  0.3190 -0.0340 -0.5448
16343TIP3   OH270519   0.762   5.439   5.325 -0.1501 -0.2258 -0.3070
16343TIP3    H170520   0.673   5.408   5.342 -0.4591 -0.3850 -2.0346
16343TIP3    H270521   0.782   5.496   5.400 -0.7938 -2.0067  1.3010
16344TIP3   OH270522   3.260   5.586   5.187  0.2482 -0.2191  0.0563
16344TIP3    H170523   3.292   5.607   5.100 -1.0551  0.1210 -0.3635
16344TIP3    H270524   3.172   5.551   5.173 -0.1739  0.2886  1.2693
16345TIP3   OH270525   2.535   1.500   3.172  0.3544 -0.2263  0.3797
16345TIP3    H170526   2.581   1.583   3.188  0.2286 -0.0590 -0.1265
16345TIP3    H270527   2.525   1.462   3.260 -0.3288  0.6920  0.7179
16346TIP3   OH270528   1.071   5.542  14.595 -0.2587 -0.2444 -0.5737
16346TIP3    H170529   1.084   5.502  14.681  0.3732  0.0779 -0.5173
16346TIP3    H270530   1.027   5.474  14.543 -2.8107  0.3319  0.6610
16347TIP3   OH270531   2.641   1.149   2.110  0.0268 -0.1024  0.2651
16347TIP3    H170532   2.602   1.115   2.190 -1.3560 -0.0475 -0.3597
16347TIP3    H270533   2.649   1.244   2.125 -0.7928 -0.0042  0.1238
16348TIP3   OH270534   3.317   1.801   1.027 -0.1069 -0.3028 -0.5583
16348TIP3    H170535   3.333   1.751   1.107 -1.0852 -0.8571 -0.6930
16348TIP3    H270536   3.347   1.743   0.957 -1.5029 -0.8562 -0.7325
16349TIP3   OH270537   3.966   3.486  15.437 -0.2350  0.2839  0.5070
16349TIP3    H170538   3.934   3.532  15.514 -0.3818  1.4706 -0.2286
16349TIP3    H270539   3.898   3.422  15.417 -0.5191  0.4339  0.9751
16350TIP3   OH270540   2.137   1.091  14.178 -0.0203  0.2997 -0.1022
16350TIP3    H170541   2.163   1.179  14.205 -2.2348  1.1937 -0.6288
16350TIP3    H270542   2.151   1.037  14.256 -0.9800  1.6644  1.0887
16351TIP3   OH270543   1.589   5.978  10.868  0.3417 -0.5276  0.0297
16351TIP3    H170544   1.638   5.947  10.791  0.6024 -0.5268  0.1952
16351TIP3    H270545   1.624   6.065  10.886  0.3811 -0.5876  0.2407
16352TIP3   OH270546   6.098   1.310  16.250  0.5149  0.2691  0.6805
16352TIP3    H170547   6.108   1.220  16.282  1.8249  0.7417  1.7078
16352TIP3    H270548   6.133   1.308  16.161  0.0049 -0.3438  0.4839
16353TIP3   OH270549   0.982   4.253  15.216 -0.3142 -0.0023 -0.2009
16353TIP3    H170550   0.962   4.333  15.168 -2.6504 -0.3831 -0.0032
16353TIP3    H270551   1.042   4.205  15.159 -0.5023  0.9872 -1.2596
16354TIP3   OH270552   2.342   2.014   2.010 -0.1319  0.3446 -0.4260
16354TIP3    H170553   2.396   1.937   2.028  0.0906  0.7189  0.5753
16354TIP3    H270554   2.369   2.042   1.922  1.1896  0.4188 -0.0189
16355TIP3   OH270555   1.713   5.934   2.850 -0.2536  0.1233 -0.3036
16355TIP3    H170556   1.804   5.922   2.823  0.2722  2.3022  0.2955
16355TIP3    H270557   1.690   5.853   2.897  0.6007 -1.3899 -2.3730
16356TIP3   OH270558   4.302   3.569   1.745  0.0675 -0.4477  0.5216
16356TIP3    H170559   4.350   3.532   1.820  0.3723  0.2081  0.6583
16356TIP3    H270560   4.350   3.537   1.668  1.6195  1.3252  0.6763
16357TIP3   OH270561   6.147   4.214   5.804  0.4259  0.1399  0.2373
16357TIP3    H170562   6.141   4.285   5.868  2.6047 -0.1027  0.7912
16357TIP3    H270563   6.234   4.177   5.817 -0.3979 -2.2412 -0.4669
16358TIP3   OH270564   3.324   2.891  13.644 -0.4549  0.4427 -0.8070
16358TIP3    H170565   3.317   2.951  13.718  0.3021  0.2863 -0.6013
16358TIP3    H270566   3.283   2.810  13.674 -0.4861  0.4989 -0.6975
16359TIP3   OH270567   0.377   3.873  13.059 -0.4350 -0.4212 -0.3864
16359TIP3    H170568   0.468   3.845  13.075 -0.5497 -1.4240 -1.3414
16359TIP3    H270569   0.361   3.940  13.125  0.3537 -1.6159  1.1139
16360TIP3   OH270570   6.001   1.305   5.526  0.1971  0.4013  0.8771
16360TIP3    H170571   6.028   1.213   5.536  0.9889  0.4678 -0.3505
16360TIP3    H270572   6.038   1.331   5.441 -0.4894  1.6951  0.9538
16361TIP3   OH270573   1.836   3.009   0.840  0.4677  0.3370 -0.5135
16361TIP3    H170574   1.923   3.043   0.857  0.7917  0.4246 -2.2288
16361TIP3    H270575   1.828   2.934   0.899  2.7626 -1.3333 -2.1669
16362TIP3   OH270576   2.965   1.406   2.291  0.6144 -0.0025 -0.2643
16362TIP3    H170577   3.015   1.329   2.264  0.7033  0.3145 -1.0185
16362TIP3    H270578   2.962   1.462   2.213  1.5350  1.2949  0.5875
16363TIP3   OH270579   5.894   1.237   4.797 -0.1579  0.0074 -0.1266
16363TIP3    H170580   5.846   1.221   4.716 -0.6956  0.3593  0.1197
16363TIP3    H270581   5.844   1.305   4.842 -1.6646 -2.3437  1.9995
16364TIP3   OH270582   3.673   1.647   1.712 -0.1932  0.5219  0.0284
16364TIP3    H170583   3.699   1.556   1.728 -3.2552 -0.3083  0.8331
16364TIP3    H270584   3.718   1.697   1.780 -1.0454 -0.8835  1.6906
16365TIP3   OH270585   3.096   3.747  14.687 -0.4236  0.6723 -0.4460
16365TIP3    H170586   3.151   3.700  14.749 -2.7225 -1.2318  0.3397
16365TIP3    H270587   3.157   3.785  14.624  1.9142  1.2614  1.9663
16366TIP3   OH270588   1.818   2.940  14.252 -0.5058  0.5210 -0.1490
16366TIP3    H170589   1.844   3.001  14.321 -0.2046  0.0148  0.1958
16366TIP3    H270590   1.788   2.996  14.180 -0.7826  1.0573  0.3744
16367TIP3   OH270591   0.656   2.288   5.336 -0.3728  0.0644 -0.5799
16367TIP3    H170592   0.655   2.218   5.401  3.2518  0.5369  0.1986
16367TIP3    H270593   0.667   2.368   5.386  1.9037  0.4953 -1.6086
16368TIP3   OH270594   3.057   0.458  11.961  0.4340  0.1006 -0.2427
16368TIP3    H170595   2.972   0.485  11.997  0.6380  0.7506 -0.2192
16368TIP3    H270596   3.052   0.481  11.868  0.1424 -0.9851 -0.4999
16369TIP3   OH270597   1.648   5.389   0.021 -0.0619  0.1584 -0.2304
16369TIP3    H170598   1.730   5.402   0.067 -0.6558 -1.9379  1.6318
16369TIP3    H270599   1.598   5.469   0.035  1.2023  0.9951 -0.4251
16370TIP3   OH270600   2.546   4.555   4.657  0.1528 -0.4065  0.4060
16370TIP3    H170601   2.514   4.614   4.589  2.2074  0.3132 -0.0033
16370TIP3    H270602   2.524   4.599   4.739  0.3730  0.2218  0.1306
16371TIP3   OH270603   2.759   0.404  12.843  0.1250  0.1227  0.4473
16371TIP3    H170604   2.853   0.421  12.841  0.2216  0.2082  3.1358
16371TIP3    H270605   2.721   0.481  12.886 -1.0317 -0.4310  0.4568
16372TIP3   OH270606   4.148   1.074  16.722  0.1104  0.0263  0.1404
16372TIP3    H170607   4.116   1.145  16.777  1.1491  1.1717 -0.6938
16372TIP3    H270608   4.159   1.000  16.783  1.3762  1.3017  1.5548
16373TIP3   OH270609   4.111   5.656  11.985  0.1469 -0.2171 -0.0856
16373TIP3    H170610   4.053   5.683  12.057  1.5716  0.3548  0.8797
16373TIP3    H270611   4.183   5.609  12.028 -0.0504 -1.7742 -1.3531
16374TIP3   OH270612   4.628   4.629   1.008 -0.2195 -0.3111  0.0025
16374TIP3    H170613   4.573   4.691   0.962 -0.7983 -0.9770 -0.2194
16374TIP3    H270614   4.601   4.543   0.975  0.0930 -0.7281  0.7993
16375TIP3   OH270615   5.473   1.129   5.489 -0.6615 -0.5464 -0.0353
16375TIP3    H170616   5.465   1.037   5.515  0.4481 -0.1086  2.0130
16375TIP3    H270617   5.520   1.126   5.406  0.0941 -1.7944  0.4090
16376TIP3   OH270618   6.416   1.367  12.752 -0.2655 -0.2733  0.6088
16376TIP3    H170619   6.493   1.368  12.695 -0.8279  0.9434 -0.1696
16376TIP3    H270620   6.452   1.352  12.839  1.1057  2.1297  0.5413
16377TIP3   OH270621   2.550   2.692  14.693 -0.5419  0.2362  0.0227
16377TIP3    H170622   2.535   2.628  14.763  0.7684 -0.0640  0.0507
16377TIP3    H270623   2.463   2.727  14.674 -0.8091  1.2868  2.6946
16378TIP3   OH270624   6.505   1.435  16.864 -0.2708  0.6081  0.0897
16378TIP3    H170625   6.554   1.365  16.909  1.4307  1.0512 -1.0055
16378TIP3    H270626   6.501   1.506  16.928 -2.0120 -0.4335  1.2150
16379TIP3   OH270627   6.698   6.152  16.579 -0.1332 -0.1043  0.2571
16379TIP3    H170628   6.729   6.062  16.580 -1.6101 -0.6424  1.7423
16379TIP3    H270629   6.603   6.145  16.582 -0.3493  1.5060 -1.3893
16380TIP3   OH270630   3.799   2.157  15.402  0.0394  0.2395  0.6623
16380TIP3    H170631   3.816   2.124  15.491  1.5459 -0.6394  0.0832
16380TIP3    H270632   3.709   2.189  15.406 -0.6134 -1.5433  1.9971
16381TIP3   OH270633   3.336   3.425   4.963 -0.2367 -0.2901  0.3362
16381TIP3    H170634   3.277   3.437   4.888 -1.9403 -0.1148  1.6320
16381TIP3    H270635   3.404   3.366   4.932 -0.2843  0.6461 -1.6620
16382TIP3   OH270636   4.965   4.689  12.544 -0.0106  0.2338 -0.0305
16382TIP3    H170637   4.923   4.646  12.469  0.2067  0.2589 -0.1679
16382TIP3    H270638   4.903   4.677  12.616  0.5530 -1.3524  0.2399
16383TIP3   OH270639   5.481   5.676  12.145  0.5002 -0.0668 -0.5364
16383TIP3    H170640   5.502   5.622  12.069 -2.0107  1.3380 -2.3987
16383TIP3    H270641   5.386   5.667  12.155  0.1774  2.8848 -0.0791
16384TIP3   OH270642   5.276   1.886   3.665 -0.1765 -0.1025 -0.4955
16384TIP3    H170643   5.254   1.971   3.626 -1.2757 -0.4359 -0.6280
16384TIP3    H270644   5.267   1.900   3.759 -0.8018 -0.1844 -0.5391
16385TIP3   OH270645   3.616   4.644   1.983 -0.3272 -0.6842 -0.1689
16385TIP3    H170646   3.649   4.615   2.068  1.5843  1.2338 -0.1432
16385TIP3    H270647   3.694   4.679   1.939 -1.6040  0.0128 -1.9700
16386TIP3   OH270648   5.768   1.999  12.041  0.2640  0.3552 -1.0675
16386TIP3    H170649   5.747   2.076  12.093 -0.9171  0.6174 -1.8828
16386TIP3    H270650   5.833   1.952  12.092 -1.2386  0.3028  0.9220
16387TIP3   OH270651   6.074   4.452   1.240  0.2199  0.1015 -0.5505
16387TIP3    H170652   6.025   4.472   1.160 -1.4775  2.7448  0.9802
16387TIP3    H270653   6.011   4.468   1.311  1.5253 -2.5417  1.3564
16388TIP3   OH270654   6.359   4.669  16.081 -0.4822  0.0905  0.1161
16388TIP3    H170655   6.343   4.665  16.176  0.9021  1.9139  0.4687
16388TIP3    H270656   6.368   4.578  16.055 -0.7802 -0.4499  1.7592
16389TIP3   OH270657   2.541   0.833  16.015  0.1546 -0.1254 -0.0225
16389TIP3    H170658   2.462   0.828  16.068  0.4972 -0.7217  0.4451
16389TIP3    H270659   2.612   0.811  16.075  0.4257 -2.1570 -1.0192
16390TIP3   OH270660   5.925   3.385   2.026 -0.0440  0.5581 -0.4826
16390TIP3    H170661   5.948   3.456   1.967  0.2828  1.6143  0.8521
16390TIP3    H270662   5.993   3.318   2.011  0.2560  0.9751 -1.0082
16391TIP3   OH270663   2.736   2.769   0.683  0.0769  0.0113  0.3370
16391TIP3    H170664   2.807   2.717   0.720  0.3207  0.9939  1.2966
16391TIP3    H270665   2.673   2.704   0.652  1.8254 -0.9209 -1.5299
16392TIP3   OH270666   1.117   5.901  11.419  0.2127  0.2880 -0.2804
16392TIP3    H170667   1.059   5.976  11.427  0.8852  0.7123  0.7225
16392TIP3    H270668   1.160   5.912  11.334  0.6181  1.2732  0.0438
16393TIP3   OH270669   0.977   1.441   1.380 -0.1756  0.0122  0.2130
16393TIP3    H170670   0.912   1.510   1.364  0.1692  0.9265  2.4053
16393TIP3    H270671   0.946   1.397   1.459  0.0945 -1.8180 -0.6407
16394TIP3   OH270672   5.457   2.298   6.050 -0.0490 -0.7073 -0.5342
16394TIP3    H170673   5.441   2.208   6.023 -0.7956 -0.6183 -0.4033
16394TIP3    H270674   5.408   2.308   6.132 -0.1709 -0.1146 -0.6753
16395TIP3   OH270675   3.116   2.744  10.533  0.2160  0.2118 -0.1840
16395TIP3    H170676   3.075   2.741  10.447  0.6177  0.9133 -0.4088
16395TIP3    H270677   3.057   2.798  10.586 -1.3563 -2.2877  0.7295
16396TIP3   OH270678   5.980   3.918   2.207  0.7486  0.0522 -0.6474
16396TIP3    H170679   5.919   3.991   2.201  1.2482  0.4782 -0.6407
16396TIP3    H270680   5.925   3.841   2.218  0.1771  0.3164 -1.5973
16397TIP3   OH270681   5.153   6.311   2.847  0.4232 -0.2037 -0.2713
16397TIP3    H170682   5.114   6.361   2.776  0.4384 -0.1911 -0.2709
16397TIP3    H270683   5.083   6.255   2.880 -0.0628  0.9821  0.7945
16398TIP3   OH270684   4.663   3.148  13.151  0.1095  0.2093 -0.2074
16398TIP3    H170685   4.685   3.241  13.143  0.9290  0.2050  1.6821
16398TIP3    H270686   4.568   3.147  13.162 -0.1081  0.6815 -1.7443
16399TIP3   OH270687   0.646   3.472   4.246  0.3952  0.1447  0.0113
16399TIP3    H170688   0.612   3.384   4.230  1.2233 -0.0346 -0.8465
16399TIP3    H270689   0.639   3.484   4.341 -2.7868  0.4380 -0.1468
16400TIP3   OH270690   4.165   5.083   2.591 -0.1155 -0.1938 -0.1585
16400TIP3    H170691   4.230   5.015   2.574  0.7116  0.4835  0.2004
16400TIP3    H270692   4.131   5.106   2.505  2.5237  1.7518 -0.8215
16401TIP3   OH270693   1.850   2.429  17.057  0.7052 -0.5824  0.2490
16401TIP3    H170694   1.806   2.376  16.990 -0.9881  0.3038  0.6075
16401TIP3    H270695   1.841   2.519  17.027  1.9097 -0.3236  0.5844
16402TIP3   OH270696   0.890   1.941  14.893  0.3999  0.4484  0.5679
16402TIP3    H170697   0.936   2.010  14.942  0.4871  0.6400  0.2198
16402TIP3    H270698   0.808   1.982  14.866  1.3543  1.1390 -1.4745
16403TIP3   OH270699   6.456   3.398   0.158  0.2848 -0.2975 -0.1315
16403TIP3    H170700   6.394   3.450   0.107 -1.1102 -2.0278 -0.2766
16403TIP3    H270701   6.412   3.382   0.241  0.3610 -1.8623 -0.3700
16404TIP3   OH270702   6.782   4.794   2.216 -0.8317  0.0499 -0.0655
16404TIP3    H170703   6.690   4.794   2.244 -1.1383  2.3944 -0.8437
16404TIP3    H270704   6.786   4.732   2.144 -1.3983 -1.3391  1.0491
16405TIP3   OH270705   6.385   2.824   6.381 -0.6493  0.4899 -0.5144
16405TIP3    H170706   6.480   2.816   6.371 -0.7151 -0.0290 -0.7433
16405TIP3    H270707   6.373   2.860   6.469 -0.3182 -1.4010  0.3460
16406TIP3   OH270708   4.803   3.604  13.368  0.7900  0.0528  0.7774
16406TIP3    H170709   4.739   3.547  13.412  0.5693 -0.8862 -0.6887
16406TIP3    H270710   4.884   3.554  13.367  0.2870 -0.8370 -1.6079
16407TIP3   OH270711   2.292   1.217  17.107 -0.3319  0.0950 -0.0596
16407TIP3    H170712   2.273   1.135  17.062 -0.2176 -0.4387  0.8521
16407TIP3    H270713   2.275   1.285  17.041  1.1574 -0.7175 -1.3259
16408TIP3   OH270714   1.874   3.376  14.212  0.4969  0.7047 -0.0864
16408TIP3    H170715   1.948   3.336  14.166  0.2810  0.6768 -0.4103
16408TIP3    H270716   1.823   3.418  14.143 -1.9802 -2.5633 -0.4602
16409TIP3   OH270717   2.718   2.442   2.464  0.1858 -0.6729 -0.1447
16409TIP3    H170718   2.664   2.506   2.417  1.5497  1.2214  0.7022
16409TIP3    H270719   2.807   2.459   2.432  0.9294 -0.3655  1.9564
16410TIP3   OH270720   4.825   1.874  13.316  0.3751  0.0489 -0.3584
16410TIP3    H170721   4.821   1.824  13.234  0.4554  0.3921 -0.5745
16410TIP3    H270722   4.734   1.893  13.337  0.4411  2.1795 -1.7535
16411TIP3   OH270723   5.388   0.443  15.245 -0.1621 -0.7164 -0.0871
16411TIP3    H170724   5.440   0.522  15.230 -2.0214  0.7227  0.6871
16411TIP3    H270725   5.315   0.450  15.184 -0.6282 -1.5817  0.3435
16412TIP3   OH270726   4.438   5.103  16.217  0.5164 -0.0289 -0.0489
16412TIP3    H170727   4.422   5.197  16.229  1.5910  0.0411  1.0638
16412TIP3    H270728   4.457   5.093  16.124 -1.2650  0.5726 -0.5136
16413TIP3   OH270729   6.688   5.463  16.721  0.3846 -0.2713  0.1910
16413TIP3    H170730   6.594   5.477  16.731  0.6672  2.0012  0.0377
16413TIP3    H270731   6.695   5.378  16.678 -1.6327  0.0222 -0.8065
16414TIP3   OH270732   0.135   3.953   2.082  0.3941  0.1765  0.7194
16414TIP3    H170733   0.180   3.982   2.161 -0.0019  1.1315  0.5937
16414TIP3    H270734   0.157   3.859   2.076  1.9702  0.4946  0.9296
16415TIP3   OH270735   0.856   1.479  16.275 -0.0831  0.4294  0.3062
16415TIP3    H170736   0.839   1.530  16.196  2.4064  0.1024 -0.5081
16415TIP3    H270737   0.886   1.544  16.339 -1.9720  0.6746  1.0150
16416TIP3   OH270738   4.315   0.729   5.101  0.3321  0.1026 -0.2876
16416TIP3    H170739   4.285   0.806   5.150  0.8039  0.7569 -1.0117
16416TIP3    H270740   4.410   0.732   5.107  0.3443 -0.7392  0.1333
16417TIP3   OH270741   4.701   0.523   5.582 -0.1564 -0.2257 -0.0496
16417TIP3    H170742   4.775   0.565   5.538 -0.1454  2.1745  2.0768
16417TIP3    H270743   4.732   0.434   5.601  2.2712  0.7596  0.9331
16418TIP3   OH270744   6.756   1.932  12.359  0.0725  0.2249  0.1418
16418TIP3    H170745   6.849   1.929  12.339  0.1209  1.2195  0.1420
16418TIP3    H270746   6.712   1.932  12.274  0.2359  3.3430 -0.0518
16419TIP3   OH270747   3.681   6.568  14.228  0.0822 -0.4793  0.4500
16419TIP3    H170748   3.761   6.574  14.279  0.6109 -1.1342 -0.2674
16419TIP3    H270749   3.706   6.600  14.141 -1.3323  2.7266  1.0857
16420TIP3   OH270750   6.439   0.584  17.136  0.0189  0.4346  0.0311
16420TIP3    H170751   6.480   0.509  17.093  0.1835  0.7874 -0.4423
16420TIP3    H270752   6.405   0.550  17.218  1.5294  0.2047  0.5825
16421TIP3   OH270753   3.826   3.258   4.580 -0.2493 -0.4277  0.1284
16421TIP3    H170754   3.824   3.162   4.572 -1.8667 -0.4828  0.6724
16421TIP3    H270755   3.879   3.288   4.506 -1.0765 -1.6691 -1.0168
16422TIP3   OH270756   1.750   2.167  12.936  0.1392 -0.0790 -0.3142
16422TIP3    H170757   1.672   2.218  12.958 -0.9100 -0.1748 -3.3410
16422TIP3    H270758   1.805   2.228  12.887  1.2671 -0.4691  0.4359
16423TIP3   OH270759   2.894   4.966  16.594  0.4669  0.4749  0.2574
16423TIP3    H170760   2.822   4.953  16.532  1.3038 -0.2599 -0.6023
16423TIP3    H270761   2.907   5.060  16.597 -0.5750  0.6225  0.4863
16424TIP3   OH270762   3.839   1.098   3.037  0.2842 -0.1681  0.2725
16424TIP3    H170763   3.815   1.190   3.027  1.6744  0.3617  1.5087
16424TIP3    H270764   3.793   1.053   2.966 -1.7008  1.2321  0.5965
16425TIP3   OH270765   5.726   0.781   3.817  0.1716  0.3304 -0.3645
16425TIP3    H170766   5.671   0.763   3.893 -0.4034 -0.0517 -0.8668
16425TIP3    H270767   5.692   0.863   3.781  3.0798  2.9706  2.1968
16426TIP3   OH270768   6.293   3.753  16.786  0.2667 -0.3164  0.1264
16426TIP3    H170769   6.200   3.762  16.767  0.3738  1.8065  0.3792
16426TIP3    H270770   6.297   3.740  16.881  0.2343 -0.6732  0.0812
16427TIP3   OH270771   0.795   1.807  16.429 -0.5540 -0.0441  0.4326
16427TIP3    H170772   0.786   1.887  16.377 -0.9074 -0.7372 -0.6273
16427TIP3    H270773   0.820   1.837  16.516 -1.3849  1.2598  0.2500
16428TIP3   OH270774   0.867   6.647  17.181  0.5313  0.4922  0.1172
16428TIP3    H170775   0.889   6.568  17.229  0.3074  0.6892  0.5450
16428TIP3    H270776   0.772   6.649  17.179  0.5219  0.0125 -1.1211
16429TIP3   OH270777   1.787   2.567   1.068  0.2323  0.7981  0.0412
16429TIP3    H170778   1.697   2.536   1.079  0.7501 -0.9062 -0.3117
16429TIP3    H270779   1.799   2.572   0.973  1.0317 -0.6176  0.0518
16430TIP3   OH270780   0.008   4.372   3.661 -0.7888 -0.8778  0.1227
16430TIP3    H170781   0.101   4.352   3.657 -0.5079 -0.1068  1.9739
16430TIP3    H270782  -0.013   4.409   3.576  0.5651 -1.1562 -0.3460
16431TIP3   OH270783   2.649   0.405  11.020 -1.2889  0.0466  0.2110
16431TIP3    H170784   2.598   0.340  11.069 -0.5848 -0.3591  0.4297
16431TIP3    H270785   2.584   0.467  10.988 -1.8193  0.0732  1.2785
16432TIP3   OH270786   2.605   5.032   0.552  0.2500  0.1435  0.0919
16432TIP3    H170787   2.570   5.082   0.478  0.6524 -1.0809 -0.9661
16432TIP3    H270788   2.528   4.997   0.597  0.0176  0.4151 -0.0936
16433TIP3   OH270789   6.409   4.551  16.637 -0.5034 -0.0903 -0.8614
16433TIP3    H170790   6.320   4.534  16.665 -0.3815 -0.5010 -0.7181
16433TIP3    H270791   6.449   4.597  16.711 -0.6418  0.2437 -0.9917
16434TIP3   OH270792   3.574   4.526  11.253  0.1035 -0.4018  0.4890
16434TIP3    H170793   3.518   4.557  11.182  0.4617  0.9773  0.7652
16434TIP3    H270794   3.513   4.491  11.318 -0.2657 -1.0758 -0.2013
16435TIP3   OH270795   6.584   5.508  15.284  0.4337 -0.3067 -0.4213
16435TIP3    H170796   6.616   5.439  15.226  1.4570  1.2292 -1.7631
16435TIP3    H270797   6.646   5.508  15.357 -1.1010 -2.5322  1.0365
16436TIP3   OH270798   0.254   6.698   2.378  0.0987 -0.3787  0.5247
16436TIP3    H170799   0.342   6.661   2.373  0.0780 -0.3556 -0.0807
16436TIP3    H270800   0.268   6.788   2.409  0.4965  0.3149 -1.5150
16437TIP3   OH270801   0.409   2.265  14.938  0.1297  0.5088  0.2544
16437TIP3    H170802   0.359   2.189  14.910  0.1374  0.5432  0.1433
16437TIP3    H270803   0.499   2.233  14.947  0.2258  0.6161 -0.2805
16438TIP3   OH270804   4.379   5.427   3.523 -0.2906  0.4372 -0.0160
16438TIP3    H170805   4.402   5.504   3.574 -2.1365  0.0852  1.4635
16438TIP3    H270806   4.439   5.429   3.448  0.3610  2.7275  0.4867
16439TIP3   OH270807   1.361   2.891  13.191  0.6218 -0.5684 -0.0384
16439TIP3    H170808   1.347   2.886  13.096  1.1919 -2.0571 -0.0620
16439TIP3    H270809   1.299   2.827  13.227  0.3529  0.0464  0.6167
16440TIP3   OH270810   1.959   4.735  13.195  0.4374  0.2085  0.2056
16440TIP3    H170811   1.976   4.643  13.172  2.3870  0.2140  1.3364
16440TIP3    H270812   1.902   4.730  13.271 -1.6702  0.0718 -1.2744
16441TIP3   OH270813   4.909   5.457  14.258  0.1760  0.5772  0.2846
16441TIP3    H170814   4.976   5.457  14.189  1.6675 -1.4157  1.5924
16441TIP3    H270815   4.917   5.543  14.299  1.5601  0.6055  0.0166
16442TIP3   OH270816   0.427   4.272   1.517 -0.0258 -0.2397 -0.2067
16442TIP3    H170817   0.461   4.245   1.431 -0.1024  0.7375 -0.5617
16442TIP3    H270818   0.346   4.221   1.528 -0.7851  0.6649 -1.3813
16443TIP3   OH270819   1.255   3.350   2.462 -0.1351 -0.5756  0.4025
16443TIP3    H170820   1.165   3.378   2.482 -0.5127  0.5384 -2.4443
16443TIP3    H270821   1.306   3.431   2.463 -0.2274 -0.3549 -2.8701
16444TIP3   OH270822   3.647   5.885   0.619 -0.3455  0.0653 -0.5270
16444TIP3    H170823   3.580   5.852   0.560  1.9341 -2.9603 -1.6876
16444TIP3    H270824   3.637   5.832   0.699 -0.7249  1.1937  0.1984
16445TIP3   OH270825   2.744   5.785   2.873 -0.6546 -0.0388 -0.0117
16445TIP3    H170826   2.739   5.848   2.944 -1.5192  0.2819 -0.3517
16445TIP3    H270827   2.818   5.729   2.896  0.6861  1.6085 -0.1271
16446TIP3   OH270828   0.999   3.310  14.824  0.5469 -0.1559 -0.2346
16446TIP3    H170829   0.954   3.371  14.882  1.4674  0.2653  0.0497
16446TIP3    H270830   0.993   3.226  14.869  0.9405  0.0963  0.2999
16447TIP3   OH270831   6.341   0.412  13.647  0.4307  0.1665  0.4163
16447TIP3    H170832   6.339   0.335  13.704 -1.4665 -0.0902  0.0861
16447TIP3    H270833   6.305   0.482  13.701 -0.7666  0.0728 -0.2240
16448TIP3   OH270834   5.377   5.298   0.046  0.3914  0.2936 -0.1092
16448TIP3    H170835   5.363   5.333   0.134  1.3903  1.4204 -0.3699
16448TIP3    H270836   5.396   5.375  -0.008  1.3797 -0.5254 -0.9717
16449TIP3   OH270837   5.625   3.618   4.207 -0.1212 -1.2479  0.6326
16449TIP3    H170838   5.606   3.576   4.123  2.1627 -0.4535 -0.3460
16449TIP3    H270839   5.691   3.561   4.248  1.2560  0.0886  0.3420
16450TIP3   OH270840   6.486   6.800  14.261  0.0221  0.4536 -0.1633
16450TIP3    H170841   6.512   6.722  14.211 -0.6666  0.7623 -1.0328
16450TIP3    H270842   6.436   6.765  14.334  2.7098 -0.1497  1.5171
16451TIP3   OH270843   3.346   5.629   3.576 -0.3190  0.5785  0.4306
16451TIP3    H170844   3.377   5.641   3.666 -0.0604 -0.3991  0.4827
16451TIP3    H270845   3.423   5.649   3.523  0.2044 -1.0263  0.5291
16452TIP3   OH270846   5.610   0.019  14.942 -0.3155 -0.3239 -0.4790
16452TIP3    H170847   5.572  -0.054  14.892 -0.6453 -0.3650 -0.1732
16452TIP3    H270848   5.599   0.095  14.885 -0.1117 -0.4825 -0.7347
16453TIP3   OH270849   1.829   2.285   2.065  0.3942 -0.7595  0.2102
16453TIP3    H170850   1.763   2.240   2.117 -0.0543 -1.4162 -0.8919
16453TIP3    H270851   1.787   2.368   2.040 -1.1891 -2.3017 -2.7900
16454TIP3   OH270852   6.129   6.773   1.878 -0.3018 -0.2441  0.1898
16454TIP3    H170853   6.139   6.849   1.935  0.1306  0.1576 -0.4152
16454TIP3    H270854   6.102   6.809   1.794 -0.8118 -0.8218  0.0968
16455TIP3   OH270855   5.001   1.754  12.629  0.1110  0.4363 -0.5407
16455TIP3    H170856   4.993   1.682  12.566  0.0974  0.5969 -0.7237
16455TIP3    H270857   5.059   1.720  12.697 -2.4531 -0.9689  1.1047
16456TIP3   OH270858   4.458   3.894   5.839  0.9464  0.6165 -0.5002
16456TIP3    H170859   4.499   3.909   5.754 -0.0717  1.5904 -0.8410
16456TIP3    H270860   4.383   3.837   5.820  0.4115  1.2622 -0.3394
16457TIP3   OH270861   1.286   0.487   1.658 -0.0867  0.2507 -0.4881
16457TIP3    H170862   1.239   0.403   1.661 -0.5495  0.5375  0.6832
16457TIP3    H270863   1.370   0.465   1.616 -0.0215 -0.8967  0.1891
16458TIP3   OH270864   0.826   5.746  13.449  0.0780 -0.0188  0.3095
16458TIP3    H170865   0.762   5.814  13.472 -1.8753 -1.4844 -0.5292
16458TIP3    H270866   0.813   5.677  13.515  1.1034 -0.1740  0.3684
16459TIP3   OH270867   0.268   5.281  12.735 -0.8418 -0.5772  0.0509
16459TIP3    H170868   0.288   5.319  12.649 -0.8971 -0.0792  0.2516
16459TIP3    H270869   0.343   5.306  12.789 -0.2994 -1.7936 -0.1170
16460TIP3   OH270870   6.327   3.031  15.974  0.5788  0.2521 -0.4255
16460TIP3    H170871   6.377   3.100  15.931 -0.2850  0.8534 -0.5083
16460TIP3    H270872   6.236   3.060  15.967 -0.3622 -2.8534 -4.1598
16461TIP3   OH270873   0.282   5.052  11.645  0.1043 -0.1268 -0.0784
16461TIP3    H170874   0.306   5.110  11.572 -1.9525  0.4450 -0.3678
16461TIP3    H270875   0.236   5.109  11.706  0.4149 -0.9429  0.9463
16462TIP3   OH270876   1.325   6.558  16.275 -0.1328 -0.2767 -0.2393
16462TIP3    H170877   1.405   6.529  16.318 -0.1517  0.3506  0.2259
16462TIP3    H270878   1.256   6.504  16.315 -0.0915 -0.0068  0.2070
16463TIP3   OH270879   1.028   6.757   0.296  0.2169  0.0708  0.6474
16463TIP3    H170880   1.033   6.701   0.373  0.8531 -1.3805 -0.3935
16463TIP3    H270881   0.937   6.784   0.291 -0.3004 -1.5517  0.7464
16464TIP3   OH270882   6.151   1.858  14.021 -0.3764  0.2923 -0.3404
16464TIP3    H170883   6.086   1.795  13.992  0.8613 -0.8169 -0.7712
16464TIP3    H270884   6.216   1.806  14.069  1.0559  1.0917 -1.3348
16465TIP3   OH270885   2.622   0.925   4.142  0.1187  0.4484 -0.0514
16465TIP3    H170886   2.572   0.992   4.095 -0.5922  0.5569  0.8385
16465TIP3    H270887   2.703   0.917   4.092 -0.4125  0.9005 -1.0185
16466TIP3   OH270888   3.816   0.117   1.512  0.2966  0.2517 -0.5228
16466TIP3    H170889   3.792   0.085   1.599  0.9326  0.3145 -0.3191
16466TIP3    H270890   3.787   0.047   1.452  3.6679 -1.9064  0.0859
16467TIP3   OH270891   2.290   4.784  13.224 -0.5045 -0.4215 -0.1479
16467TIP3    H170892   2.258   4.720  13.289 -2.3211 -0.2744 -0.8392
16467TIP3    H270893   2.295   4.734  13.142  0.1641 -0.1858 -0.2579
16468TIP3   OH270894   3.563   3.650   3.968 -0.0296  0.1883  0.2386
16468TIP3    H170895   3.516   3.602   3.899 -0.0616 -1.2126  1.1888
16468TIP3    H270896   3.655   3.633   3.951 -0.0326 -0.0454  0.4373
16469TIP3   OH270897   5.919   5.893   2.520 -0.4854  0.3356  0.5351
16469TIP3    H170898   5.861   5.837   2.467 -2.6119  3.1131 -0.3302
16469TIP3    H270899   5.890   5.878   2.610 -0.9126 -0.0535  0.3418
16470TIP3   OH270900   3.924   3.125   3.067 -0.1384 -0.2647  0.2592
16470TIP3    H170901   3.990   3.144   3.000 -0.3944 -2.1322 -0.5926
16470TIP3    H270902   3.924   3.030   3.074 -1.1937 -0.1775  1.8494
16471TIP3   OH270903   0.278   4.773   1.889 -0.0933 -0.0839 -0.7318
16471TIP3    H170904   0.207   4.710   1.902  1.2422 -1.7661 -1.2657
16471TIP3    H270905   0.328   4.739   1.815  1.2880  1.0252 -0.3593
16472TIP3   OH270906   1.632   5.480  10.872  0.1380 -0.5444 -0.1909
16472TIP3    H170907   1.718   5.523  10.877  0.6104 -1.0598 -2.5310
16472TIP3    H270908   1.600   5.479  10.962  0.6589  3.5071  0.2218
16473TIP3   OH270909   4.072   5.297  14.204  0.1677  0.1167 -0.3272
16473TIP3    H170910   4.152   5.270  14.160  0.1336  2.3723 -1.8948
16473TIP3    H270911   4.091   5.285  14.297  2.6308  1.3254 -0.6004
16474TIP3   OH270912   4.070   2.521   3.170  0.0089 -0.1019  0.2478
16474TIP3    H170913   4.049   2.502   3.078 -0.4836 -0.6850  0.4742
16474TIP3    H270914   3.995   2.573   3.201  0.2608  0.2521  0.2727
16475TIP3   OH270915   6.168   3.501   1.650 -0.3621  0.5692  0.1160
16475TIP3    H170916   6.166   3.414   1.611  0.5961  0.5570  0.0796
16475TIP3    H270917   6.150   3.561   1.577  0.8649  0.5109 -0.2627
16476TIP3   OH270918   6.422   2.188  14.117 -0.1914  0.3329  0.1594
16476TIP3    H170919   6.405   2.107  14.165  0.3181 -0.4415 -0.9230
16476TIP3    H270920   6.336   2.224  14.097 -0.4454 -0.5773 -0.3988
16477TIP3   OH270921   2.115   3.336  16.244  0.5077  0.1676  0.0883
16477TIP3    H170922   2.145   3.332  16.153 -1.8018  0.9689 -0.7729
16477TIP3    H270923   2.131   3.427  16.270  0.1951  0.2176  0.1121
16478TIP3   OH270924   2.272   5.855  16.213  0.0328 -0.0738  0.3196
16478TIP3    H170925   2.224   5.799  16.151  0.2231  0.6740 -0.5156
16478TIP3    H270926   2.204   5.889  16.271 -0.0641 -1.3157  0.9708
16479TIP3   OH270927   5.129   5.099   4.473  0.0099 -0.2127 -0.8460
16479TIP3    H170928   5.147   5.005   4.475  0.2442 -0.1610  0.0739
16479TIP3    H270929   5.056   5.109   4.413 -1.7574 -1.3074  0.9880
16480TIP3   OH270930   6.165   5.074   1.323  0.1352  0.2194  0.2701
16480TIP3    H170931   6.098   5.015   1.290  1.1599 -2.0285  1.9976
16480TIP3    H270932   6.210   5.105   1.245 -1.2932 -0.1638 -0.7537
16481TIP3   OH270933   0.323   6.167  12.013  0.2409  0.1144  0.3119
16481TIP3    H170934   0.354   6.097  11.955  0.4129  1.0871 -0.8171
16481TIP3    H270935   0.403   6.211  12.042  0.0882  0.9311 -0.4306
16482TIP3   OH270936   6.247   2.985   1.852 -0.4200 -0.7706  0.0089
16482TIP3    H170937   6.179   3.044   1.822 -2.4960 -2.3144  1.4221
16482TIP3    H270938   6.241   2.910   1.793 -1.0131 -1.5651  1.0466
16483TIP3   OH270939   5.054   2.910   2.070 -0.3138  0.0294 -0.6700
16483TIP3    H170940   5.071   2.973   2.140 -1.2866 -2.0367  1.5213
16483TIP3    H270941   5.001   2.959   2.006  0.3608  1.8813  0.1329
16484TIP3   OH270942   2.891   0.073   0.313 -0.0236 -0.7138  0.1301
16484TIP3    H170943   2.940   0.005   0.359  0.0598  0.3238  1.6068
16484TIP3    H270944   2.837   0.024   0.249  0.2775 -2.1279  0.9195
16485TIP3   OH270945   1.699   2.471   4.578 -0.9304  0.7476 -0.2020
16485TIP3    H170946   1.706   2.513   4.492 -1.0824 -2.0495 -1.7103
16485TIP3    H270947   1.777   2.416   4.584 -0.7193  1.1980  1.6822
16486TIP3   OH270948   0.802   3.999   4.760 -0.3311  0.1709 -0.0694
16486TIP3    H170949   0.879   4.049   4.731 -1.3185  2.3219  0.8747
16486TIP3    H270950   0.831   3.955   4.840 -0.1342  1.1895  0.4350
16487TIP3   OH270951   3.357   1.371   1.739  0.1078 -0.2022  0.5729
16487TIP3    H170952   3.342   1.277   1.726 -0.5190 -0.0179 -0.1018
16487TIP3    H270953   3.286   1.399   1.797  0.4057 -0.1764  0.9300
16488TIP3   OH270954   4.519   6.737   4.179  0.1032  0.0200  0.6941
16488TIP3    H170955   4.479   6.753   4.265 -0.9721 -0.4666  0.3019
16488TIP3    H270956   4.465   6.787   4.118  0.1669 -0.5392  0.1674
16489TIP3   OH270957   4.663   3.813  13.432 -0.1837 -0.1397  0.3454
16489TIP3    H170958   4.727   3.749  13.403  1.3271 -0.2777  3.4786
16489TIP3    H270959   4.697   3.897  13.402 -1.5522 -0.5514 -2.7400
16490TIP3   OH270960   0.232   4.211  14.641  0.3752  0.0396 -0.8875
16490TIP3    H170961   0.199   4.143  14.583  0.1527 -1.3217  0.7505
16490TIP3    H270962   0.313   4.175  14.676 -0.6849 -0.2525  1.4271
16491TIP3   OH270963   5.657   3.187   6.694 -0.1006 -0.5718  0.1292
16491TIP3    H170964   5.736   3.201   6.641 -0.4770 -2.3539 -0.9631
16491TIP3    H270965   5.678   3.112   6.749 -1.4716 -1.9293 -1.1354
16492TIP3   OH270966   2.110   3.965  16.072 -0.0323 -0.0812  0.0139
16492TIP3    H170967   2.098   3.870  16.077  0.5846 -0.1547  0.1680
16492TIP3    H270968   2.142   3.981  15.983  0.0698 -0.0351  0.0600
16493TIP3   OH270969   3.976   4.748  14.669  0.2627 -0.6663 -0.1942
16493TIP3    H170970   3.935   4.834  14.678  1.6164 -0.2612  5.2056
16493TIP3    H270971   4.069   4.764  14.685  0.5300 -3.0961  1.1125
16494TIP3   OH270972   2.233   1.147   0.325  0.1449 -0.3642  0.3566
16494TIP3    H170973   2.299   1.162   0.256 -0.3397  0.4098  0.0561
16494TIP3    H270974   2.269   1.190   0.402  0.2552 -0.4343  0.3449
16495TIP3   OH270975   5.871   2.368   4.072  0.4543  0.0947  0.1470
16495TIP3    H170976   5.910   2.323   3.997  1.0474  0.8389 -0.0016
16495TIP3    H270977   5.851   2.456   4.039  0.7199  0.4281  0.8649
16496TIP3   OH270978   4.615   5.946  12.410  0.2772  0.0800  0.0510
16496TIP3    H170979   4.618   6.020  12.470  0.7385  0.3784 -0.3339
16496TIP3    H270980   4.585   5.984  12.327 -0.9145 -0.4286  0.2325
16497TIP3   OH270981   5.766   0.860  11.332  0.0080 -0.4069 -0.2613
16497TIP3    H170982   5.713   0.929  11.292 -0.2761 -0.5917 -0.2000
16497TIP3    H270983   5.715   0.780  11.321 -0.8321 -0.2248  1.8673
16498TIP3   OH270984   5.856   1.152   1.836 -0.5762  0.1837  0.0652
16498TIP3    H170985   5.813   1.236   1.821 -0.1094  0.5376  0.6539
16498TIP3    H270986   5.923   1.170   1.902 -0.5677 -0.6795  0.3143
16499TIP3   OH270987   6.286   2.509  17.174 -0.7613 -0.7275  0.6473
16499TIP3    H170988   6.347   2.576  17.206 -0.6276 -1.3487  1.6993
16499TIP3    H270989   6.200   2.550  17.182 -0.5967 -0.3128  0.3408
16500TIP3   OH270990   6.646   0.020  12.502 -0.2104 -0.0214 -0.1865
16500TIP3    H170991   6.596  -0.013  12.427 -1.3574  0.1772  0.4589
16500TIP3    H270992   6.685   0.102  12.471 -1.7374  0.7396 -0.2102
16501TIP3   OH270993   5.067   1.397  17.188 -0.3819 -0.0753  0.0703
16501TIP3    H170994   4.983   1.404  17.143  0.3621 -2.0904 -1.8279
16501TIP3    H270995   5.084   1.303  17.193  1.6276  0.2648  0.6871
16502TIP3   OH270996   6.360   0.473   0.699 -0.2199 -0.5285 -0.3700
16502TIP3    H170997   6.426   0.499   0.763 -0.6070  0.3834 -0.3295
16502TIP3    H270998   6.319   0.555   0.672  0.2626 -0.8190 -2.1678
16503TIP3   OH270999   1.223   5.780   1.020  0.4656 -0.1245 -0.8012
16503TIP3    H171000   1.226   5.868   0.982  1.5153  0.2939  0.1605
16503TIP3    H271001   1.222   5.721   0.945  0.7887  0.6918 -1.4679
16504TIP3   OH271002   1.039   0.835  13.698  0.0414  0.0902 -0.1909
16504TIP3    H171003   1.060   0.780  13.622  0.0933 -1.8863  1.1945
16504TIP3    H271004   1.115   0.826  13.755 -1.3764 -1.1860  1.5874
16505TIP3   OH271005   6.225   0.622   5.223 -0.2370 -0.5049  0.2117
16505TIP3    H171006   6.182   0.673   5.154  0.4701  2.4110  1.7428
16505TIP3    H271007   6.308   0.668   5.238  0.6923 -2.4504  1.4273
16506TIP3   OH271008   2.728   5.953   1.239 -0.2745  0.5664  0.1695
16506TIP3    H171009   2.644   5.919   1.271  0.8132 -0.3903  2.1542
16506TIP3    H271010   2.722   6.048   1.251 -0.6214  0.3976  1.4909
16507TIP3   OH271011   5.258   3.566  15.447 -0.2049  0.1603 -0.0761
16507TIP3    H171012   5.266   3.544  15.540 -1.2586  0.6739  0.1526
16507TIP3    H271013   5.318   3.640  15.434 -0.0075  0.0447  0.1769
16508TIP3   OH271014   3.411   3.154  11.004  0.4561  0.3852  0.3428
16508TIP3    H171015   3.364   3.152  10.921 -0.5921 -1.0040  0.9330
16508TIP3    H271016   3.439   3.245  11.014 -1.8994  1.2219 -0.1504
16509TIP3   OH271017   3.120   2.571   3.045 -0.2535 -0.2148 -0.2360
16509TIP3    H171018   3.165   2.653   3.027  1.4413 -1.2478 -1.0288
16509TIP3    H271019   3.149   2.547   3.134 -0.1334 -0.3143 -0.3009
16510TIP3   OH271020   5.345   2.102   3.048  0.2497  0.1568 -0.3112
16510TIP3    H171021   5.309   2.034   2.991  1.2767  0.1205 -0.9317
16510TIP3    H271022   5.368   2.055   3.129 -1.1707  0.2034  0.1464
16511TIP3   OH271023   2.618   3.412   3.828 -0.0399 -0.4256 -0.2944
16511TIP3    H171024   2.693   3.372   3.786  0.5931  0.7552 -0.3227
16511TIP3    H271025   2.643   3.503   3.842 -0.1967 -0.7333  2.6489
16512TIP3   OH271026   5.765   1.235  14.747 -0.0177 -0.1326  0.1795
16512TIP3    H171027   5.766   1.151  14.792 -1.0301 -0.2601 -0.0120
16512TIP3    H271028   5.690   1.230  14.688 -0.4239  1.0917  0.5513
16513TIP3   OH271029   1.074   6.703  16.977 -0.0162  0.5983  0.0129
16513TIP3    H171030   1.151   6.718  17.032 -0.0346  1.6213 -0.2190
16513TIP3    H271031   1.000   6.719  17.035 -0.0391  2.1954 -0.3911
16514TIP3   OH271032   4.691   2.245  12.401 -0.5177 -0.2200  0.6289
16514TIP3    H171033   4.618   2.232  12.461  0.0548 -2.4499  0.9214
16514TIP3    H271034   4.745   2.313  12.442 -2.0042  0.9182  0.7695
16515TIP3   OH271035   4.136   2.253   4.828 -0.4169  0.3262  0.1636
16515TIP3    H171036   4.200   2.183   4.816 -0.4888  0.6293 -2.4162
16515TIP3    H271037   4.189   2.329   4.851 -0.0537  0.0992  0.0935
16516TIP3   OH271038   6.367   2.894  11.260  0.0361 -0.0047 -0.4599
16516TIP3    H171039   6.400   2.888  11.170  1.0726 -0.8239 -0.0542
16516TIP3    H271040   6.382   2.985  11.284 -0.2989  0.2364 -1.1305
16517TIP3   OH271041   0.382   5.556   0.434 -0.0114 -0.6080  0.1842
16517TIP3    H171042   0.337   5.571   0.350 -0.0273  0.6206  0.3874
16517TIP3    H271043   0.331   5.607   0.497 -0.6754 -2.4390  1.1837
16518TIP3   OH271044   4.241   3.739   4.628 -0.0977 -0.2838  0.1001
16518TIP3    H171045   4.328   3.706   4.606  0.1397 -1.7383  2.7805
16518TIP3    H271046   4.226   3.709   4.718 -3.0274  0.6535  0.0314
16519TIP3   OH271047   3.102   3.183   4.611  0.3237 -0.4324  0.8541
16519TIP3    H171048   3.011   3.155   4.622  0.0863  0.1904  0.5431
16519TIP3    H271049   3.142   3.115   4.556 -0.2096 -0.2263  0.2016
16520TIP3   OH271050   2.063   0.440  16.517 -0.1233  0.1558  0.1862
16520TIP3    H171051   2.010   0.506  16.471  1.2363  0.8095 -0.5179
16520TIP3    H271052   2.154   0.467  16.500  0.5120 -2.3068 -0.7571
16521TIP3   OH271053   0.818   4.506  13.828 -0.2221 -0.6892 -0.4595
16521TIP3    H171054   0.863   4.431  13.788  1.3755 -0.4910  0.8828
16521TIP3    H271055   0.739   4.516  13.775 -1.2624 -4.2050  0.1291
16522TIP3   OH271056   3.971   4.004  12.602  0.3016 -0.3876  0.0110
16522TIP3    H171057   4.023   3.924  12.590 -0.0133 -0.3645 -1.7828
16522TIP3    H271058   4.036   4.074  12.611  0.5767 -0.6611  0.1744
16523TIP3   OH271059   6.068   5.499   4.574 -0.7475 -0.7196  0.2330
16523TIP3    H171060   6.069   5.553   4.495 -1.8506 -1.8300 -0.5792
16523TIP3    H271061   5.981   5.512   4.612  0.1257  0.6358  1.9187
16524TIP3   OH271062   6.733   1.362  15.300  0.3025 -0.3906  0.4385
16524TIP3    H171063   6.732   1.457  15.295  0.6262 -0.4319 -0.5109
16524TIP3    H271064   6.694   1.333  15.218 -1.3954 -1.0852  1.4181
16525TIP3   OH271065   0.035   3.815  11.443  0.5512 -0.3886  0.1749
16525TIP3    H171066   0.131   3.816  11.435  0.5665  0.7267  0.3801
16525TIP3    H271067   0.006   3.892  11.395 -0.0026  1.0675  2.6369
16526TIP3   OH271068   4.877   6.691   2.523 -0.0800  0.0728  0.0539
16526TIP3    H171069   4.818   6.631   2.478 -1.6455  0.7407  1.1268
16526TIP3    H271070   4.839   6.777   2.509  0.4201  0.4813  1.0829
16527TIP3   OH271071   2.072   2.287   2.946  0.0694 -0.1589  0.0604
16527TIP3    H171072   2.054   2.238   3.026  0.5500  0.2214  0.4147
16527TIP3    H271073   2.081   2.220   2.878 -0.6837 -0.4635  0.2529
16528TIP3   OH271074   6.817   3.430  13.309 -0.3958 -0.3101 -0.5278
16528TIP3    H171075   6.899   3.381  13.316 -0.6112 -0.5842  0.1726
16528TIP3    H271076   6.784   3.408  13.222 -0.9642 -2.1879  0.1138
16529TIP3   OH271077   4.232   2.701  10.228 -0.0499  0.1374  0.1429
16529TIP3    H171078   4.218   2.610  10.202 -0.9184  0.1507  0.5396
16529TIP3    H271079   4.245   2.697  10.323 -1.8743  0.5932  0.4413
16530TIP3   OH271080   0.093   6.631  14.478  0.3735 -0.0421 -0.3076
16530TIP3    H171081   0.058   6.711  14.438 -0.0645  0.2951  0.7272
16530TIP3    H271082   0.025   6.603  14.539 -0.0861 -1.9898 -1.6212
16531TIP3   OH271083   5.289   4.491  11.917  0.0851 -0.2727  0.3774
16531TIP3    H171084   5.204   4.501  11.960  0.6610 -1.8071  1.9876
16531TIP3    H271085   5.282   4.410  11.867  1.1809 -1.4951  2.1154
16532TIP3   OH271086   3.379   0.720  17.175 -0.1320  0.0427  0.0064
16532TIP3    H171087   3.387   0.804  17.220  1.0273  0.4713 -0.9359
16532TIP3    H271088   3.287   0.698  17.183 -0.1831  0.6807  1.5255
16533TIP3   OH271089   3.645   0.920  12.634  0.4549  0.6775  0.1623
16533TIP3    H171090   3.656   0.828  12.659 -1.2347 -0.0229 -1.4195
16533TIP3    H271091   3.632   0.966  12.717 -1.3617 -0.9760  0.8891
16534TIP3   OH271092   1.933   2.650   4.382 -0.4825 -0.5925 -0.1515
16534TIP3    H171093   1.989   2.714   4.339 -2.2209 -0.2492 -2.0740
16534TIP3    H271094   1.847   2.692   4.385 -1.7581 -2.8948 -1.7799
16535TIP3   OH271095   6.682   1.761  16.295 -0.5618  0.0784  0.6465
16535TIP3    H171096   6.700   1.733  16.205  0.1831  0.6893  0.5904
16535TIP3    H271097   6.764   1.800  16.324 -1.1422  0.9130  1.1981
16536TIP3   OH271098   4.019   4.191  15.286  0.4341  0.2171  0.4880
16536TIP3    H171099   3.962   4.114  15.279  0.1803  0.4516 -0.1034
16536TIP3    H271100   3.968   4.262  15.247  0.4227  0.8247  1.5889
16537TIP3   OH271101   4.848   1.850  16.752  0.0758 -0.6767 -0.1730
16537TIP3    H171102   4.775   1.869  16.812  0.4999 -3.0465  1.2599
16537TIP3    H271103   4.810   1.859  16.665 -0.9937  1.3794  0.4299
16538TIP3   OH271104   3.678   5.255   4.983  0.6575  0.2931  0.3697
16538TIP3    H171105   3.683   5.212   4.898  3.0806 -1.0928  1.1059
16538TIP3    H271106   3.598   5.221   5.023  1.7660 -2.6290  0.3687
16539TIP3   OH271107   4.677   6.365   1.647  0.4247  0.2878 -0.4202
16539TIP3    H171108   4.660   6.284   1.694 -2.2632  1.0943  0.1650
16539TIP3    H271109   4.705   6.338   1.560  2.0907 -1.2082  0.5095
16540TIP3   OH271110   0.589   1.184   0.185  0.2846 -0.2944 -0.1204
16540TIP3    H171111   0.509   1.131   0.179  0.0944  0.1103 -1.7113
16540TIP3    H271112   0.607   1.190   0.279 -1.9437  0.1731  0.3294
16541TIP3   OH271113   3.848   3.681  13.041  0.2534 -0.1975 -0.0881
16541TIP3    H171114   3.941   3.675  13.016  0.4412 -1.5859  0.8228
16541TIP3    H271115   3.842   3.761  13.093  0.8959  0.0053 -0.3132
16542TIP3   OH271116   5.898   1.105  11.695  0.0036 -0.0536 -0.1936
16542TIP3    H171117   5.925   1.196  11.688  1.9050 -0.4130  1.3766
16542TIP3    H271118   5.963   1.056  11.645  0.6192 -0.7092  1.1644
16543TIP3   OH271119   0.146   5.838   2.767  0.0939  0.4815  0.3139
16543TIP3    H171120   0.072   5.801   2.718  0.7568 -2.2403  1.1578
16543TIP3    H271121   0.216   5.844   2.702 -0.0926  0.5066  0.1112
16544TIP3   OH271122   3.428   4.007   2.251 -0.1757 -0.1268 -0.5776
16544TIP3    H171123   3.486   4.076   2.283  0.4717 -1.6596  1.7556
16544TIP3    H271124   3.482   3.959   2.188  0.2179 -0.0540 -0.2986
16545TIP3   OH271125   5.716   5.238   6.835 -0.2878 -0.8521 -0.3457
16545TIP3    H171126   5.711   5.332   6.820  0.0534 -0.6026  0.9752
16545TIP3    H271127   5.627   5.206   6.820 -0.3108 -0.4084 -1.2413
16546TIP3   OH271128   4.031   0.458  14.668  0.3751  0.5083  0.1736
16546TIP3    H171129   4.009   0.459  14.575  1.5406  3.1082 -0.1449
16546TIP3    H271130   3.962   0.404  14.708 -1.3451  1.0447 -1.9089
16547TIP3   OH271131   2.424   6.473   3.295  0.5050 -0.1116  0.3467
16547TIP3    H171132   2.518   6.484   3.309  0.1360  1.4771  2.0608
16547TIP3    H271133   2.386   6.555   3.328 -1.4323 -0.4625 -0.8924
16548TIP3   OH271134   0.571   0.679  13.291  0.1906  0.3479 -0.1374
16548TIP3    H171135   0.524   0.761  13.301  0.7448  0.6946 -0.3250
16548TIP3    H271136   0.521   0.616  13.343  0.9538  1.2710  1.8073
16549TIP3   OH271137   6.083   4.213   2.445 -0.2508 -0.1279  0.1031
16549TIP3    H171138   6.092   4.220   2.350 -0.4309  0.2521  0.1164
16549TIP3    H271139   5.990   4.227   2.462 -0.0677  0.7405  0.4216
16550TIP3   OH271140   2.444   5.713  15.750  0.1106  0.4632 -0.1503
16550TIP3    H171141   2.403   5.789  15.792  0.3642  1.2104 -1.2367
16550TIP3    H271142   2.370   5.659  15.722 -0.0789 -0.5292  2.0154
16551TIP3   OH271143   4.120   1.606  10.922 -0.0228 -0.5181 -0.5125
16551TIP3    H171144   4.180   1.607  10.846  0.2537  1.1813 -0.2984
16551TIP3    H271145   4.177   1.620  10.997 -0.7579  2.3888 -0.4022
16552TIP3   OH271146   6.393   5.931  12.216  0.4947  0.2288  0.3854
16552TIP3    H171147   6.320   5.876  12.189 -0.4002  1.2551  0.6672
16552TIP3    H271148   6.419   5.976  12.135  2.3387 -1.7663 -0.2575
16553TIP3   OH271149   6.350   2.423  12.202  0.3092 -0.4091  0.0391
16553TIP3    H171150   6.315   2.449  12.117  0.0945  2.7440  0.9544
16553TIP3    H271151   6.440   2.397  12.185 -0.4224 -2.2084 -1.4169
16554TIP3   OH271152   6.535   1.404  14.095  0.7481 -0.0425  0.0572
16554TIP3    H171153   6.512   1.366  14.010  3.2208 -0.0449 -0.6893
16554TIP3    H271154   6.577   1.333  14.143 -0.1284  0.1188  1.1043
16555TIP3   OH271155   0.768   0.267  16.219 -0.2164 -0.3413  0.2326
16555TIP3    H171156   0.785   0.192  16.162 -0.0002 -0.0128 -0.1408
16555TIP3    H271157   0.855   0.298  16.245 -0.3082 -0.3090  0.4975
16556TIP3   OH271158   6.549   3.664   6.033 -0.0627  0.5918  0.0509
16556TIP3    H171159   6.606   3.603   6.080 -0.3739  0.4182  0.2044
16556TIP3    H271160   6.579   3.659   5.942 -1.5439 -1.5315 -0.3959
16557TIP3   OH271161   2.536   2.939   4.277  0.6715 -0.0802 -0.1823
16557TIP3    H171162   2.585   2.860   4.301  1.4264  0.3903 -0.1554
16557TIP3    H271163   2.447   2.908   4.263  0.9938 -0.9726 -0.3368
16558TIP3   OH271164   5.420   6.160   4.070  0.0219  0.3110  0.0065
16558TIP3    H171165   5.484   6.217   4.113  2.5204 -2.3217  0.1950
16558TIP3    H271166   5.409   6.087   4.131  0.7856 -1.7222 -2.0899
16559TIP3   OH271167   2.536   3.959   2.810  0.3028  0.2452  0.7896
16559TIP3    H171168   2.483   3.936   2.734  0.4276 -1.1416  1.1034
16559TIP3    H271169   2.621   3.919   2.793  0.1927 -0.4602  1.8573
16560TIP3   OH271170   4.603   4.554   5.904  0.4897  0.1836  0.0897
16560TIP3    H171171   4.656   4.572   5.981 -2.0387 -0.2186  2.0906
16560TIP3    H271172   4.525   4.509   5.939 -0.2049 -1.1773 -2.8675
16561TIP3   OH271173   4.412   6.754  14.027  0.2178 -0.4060 -0.1639
16561TIP3    H171174   4.394   6.801  14.108  1.1528 -2.6703  1.4429
16561TIP3    H271175   4.507   6.755  14.018  0.1107  0.6932 -1.8706
16562TIP3   OH271176   5.166   1.727  14.302  0.0126 -0.3477  0.2484
16562TIP3    H171177   5.189   1.765  14.387  1.3785  0.9930 -0.6577
16562TIP3    H271178   5.237   1.665  14.283  0.8361  0.8385 -0.7634
16563TIP3   OH271179   6.045   5.678  11.672  0.2404 -0.1299  0.1052
16563TIP3    H171180   6.058   5.716  11.585 -1.5489  1.1072  0.3164
16563TIP3    H271181   6.111   5.720  11.727  0.8346 -0.2927 -0.4737
16564TIP3   OH271182   2.903   6.168  15.393 -0.2806  0.0471  0.0978
16564TIP3    H171183   2.990   6.202  15.373 -1.2791  3.6243  1.2561
16564TIP3    H271184   2.915   6.116  15.473  1.0225 -1.0081 -0.7497
16565TIP3   OH271185   0.743   2.555  13.350  0.7114 -0.2134  0.0421
16565TIP3    H171186   0.675   2.509  13.399  0.2539  0.2069 -0.1826
16565TIP3    H271187   0.705   2.568  13.263  1.3315 -0.5327 -0.2822
16566TIP3   OH271188   1.794   5.312  15.370  0.5188  0.8395 -0.1953
16566TIP3    H171189   1.730   5.377  15.341 -0.1279 -0.1178 -1.0135
16566TIP3    H271190   1.747   5.258  15.433  0.3162 -0.1777 -1.1710
16567TIP3   OH271191   3.756   3.655   3.128 -0.2923  0.4079 -0.4304
16567TIP3    H171192   3.797   3.609   3.202 -1.3294  0.9415  0.4906
16567TIP3    H271193   3.821   3.721   3.103  0.5602 -0.5195 -0.7785
16568TIP3   OH271194   0.705   5.176   4.867 -0.1364 -0.0831  0.1814
16568TIP3    H171195   0.782   5.217   4.828  0.7670 -0.5546  1.3912
16568TIP3    H271196   0.646   5.159   4.793  0.7251  0.7001 -0.7055
16569TIP3   OH271197   4.434   3.568   2.044 -0.4207  0.4466  0.3090
16569TIP3    H171198   4.404   3.643   2.095 -0.7300  0.7511 -0.3067
16569TIP3    H271199   4.406   3.491   2.094  1.0207  0.7185  1.6084
16570TIP3   OH271200   2.610   0.922  15.592 -0.2917 -0.0106 -0.3672
16570TIP3    H171201   2.554   0.844  15.588  0.1733 -0.2943 -2.1743
16570TIP3    H271202   2.580   0.969  15.669 -2.6406 -0.4593 -0.9274
16571TIP3   OH271203   6.189   0.725  14.545 -0.0929 -0.2919 -0.1447
16571TIP3    H171204   6.254   0.752  14.610  0.9976  0.4752 -1.4965
16571TIP3    H271205   6.122   0.794  14.548 -0.0323 -0.2470  0.1558
16572TIP3   OH271206   2.633   0.094   3.454  0.1311  0.1936  0.6622
16572TIP3    H171207   2.626   0.124   3.363 -1.2110 -1.4231  0.1625
16572TIP3    H271208   2.551   0.122   3.495 -0.7018 -1.6964  0.4492
16573TIP3   OH271209   3.040   5.391  15.120 -0.6341 -0.3285 -0.3570
16573TIP3    H171210   2.948   5.419  15.115 -0.0823  1.9973  0.8082
16573TIP3    H271211   3.089   5.473  15.131  1.6475 -1.4648 -1.4467
16574TIP3   OH271212   1.465   5.138  16.966 -0.1178  0.2887 -0.2186
16574TIP3    H171213   1.401   5.148  17.037  0.3818 -0.4709  0.3601
16574TIP3    H271214   1.420   5.084  16.901 -1.1159  2.1999 -1.1973
16575TIP3   OH271215   5.083   2.090  16.701 -0.8546  0.0635  0.0247
16575TIP3    H171216   5.048   2.014  16.653 -0.7690 -0.7280  1.1658
16575TIP3    H271217   5.108   2.152  16.632  1.4363 -1.9275 -1.1116
16576TIP3   OH271218   5.495   1.795   6.570 -0.6187  0.2030 -0.2020
16576TIP3    H171219   5.510   1.703   6.593 -0.1330  0.1981 -0.5303
16576TIP3    H271220   5.402   1.809   6.588 -0.5942 -0.2248  0.2962
16577TIP3   OH271221   1.135   4.483  13.266 -0.1613 -0.1242  0.0098
16577TIP3    H171222   1.186   4.471  13.185  0.2080  0.9109  0.0729
16577TIP3    H271223   1.155   4.406  13.318 -1.4314 -1.4801 -1.4024
16578TIP3   OH271224   4.182   4.044  13.064  0.3633 -0.3593  0.5984
16578TIP3    H171225   4.244   3.971  13.073  1.8235  0.4371 -1.9162
16578TIP3    H271226   4.166   4.050  12.970 -1.0015  1.5687  0.8986
16579TIP3   OH271227   1.292   4.402   2.923  0.2952 -0.7804  0.3576
16579TIP3    H171228   1.355   4.408   2.850  1.2739  0.1871  1.2421
16579TIP3    H271229   1.335   4.344   2.986  0.0770 -0.4965  0.7654
16580TIP3   OH271230   5.995   5.237   3.037  0.0497 -0.0540  0.1262
16580TIP3    H171231   5.970   5.147   3.014 -1.1660 -0.0916  1.4592
16580TIP3    H271232   6.077   5.251   2.990 -0.1418 -1.5743 -0.7570
16581TIP3   OH271233   5.862   1.068   2.186  0.2120 -0.5278 -0.3714
16581TIP3    H171234   5.921   1.121   2.133 -0.3418 -1.0940 -1.6008
16581TIP3    H271235   5.885   1.089   2.277 -0.6167  2.5058 -0.7627
16582TIP3   OH271236   1.961   6.671  17.152  0.5511 -0.2111 -0.3988
16582TIP3    H171237   1.985   6.654  17.244 -0.3410 -0.3312 -0.1802
16582TIP3    H271238   1.868   6.648  17.147  0.6273 -0.3266 -1.3716
16583TIP3   OH271239   2.784   2.884   0.413  0.4146 -0.4074  0.4350
16583TIP3    H171240   2.788   2.979   0.417 -1.5732 -0.2859  0.4517
16583TIP3    H271241   2.772   2.857   0.504 -2.3925 -0.3991  0.1524
16584TIP3   OH271242   6.115   4.262   0.081 -0.1806  0.4092 -0.3223
16584TIP3    H171243   6.169   4.192   0.119  1.1841  1.1860 -0.7349
16584TIP3    H271244   6.174   4.337   0.076 -1.6663  1.6626  0.2761
16585TIP3   OH271245   4.813   3.145  16.336  0.4355 -0.8468  0.1908
16585TIP3    H171246   4.851   3.106  16.257  0.5642  2.1290 -1.3571
16585TIP3    H271247   4.719   3.134  16.325  0.4763 -0.8766 -0.1361
16586TIP3   OH271248   3.313   6.755   2.384 -0.0906 -0.3860  0.4647
16586TIP3    H171249   3.375   6.824   2.409  0.0604 -0.4235  0.2089
16586TIP3    H271250   3.332   6.740   2.291 -1.7386  0.8925 -0.1232
16587TIP3   OH271251   1.113   1.266   3.294  0.2262 -0.5878  0.5697
16587TIP3    H171252   1.051   1.223   3.235 -0.2803  1.4981 -0.5185
16587TIP3    H271253   1.198   1.232   3.269  0.0412  0.3273 -1.5286
16588TIP3   OH271254   6.411   0.716   6.015  0.2699  0.1211 -0.1813
16588TIP3    H171255   6.366   0.632   6.016  0.3142  0.0989  0.8521
16588TIP3    H271256   6.366   0.768   6.081 -0.6792  1.4269 -1.7746
16589TIP3   OH271257   2.401   1.040  15.044 -0.0357  0.6322  0.0404
16589TIP3    H171258   2.350   0.969  15.083 -1.4398  0.8050 -1.3922
16589TIP3    H271259   2.395   1.111  15.107 -1.7590  0.7014 -0.1440
16590TIP3   OH271260   5.578   0.108   0.102 -0.2823  0.5728 -0.0617
16590TIP3    H171261   5.515   0.037   0.112  0.5455 -0.5832 -2.3693
16590TIP3    H271262   5.560   0.144   0.015  1.2266  1.2637 -0.1218
16591TIP3   OH271263   0.746   0.034   5.310 -0.3388 -0.4336 -0.4339
16591TIP3    H171264   0.804   0.109   5.323 -0.5846 -0.1548 -0.9399
16591TIP3    H271265   0.790  -0.038   5.356 -0.7856  0.3293  1.2894
16592TIP3   OH271266   3.040   0.364   3.407  0.2093 -0.4455  0.0940
16592TIP3    H171267   3.134   0.357   3.423  0.0343 -0.0328  1.4725
16592TIP3    H271268   3.012   0.274   3.394  0.4605 -0.8373  1.9596
16593TIP3   OH271269   2.179   0.921  15.197 -0.2744  0.4946 -0.4038
16593TIP3    H171270   2.108   0.925  15.132 -1.2514  0.6285  0.6487
16593TIP3    H271271   2.135   0.925  15.282  1.0540  1.8312  0.2819
16594TIP3   OH271272   5.574   6.428  13.085  0.4134 -0.3295  0.6590
16594TIP3    H171273   5.556   6.343  13.046  0.3099 -0.4636  0.9965
16594TIP3    H271274   5.669   6.433  13.089  0.4174 -0.4678  0.7246
16595TIP3   OH271275   1.802   3.533   4.947  0.1419  0.3469 -0.8794
16595TIP3    H171276   1.860   3.562   5.017  0.5109 -1.0828 -0.5614
16595TIP3    H271277   1.713   3.544   4.982  0.3262 -0.5214 -0.1009
16596TIP3   OH271278   2.309   1.517   3.901 -0.4236  0.0004 -0.1082
16596TIP3    H171279   2.243   1.583   3.877  0.3194  1.2945  1.2180
16596TIP3    H271280   2.374   1.521   3.831 -0.8484 -0.0129 -0.5109
16597TIP3   OH271281   5.476   3.371  15.046 -0.0741  0.1878  0.1926
16597TIP3    H171282   5.398   3.358  15.101  0.3872  0.4011  0.9192
16597TIP3    H271283   5.450   3.438  14.982 -0.4717  0.2950  0.4610
16598TIP3   OH271284   4.904   4.692  15.163 -0.2718 -0.3574  0.0609
16598TIP3    H171285   4.992   4.720  15.138 -0.6346 -0.0358 -0.9024
16598TIP3    H271286   4.910   4.597  15.171  0.0028 -0.4153 -0.7207
16599TIP3   OH271287   6.001   2.199  12.162  0.2181  0.1377  0.3912
16599TIP3    H171288   6.039   2.145  12.232 -0.0726  0.1936  0.5936
16599TIP3    H271289   5.913   2.220  12.193  0.0815  0.1508 -0.0001
16600TIP3   OH271290   0.845   2.738   1.556 -0.0199  0.5299  0.0705
16600TIP3    H171291   0.846   2.797   1.631  0.8697  1.0383 -0.3183
16600TIP3    H271292   0.781   2.776   1.496  0.2829  0.9112 -0.0176
16601TIP3   OH271293   3.709   6.126   1.534 -0.1328 -0.3164 -0.0851
16601TIP3    H171294   3.780   6.079   1.490 -0.6042  0.6296 -1.9775
16601TIP3    H271295   3.658   6.057   1.576 -0.3014 -1.4751 -2.0195
16602TIP3   OH271296   5.655   4.229   0.484 -0.4935 -0.5070 -0.6389
16602TIP3    H171297   5.664   4.157   0.422  0.0601  0.0916 -1.2802
16602TIP3    H271298   5.735   4.227   0.535 -0.9718 -1.0317  0.1173
16603TIP3   OH271299   2.075   4.939  13.392  0.1084 -0.2277 -0.1178
16603TIP3    H171300   2.000   4.883  13.412 -0.6215  1.4844  2.4521
16603TIP3    H271301   2.125   4.890  13.327 -1.2942 -3.1354  0.8178
16604TIP3   OH271302   4.001   5.793  17.110 -0.4207  0.1454 -0.5300
16604TIP3    H171303   3.995   5.825  17.200  1.5764 -1.0004  0.0960
16604TIP3    H271304   3.982   5.699  17.117 -1.3288  0.2449 -1.5037
16605TIP3   OH271305   1.566   2.122   6.167  0.0801 -0.2702  0.2574
16605TIP3    H171306   1.558   2.214   6.141 -1.1367 -0.9069 -1.8004
16605TIP3    H271307   1.484   2.102   6.211  0.2715 -0.4435  0.5430
16606TIP3   OH271308   4.513   4.433  14.284 -0.5105  0.3475 -0.5017
16606TIP3    H171309   4.516   4.404  14.193  1.2323 -1.9627  0.2060
16606TIP3    H271310   4.571   4.509  14.287  1.7332 -1.2394 -0.8813
16607TIP3   OH271311   1.275   5.429   5.899  0.5985  0.2980  0.5323
16607TIP3    H171312   1.278   5.355   5.959  0.7419  0.6229  0.9337
16607TIP3    H271313   1.266   5.505   5.956  0.7364  0.6126  0.1397
16608TIP3   OH271314   0.357   3.725  15.949 -0.2085  0.4950  0.2827
16608TIP3    H171315   0.342   3.632  15.963  0.1297  0.5083  0.7659
16608TIP3    H271316   0.323   3.767  16.028 -0.3226  0.7748  0.0860
16609TIP3   OH271317   3.643   6.656   2.149  0.2608 -0.0296  0.4767
16609TIP3    H171318   3.554   6.619   2.146  0.1399  0.2880 -2.6187
16609TIP3    H271319   3.629   6.751   2.154  0.4496 -0.0063  0.5736
16610TIP3   OH271320   1.678   0.064  10.096 -0.2765 -0.2107 -0.3755
16610TIP3    H171321   1.740   0.133  10.120  0.6609 -1.0135 -0.3746
16610TIP3    H271322   1.596   0.089  10.138  0.1025  0.7742 -0.1923
16611TIP3   OH271323   5.974   0.053  16.920 -0.0012 -0.6349  0.4295
16611TIP3    H171324   6.036   0.043  16.848  2.2940 -2.1778  2.4753
16611TIP3    H271325   6.027   0.086  16.992 -2.3728  1.6057  1.2852
16612TIP3   OH271326   6.004   0.648   1.209 -0.5239 -0.0551  0.6779
16612TIP3    H171327   5.972   0.645   1.299 -1.4889 -0.0927  0.3501
16612TIP3    H271328   5.937   0.602   1.159  0.1630 -0.3087 -0.0174
16613TIP3   OH271329   1.362   4.505  16.120 -0.2376 -0.5137 -0.4963
16613TIP3    H171330   1.414   4.480  16.044  1.2893  2.2800 -0.5143
16613TIP3    H271331   1.284   4.546  16.084  0.6787  1.1913 -0.6613
16614TIP3   OH271332   1.572   3.078  16.499  0.2117  0.3098  0.2914
16614TIP3    H171333   1.604   3.059  16.411 -3.2100  0.8225 -1.2322
16614TIP3    H271334   1.590   3.171  16.512 -2.3902  1.1852 -1.5112
16615TIP3   OH271335   3.648   6.641  13.555  0.5149 -0.5868 -0.0447
16615TIP3    H171336   3.710   6.603  13.494  1.6074  2.3408 -0.9175
16615TIP3    H271337   3.567   6.592  13.541  1.5027 -1.8286 -1.7893
16616TIP3   OH271338   5.459   1.155   4.167 -0.0026 -0.7107 -0.3997
16616TIP3    H171339   5.421   1.150   4.255  0.0954 -0.9654 -0.3706
16616TIP3    H271340   5.417   1.231   4.127 -1.4245 -1.6731 -0.7857
16617TIP3   OH271341   0.233   5.228   6.251  0.0068 -0.5893 -0.3283
16617TIP3    H171342   0.261   5.207   6.340 -0.0255  0.5824 -0.0251
16617TIP3    H271343   0.223   5.142   6.209 -3.7514 -1.4649  1.8999
16618TIP3   OH271344   2.454   0.591   0.190 -0.5737 -0.1502 -0.5280
16618TIP3    H171345   2.534   0.605   0.241 -0.2358  0.6899 -1.2635
16618TIP3    H271346   2.437   0.676   0.148 -1.5828 -0.4564 -0.7605
16619TIP3   OH271347   3.300   3.594   6.326  0.0201 -0.5788  0.3279
16619TIP3    H171348   3.215   3.561   6.357 -0.9464 -1.1886 -2.5904
16619TIP3    H271349   3.364   3.531   6.360 -0.6130  0.0162  2.7692
16620TIP3   OH271350   6.610   2.169  14.399  0.1580 -0.3982  0.2328
16620TIP3    H171351   6.661   2.228  14.455  0.8086 -0.8067  0.0848
16620TIP3    H271352   6.533   2.147  14.451  0.6998 -0.6836  0.9328
16621TIP3   OH271353   5.389   3.105   2.696 -0.3030  0.3298 -0.2513
16621TIP3    H171354   5.352   3.149   2.619 -0.1531 -0.4595 -0.7819
16621TIP3    H271355   5.465   3.058   2.662 -2.0684 -2.7107 -0.3079
16622TIP3   OH271356   1.620   6.013  13.917 -1.2488  0.1291 -0.7434
16622TIP3    H171357   1.674   6.053  13.849  0.2845 -0.5115  0.0417
16622TIP3    H271358   1.662   5.928  13.933 -1.7624  0.1494  0.7850
16623TIP3   OH271359   1.280   5.355  12.520  0.4517 -0.3200 -0.1016
16623TIP3    H171360   1.305   5.441  12.551 -0.2618 -0.1687  0.0822
16623TIP3    H271361   1.286   5.298  12.597  0.0381 -0.2389 -0.0066
16624TIP3   OH271362   3.095   0.764   4.050 -0.2846 -0.5026 -0.2667
16624TIP3    H171363   3.178   0.773   4.003  1.2964  2.0431  2.6768
16624TIP3    H271364   3.110   0.693   4.112 -1.0759 -1.3712 -1.0342
16625TIP3   OH271365   0.408   2.764   0.554 -0.3776 -0.1985  0.1344
16625TIP3    H171366   0.393   2.772   0.460  0.4494 -0.3865 -0.0178
16625TIP3    H271367   0.341   2.819   0.594  1.2006  2.5026 -0.6701
16626TIP3   OH271368   1.950   0.329   4.306 -0.0625  0.1207 -0.1055
16626TIP3    H171369   1.909   0.257   4.354  0.3123 -0.3327 -0.4714
16626TIP3    H271370   1.928   0.407   4.358  2.1600 -0.5671  2.0742
16627TIP3   OH271371   5.644   3.745  14.379 -0.3272 -0.3380 -0.8020
16627TIP3    H171372   5.627   3.811  14.312  1.1113 -0.0080 -0.8817
16627TIP3    H271373   5.720   3.696  14.346  1.1406  0.5373  1.0427
16628TIP3   OH271374   4.386   0.465   0.217 -0.1899  0.4742 -0.0443
16628TIP3    H171375   4.466   0.435   0.173  0.7438  3.6305 -0.8074
16628TIP3    H271376   4.331   0.496   0.145 -0.5971  1.4984  0.6928
16629TIP3   OH271377   2.351   5.481   2.981  0.4836 -0.0504  0.5942
16629TIP3    H171378   2.445   5.495   2.972  0.2391  0.7955 -1.0307
16629TIP3    H271379   2.311   5.537   2.914 -1.0701 -1.6884  0.0559
16630TIP3   OH271380   3.656   4.475   5.114  0.3486  0.1470  0.5584
16630TIP3    H171381   3.708   4.513   5.043  2.1625 -0.4080  1.5508
16630TIP3    H271382   3.718   4.461   5.185 -1.1088 -0.8344  1.6891
16631TIP3   OH271383   1.263   3.148  16.362  1.1755  0.0059 -0.1298
16631TIP3    H171384   1.337   3.156  16.301  3.4771  0.5317  2.5198
16631TIP3    H271385   1.215   3.230  16.352  1.7290  0.2472 -0.9582
16632TIP3   OH271386   6.242   0.801   0.978 -0.9551  0.0796  0.3812
16632TIP3    H171387   6.147   0.789   0.980 -1.0569  0.2282 -1.4115
16632TIP3    H271388   6.259   0.878   1.032 -2.0431  0.9191 -0.4346
16633TIP3   OH271389   1.926   5.966   1.836 -0.5254  0.8125  0.4704
16633TIP3    H171390   1.999   5.920   1.794 -2.4404 -1.0269 -1.0746
16633TIP3    H271391   1.919   6.049   1.789 -0.9177 -0.0505 -1.0435
16634TIP3   OH271392   6.651   6.421  14.023  0.2964  0.1285 -0.3252
16634TIP3    H171393   6.639   6.347  14.083 -1.9466 -0.3378 -1.2423
16634TIP3    H271394   6.563   6.438  13.989  1.2458  1.3623 -2.3230
16635TIP3   OH271395   3.912   0.643   2.795  0.2297  0.2963 -0.1426
16635TIP3    H171396   3.978   0.614   2.733  0.8776  2.0827 -0.3247
16635TIP3    H271397   3.858   0.705   2.746  0.1923  1.0337  0.7995
16636TIP3   OH271398   0.471   6.043   3.331  0.2667 -0.1979 -0.6910
16636TIP3    H171399   0.531   6.065   3.402 -2.2484 -0.2677  1.6180
16636TIP3    H271400   0.510   5.966   3.290  1.0616 -1.0964  1.6130
16637TIP3   OH271401   2.357   2.355   3.652  0.1953 -0.6783 -0.1955
16637TIP3    H171402   2.367   2.377   3.559 -0.7715 -0.5452 -0.2839
16637TIP3    H271403   2.416   2.280   3.665 -0.3393 -1.2973 -1.1485
16638TIP3   OH271404   2.117   2.989   1.150 -0.4614 -0.4232  0.1328
16638TIP3    H171405   2.156   2.906   1.124 -1.8472 -1.1806  0.4054
16638TIP3    H271406   2.023   2.976   1.139 -0.7173  1.0455  0.3801
16639TIP3   OH271407   1.423   0.314  16.052  0.1863  0.2975 -0.3050
16639TIP3    H171408   1.399   0.268  15.971  1.1633 -0.6195 -0.1022
16639TIP3    H271409   1.360   0.282  16.117 -0.6072  1.0439 -0.6814
16640TIP3   OH271410   6.434   5.743  15.276  0.2006 -0.7674 -0.1839
16640TIP3    H171411   6.496   5.671  15.291  1.1458  0.0409 -0.0997
16640TIP3    H271412   6.360   5.723  15.332  1.3303 -0.6235  1.4379
16641TIP3   OH271413   0.889   3.727  13.966 -0.2260  0.6014  0.1736
16641TIP3    H171414   0.973   3.772  13.962  0.7962 -1.2005  0.4254
16641TIP3    H271415   0.909   3.636  13.943 -1.7330 -0.3223  2.1945
16642TIP3   OH271416   2.559   5.260  12.022  0.2300  0.1927 -0.2114
16642TIP3    H171417   2.652   5.256  12.000  0.0743  0.8875 -1.0355
16642TIP3    H271418   2.526   5.172  12.001  0.8976 -0.4014  1.1073
16643TIP3   OH271419   0.041   3.602   6.191 -0.1494  0.0462  0.5858
16643TIP3    H171420   0.051   3.669   6.259  0.4801  2.5701 -1.7825
16643TIP3    H271421  -0.045   3.563   6.208 -0.0296  0.5964  2.7505
16644TIP3   OH271422   3.138   5.478   2.130 -0.1647  0.0202 -0.3950
16644TIP3    H171423   3.133   5.383   2.135  0.2750 -0.1733 -2.6227
16644TIP3    H271424   3.150   5.497   2.037  1.1694  2.1972  0.1357
16645TIP3   OH271425   3.422   5.100  11.635 -0.0341  0.0636 -0.1147
16645TIP3    H171426   3.475   5.177  11.652 -1.1794  0.8413  0.0513
16645TIP3    H271427   3.349   5.132  11.581 -1.2944 -0.5906  1.1315
16646TIP3   OH271428   3.871   5.714  12.617  0.4951 -0.3583 -0.0322
16646TIP3    H171429   3.812   5.725  12.691  1.7191 -3.2963  1.5283
16646TIP3    H271430   3.822   5.749  12.542 -1.5725  0.8991  1.7776
16647TIP3   OH271431   2.969   5.217  12.611  0.1791 -0.4071 -0.1128
16647TIP3    H171432   2.954   5.272  12.534  0.0126  0.0243  0.2221
16647TIP3    H271433   2.991   5.279  12.681  3.1612 -0.9071 -0.4496
16648TIP3   OH271434   4.942   3.768  12.830 -0.4619  0.0707  0.2131
16648TIP3    H171435   4.925   3.781  12.737 -1.9357 -1.2176  0.2586
16648TIP3    H271436   4.918   3.851  12.871 -0.2543  0.4872 -0.4953
16649TIP3   OH271437   4.833   6.325  10.638  0.6071  0.6093  0.3222
16649TIP3    H171438   4.751   6.355  10.679 -0.2863 -1.8671  0.5862
16649TIP3    H271439   4.824   6.348  10.546 -1.0712 -0.7840  0.0814
16650TIP3   OH271440   5.011   6.135  14.097 -0.9146  0.8085 -0.3099
16650TIP3    H171441   5.106   6.132  14.097 -0.8699  0.4370  2.1869
16650TIP3    H271442   4.989   6.227  14.085 -0.3060  0.7976 -1.7203
16651TIP3   OH271443   1.633   1.173  16.800  0.1220  0.2585 -0.0802
16651TIP3    H171444   1.579   1.249  16.779 -0.3154 -0.0811 -0.1887
16651TIP3    H271445   1.579   1.119  16.858 -0.2016 -0.7531 -1.2677
16652TIP3   OH271446   6.034   3.402   4.459  0.7777  0.0830 -0.2624
16652TIP3    H171447   6.011   3.381   4.369 -2.3693  0.5540  0.2872
16652TIP3    H271448   5.963   3.365   4.511  1.3477  1.6702  1.8123
16653TIP3   OH271449   5.623   0.446  12.939 -0.5599 -0.1048 -0.3804
16653TIP3    H171450   5.700   0.503  12.938 -0.7434  0.1430 -0.1439
16653TIP3    H271451   5.627   0.402  13.024 -0.9602  0.2811 -0.1651
16654TIP3   OH271452   0.846   4.195  16.929  0.3024  0.3365 -0.7055
16654TIP3    H171453   0.824   4.282  16.897 -0.2468  0.2546 -0.5650
16654TIP3    H271454   0.926   4.208  16.980  0.8000  0.5779 -1.5282
16655TIP3   OH271455   3.643   4.625  12.565 -0.1215  0.1081  0.3690
16655TIP3    H171456   3.641   4.610  12.660  0.0753  1.6113  0.6410
16655TIP3    H271457   3.630   4.539  12.527  1.1157 -0.7462  1.7556
16656TIP3   OH271458   5.997   1.467   0.822 -0.4929 -0.3701 -0.2986
16656TIP3    H171459   5.960   1.469   0.734 -0.1807 -0.2084 -0.4279
16656TIP3    H271460   6.041   1.551   0.832  3.8672 -2.1394 -1.9294
16657TIP3   OH271461   1.988   4.959  14.696 -0.2885 -0.1573 -0.0654
16657TIP3    H171462   1.933   4.882  14.713  0.8329 -0.5911  1.9886
16657TIP3    H271463   1.960   5.023  14.761 -0.2764  0.6752 -0.8675
16658TIP3   OH271464   6.039   5.097   1.027 -0.0373 -0.1681  0.0154
16658TIP3    H171465   5.996   5.051   1.098 -0.7983  1.0380  0.3739
16658TIP3    H271466   6.044   5.188   1.057  0.6081  0.1589 -1.0254
16659TIP3   OH271467   3.980   4.775  16.553 -0.3109 -0.7929  0.6757
16659TIP3    H171468   3.968   4.735  16.638 -1.2877 -1.1075  0.4067
16659TIP3    H271469   4.050   4.839  16.566  0.9559 -2.2406  1.2169
16660TIP3   OH271470   5.134   2.349  11.764 -0.5028  0.0575  0.6176
16660TIP3    H171471   5.208   2.291  11.745 -1.9844 -1.5385 -0.5823
16660TIP3    H271472   5.170   2.416  11.822  1.1708 -2.4884  2.7538
16661TIP3   OH271473   2.942   3.006  16.583 -0.4213  0.0927 -0.4019
16661TIP3    H171474   2.901   2.920  16.589  0.8670 -0.4660  1.0995
16661TIP3    H271475   2.934   3.042  16.671  2.3338 -0.1082  0.0212
16662TIP3   OH271476   1.651   0.337  11.278 -0.4813  0.1360 -0.4851
16662TIP3    H171477   1.614   0.248  11.282  1.2319 -0.6474 -1.0467
16662TIP3    H271478   1.582   0.393  11.313 -0.3331 -1.7643  3.3515
16663TIP3   OH271479   4.682   5.289   3.019  0.8445  0.1527 -0.4756
16663TIP3    H171480   4.774   5.311   3.033  1.1341  0.6171 -2.6945
16663TIP3    H271481   4.634   5.370   3.039  0.8945 -0.1118  0.7527
16664TIP3   OH271482   3.913   5.555   0.557  0.0030 -0.4486 -0.4197
16664TIP3    H171483   3.892   5.576   0.648  1.5588 -0.8692  0.0618
16664TIP3    H271484   3.979   5.487   0.563 -1.9881 -2.6438 -1.9217
16665TIP3   OH271485   6.114   2.775  16.025 -0.4561 -0.4195 -0.2599
16665TIP3    H171486   6.129   2.684  16.051  1.7931 -0.2217 -0.6685
16665TIP3    H271487   6.191   2.797  15.972 -0.4637  2.0247  0.6589
16666TIP3   OH271488   6.331   5.082   1.080  0.2338  1.2798 -1.2203
16666TIP3    H171489   6.398   5.103   1.014 -1.0023  0.7089 -2.7105
16666TIP3    H271490   6.248   5.100   1.037 -0.7106 -1.2383 -0.6284
16667TIP3   OH271491   3.374   2.174  11.278 -0.2334  0.0972 -0.3632
16667TIP3    H171492   3.388   2.123  11.198 -0.6553  0.8054 -0.8979
16667TIP3    H271493   3.281   2.198  11.276 -0.0642  0.8165 -0.0757
16668TIP3   OH271494   3.725   3.450  16.838  0.0588  0.3590  0.1912
16668TIP3    H171495   3.731   3.388  16.911  0.3789 -0.9004 -0.8518
16668TIP3    H271496   3.632   3.465  16.826 -0.0764 -0.5640 -0.0260
16669TIP3   OH271497   5.316   6.055  11.697  0.3412  0.0791 -0.2860
16669TIP3    H171498   5.387   6.089  11.750 -0.8400 -0.0351  1.4471
16669TIP3    H271499   5.245   6.118  11.708 -0.2708 -0.4780 -0.9230
16670TIP3   OH271500   4.959   5.645  13.162  0.2455  0.2835 -0.1069
16670TIP3    H171501   4.869   5.643  13.130 -0.3076 -1.5839  1.3691
16670TIP3    H271502   4.977   5.738  13.176 -0.7808  0.8397 -2.1046
16671TIP3   OH271503   1.697   1.201  16.078  0.0283  0.4606 -0.1491
16671TIP3    H171504   1.647   1.239  16.151 -1.7365  0.5799 -1.3547
16671TIP3    H271505   1.746   1.129  16.118 -0.0651  1.1725  1.3411
16672TIP3   OH271506   2.543   2.852   1.940  0.2143 -0.1122 -0.2825
16672TIP3    H171507   2.466   2.844   1.996  0.4668 -1.0685 -0.0519
16672TIP3    H271508   2.535   2.779   1.878  2.1140 -1.7384  1.2339
16673TIP3   OH271509   4.971   0.723  11.430 -0.6075  0.5591 -0.6993
16673TIP3    H171510   4.922   0.705  11.349 -0.1681  1.6100 -1.2085
16673TIP3    H271511   4.946   0.812  11.454  0.0049  0.5989 -0.1966
16674TIP3   OH271512   0.948   4.669   2.693  0.0463  0.5582 -0.1309
16674TIP3    H171513   0.981   4.637   2.609  1.8545  0.9604  0.3816
16674TIP3    H271514   0.856   4.642   2.695  0.4538 -1.0594 -1.4286
16675TIP3   OH271515   0.631   4.807   0.835  0.0983  0.0629  0.2033
16675TIP3    H171516   0.682   4.772   0.907 -2.5916 -1.1144  1.6829
16675TIP3    H271517   0.645   4.901   0.839  0.6219 -0.0560  1.7793
16676TIP3   OH271518   2.116   4.439   3.502  0.0608  0.2604 -0.0837
16676TIP3    H171519   2.078   4.384   3.571 -0.0464  0.5148  0.0602
16676TIP3    H271520   2.109   4.385   3.422 -1.3445  0.5959 -0.2220
16677TIP3   OH271521   0.832   6.697  14.015  0.3110  0.0166  0.4083
16677TIP3    H171522   0.879   6.766  13.969 -0.2821  0.4523  0.4406
16677TIP3    H271523   0.840   6.620  13.958 -0.0468  0.4342 -0.2229
16678TIP3   OH271524   0.692   1.947   3.623 -0.1749 -0.1271 -0.4312
16678TIP3    H171525   0.685   2.042   3.618 -1.8107 -0.1317  0.8720
16678TIP3    H271526   0.630   1.922   3.692  0.2167 -2.1389 -0.7460
16679TIP3   OH271527   1.074   3.107   2.511 -0.7052  0.2592 -0.1025
16679TIP3    H171528   1.158   3.144   2.538 -1.0950  0.8745  0.3137
16679TIP3    H271529   1.059   3.143   2.423 -0.9527  0.8927  0.1898
16680TIP3   OH271530   4.312   2.621   3.968  0.6957  0.1794 -0.1551
16680TIP3    H171531   4.315   2.635   4.062  0.1818  0.2483 -0.1430
16680TIP3    H271532   4.381   2.558   3.950  0.3621 -0.3382  0.3658
16681TIP3   OH271533   0.393   2.037   4.938  0.6889  0.0049 -0.1191
16681TIP3    H171534   0.299   2.050   4.932  0.8636  0.8913 -1.2136
16681TIP3    H271535   0.411   2.037   5.032 -0.4144 -0.3833  0.1084
16682TIP3   OH271536   5.625   3.411  15.955  0.1538 -0.4458 -0.2087
16682TIP3    H171537   5.604   3.348  15.886  0.2419  0.6286 -1.2537
16682TIP3    H271538   5.561   3.482  15.943  1.2400  0.5561 -0.2896
16683TIP3   OH271539   0.529   0.864  11.302  0.6333  0.3588 -0.2201
16683TIP3    H171540   0.601   0.834  11.357 -0.3190 -1.5901  0.0667
16683TIP3    H271541   0.506   0.788  11.249 -0.2695  1.3805 -1.3512
16684TIP3   OH271542   2.842   2.093   4.540 -0.5789 -0.2878 -0.4251
16684TIP3    H171543   2.876   2.070   4.453  1.1711 -0.9913  0.4057
16684TIP3    H271544   2.809   2.011   4.575 -2.2667  0.1883 -0.7892
16685TIP3   OH271545   2.319   6.448  12.235  0.3511  0.3472  0.5945
16685TIP3    H171546   2.389   6.500  12.196 -0.2730  0.9781  0.2755
16685TIP3    H271547   2.312   6.479  12.325  0.2238  0.5568  0.5119
16686TIP3   OH271548   4.959   3.901   3.074  0.1319  0.3806  0.3722
16686TIP3    H171549   4.949   3.853   2.991 -0.2311  1.9082 -0.4967
16686TIP3    H271550   4.872   3.937   3.091  0.5278  1.1785  0.7287
16687TIP3   OH271551   3.233   0.756  14.084  0.1908  0.0919 -0.1276
16687TIP3    H171552   3.139   0.753  14.066  0.5191  0.8582 -2.2383
16687TIP3    H271553   3.255   0.666  14.110 -0.8867 -0.4726 -1.0477
16688TIP3   OH271554   0.427   6.335   1.777 -0.2099  0.4992  0.5101
16688TIP3    H171555   0.470   6.420   1.768 -0.6616  0.6693 -0.0294
16688TIP3    H271556   0.368   6.329   1.702  0.2680 -0.5546  0.2006
16689TIP3   OH271557   0.901   1.103   3.113  0.3014  0.7627 -0.0704
16689TIP3    H171558   0.847   1.164   3.062  0.0561 -1.0395 -2.0875
16689TIP3    H271559   0.942   1.046   3.048  1.5306 -0.4388  1.6538
16690TIP3   OH271560   2.901   2.943   1.988 -0.1028  0.0877 -0.2793
16690TIP3    H171561   2.904   3.037   2.006 -0.9171  0.1534 -0.4312
16690TIP3    H271562   2.895   2.937   1.893  0.0249 -0.1251 -0.2749
16691TIP3   OH271563   2.397   0.436   2.108  0.3434 -0.4714  0.0876
16691TIP3    H171564   2.337   0.395   2.170  2.1899 -1.3671  1.3826
16691TIP3    H271565   2.426   0.364   2.051  0.8695 -0.2538  0.0728
16692TIP3   OH271566   6.327   4.755   2.020  0.4811  0.2264 -0.2109
16692TIP3    H171567   6.350   4.817   1.951  0.9745  0.3893  0.0874
16692TIP3    H271568   6.400   4.693   2.021 -0.2792 -0.6927 -0.8778
16693TIP3   OH271569   4.537   0.369   3.098 -0.3845 -0.0869  0.1454
16693TIP3    H171570   4.498   0.287   3.071  0.8023 -0.6594  0.0978
16693TIP3    H271571   4.513   0.431   3.030  2.7673 -1.5490 -2.5906
16694TIP3   OH271572   6.351   5.835   5.466  0.0933 -0.8633  0.4660
16694TIP3    H171573   6.297   5.821   5.388 -1.0216  0.2622  1.0153
16694TIP3    H271574   6.386   5.924   5.455  1.5843 -1.4362  0.2950
16695TIP3   OH271575   1.777   0.945  15.531  0.2567  0.4659 -0.7150
16695TIP3    H171576   1.795   0.893  15.609 -0.9175  0.0519 -0.6997
16695TIP3    H271577   1.751   1.031  15.564  0.8108  0.6300 -0.6949
16696TIP3   OH271578   4.523   3.259  14.630 -0.2388 -0.9960  0.2716
16696TIP3    H171579   4.470   3.323  14.581  0.4276 -0.8624 -0.2995
16696TIP3    H271580   4.613   3.278  14.603  0.1807 -0.7163  1.8034
16697TIP3   OH271581   0.522   4.447   4.866 -0.1467  0.3157  0.4395
16697TIP3    H171582   0.599   4.458   4.810 -0.5404 -0.2603 -0.2251
16697TIP3    H271583   0.556   4.407   4.946  0.3541  0.7507  0.4510
16698TIP3   OH271584   1.371   2.916  15.979  0.0268  0.4087 -0.5272
16698TIP3    H171585   1.440   2.921  15.914  0.4822  1.7999  0.0144
16698TIP3    H271586   1.333   2.829  15.968  0.2563  0.5072 -2.4517
16699TIP3   OH271587   4.397   0.135  11.750 -0.4980 -0.0264 -0.2268
16699TIP3    H171588   4.375   0.044  11.731  1.5378 -0.2638 -1.8003
16699TIP3    H271589   4.344   0.186  11.690 -1.3185 -0.1646  0.3562
16700TIP3   OH271590   1.214   6.450  14.278  0.1114  0.3440 -0.5090
16700TIP3    H171591   1.201   6.545  14.280  2.4194  0.7317 -0.6178
16700TIP3    H271592   1.254   6.430  14.363 -0.2188 -0.5159 -0.5483
16701TIP3   OH271593   4.440   0.569   5.725 -0.1038 -0.0437 -0.5151
16701TIP3    H171594   4.484   0.501   5.674  0.6739 -1.0552  1.3988
16701TIP3    H271595   4.510   0.632   5.745 -0.0894 -0.3158  0.3404
16702TIP3   OH271596   1.805   0.288  12.681 -0.3523 -0.1598  0.2568
16702TIP3    H171597   1.779   0.360  12.739  1.1258  2.0023 -1.5602
16702TIP3    H271598   1.773   0.209  12.724 -0.7793  1.4439  3.1311
16703TIP3   OH271599   0.479   6.620  15.186  0.0120  0.2217  0.3804
16703TIP3    H171600   0.506   6.707  15.157 -1.2351  0.9219  1.2078
16703TIP3    H271601   0.450   6.576  15.106 -0.8896  1.1657  0.1671
16704TIP3   OH271602   0.941   6.313  11.895  0.2291  0.0280 -0.0473
16704TIP3    H171603   0.858   6.358  11.905  0.3134  0.0018  0.7864
16704TIP3    H271604   0.919   6.220  11.901  0.4748  0.0419  1.5554
16705TIP3   OH271605   4.577   4.509   2.949 -0.0623  0.1349  0.2168
16705TIP3    H171606   4.623   4.501   3.033  1.0085  0.3514 -0.3255
16705TIP3    H271607   4.588   4.422   2.909  0.1185  0.2753 -0.0367
16706TIP3   OH271608   5.743   4.306  14.396  0.2656  0.5436  0.6150
16706TIP3    H171609   5.825   4.260  14.376  0.5932  0.3851  2.2031
16706TIP3    H271610   5.741   4.378  14.332  2.4152  1.4430  1.4413
16707TIP3   OH271611   5.860   5.646  16.277 -0.1873  0.8898 -0.0113
16707TIP3    H171612   5.861   5.742  16.283 -1.7376  0.8865  0.8448
16707TIP3    H271613   5.848   5.617  16.367 -1.5719 -0.0366 -0.4662
16708TIP3   OH271614   0.495   4.207  16.096 -0.2872 -0.1987  0.2637
16708TIP3    H171615   0.463   4.153  16.169 -3.1200 -0.3587 -0.9431
16708TIP3    H271616   0.460   4.294  16.114 -1.4946 -0.3665 -1.1118
16709TIP3   OH271617   0.012   1.456  13.959 -0.1889 -0.4559 -0.1563
16709TIP3    H171618   0.079   1.417  13.902  1.1001  1.4433 -0.0368
16709TIP3    H271619  -0.058   1.483  13.900  0.1730 -0.4268 -0.5759
16710TIP3   OH271620   4.935   2.291   0.085 -0.4596 -0.3771 -0.0869
16710TIP3    H171621   4.891   2.216   0.046 -1.1666 -1.2378  2.2445
16710TIP3    H271622   4.909   2.290   0.177  1.4401  1.3225  0.5451
16711TIP3   OH271623   1.456   4.159   4.307 -0.4898 -0.0206  0.3021
16711TIP3    H171624   1.415   4.091   4.253  1.2667  0.7330 -2.1551
16711TIP3    H271625   1.435   4.134   4.397 -2.6732 -1.9503 -0.6421
16712TIP3   OH271626   1.324   4.627   6.197 -0.3489  0.0129  0.2923
16712TIP3    H171627   1.338   4.558   6.262 -1.8708 -1.0311 -0.4314
16712TIP3    H271628   1.300   4.704   6.250  1.6600  0.1206  1.1219
16713TIP3   OH271629   2.020   2.081  17.097 -0.3809  0.0555  0.3703
16713TIP3    H171630   2.006   1.990  17.072  1.1832  0.6784 -3.3698
16713TIP3    H271631   2.017   2.130  17.015  0.6882  3.1450  2.0056
16714TIP3   OH271632   6.723   6.435   5.964 -0.0858 -0.3575  0.2582
16714TIP3    H171633   6.717   6.343   5.992 -2.7172 -0.2506  0.3088
16714TIP3    H271634   6.690   6.485   6.039 -3.5417  0.1969 -1.4520
16715TIP3   OH271635   5.830   0.862   0.894 -0.1362  0.0054 -0.3433
16715TIP3    H171636   5.753   0.869   0.951 -0.4005  0.5838 -0.7617
16715TIP3    H271637   5.826   0.772   0.860 -0.9372  0.1966 -0.7823
16716TIP3   OH271638   3.933   5.441  11.685 -0.1565  0.4593  0.0854
16716TIP3    H171639   3.858   5.493  11.658 -0.6386 -0.2490  0.0187
16716TIP3    H271640   3.933   5.365  11.626  0.8363  0.6355 -0.1602
16717TIP3   OH271641   0.197   2.042  13.769  0.3338  0.2818  0.0327
16717TIP3    H171642   0.277   2.059  13.819  0.4016  2.3982 -0.7115
16717TIP3    H271643   0.128   2.038  13.835  0.6611  1.2708  0.4515
16718TIP3   OH271644   5.464   4.150  14.327  0.4246  0.3272 -0.1526
16718TIP3    H171645   5.552   4.114  14.340 -0.1994 -1.3276 -0.2556
16718TIP3    H271646   5.478   4.233  14.282  1.9115 -0.0907 -0.5111
16719TIP3   OH271647   1.924   1.247   2.217  0.1154  0.1867 -0.0469
16719TIP3    H171648   1.926   1.155   2.243 -3.1426 -0.0088 -0.0714
16719TIP3    H271649   1.989   1.289   2.273  0.4109 -1.8509  1.2427
16720TIP3   OH271650   1.464   5.123   5.120  0.2927 -0.3506  0.0490
16720TIP3    H171651   1.418   5.046   5.088 -1.2149  0.1046  0.9795
16720TIP3    H271652   1.394   5.179   5.155  1.2165  1.8786 -1.4698
16721TIP3   OH271653   5.881   5.227   4.772  0.0561 -0.1355  0.1495
16721TIP3    H171654   5.883   5.249   4.679 -2.1614 -3.0693 -0.7336
16721TIP3    H271655   5.882   5.311   4.817 -0.2183  1.4110 -2.5511
16722TIP3   OH271656   3.234   3.096   0.222  1.1794  0.7520  0.7954
16722TIP3    H171657   3.264   3.029   0.161 -1.7388 -1.1068  1.1966
16722TIP3    H271658   3.296   3.093   0.294  2.1077 -0.2628 -0.0238
16723TIP3   OH271659   0.282   3.742  15.360  0.2064 -0.0064  0.1187
16723TIP3    H171660   0.201   3.749  15.309 -0.7073 -1.7326  1.2423
16723TIP3    H271661   0.289   3.650  15.382  3.5365 -0.2474 -1.4949
16724TIP3   OH271662   2.491   0.985   3.491  0.2236  0.4249 -0.3481
16724TIP3    H171663   2.482   0.895   3.523  1.3950 -0.0274 -1.2252
16724TIP3    H271664   2.574   1.016   3.528  0.8503  0.4097 -1.6710
16725TIP3   OH271665   6.630   3.712   5.743  0.5938  0.2853  0.1848
16725TIP3    H171666   6.599   3.752   5.662 -0.6080  1.6880  1.2890
16725TIP3    H271667   6.704   3.658   5.716  0.9778  1.6401 -1.6809
16726TIP3   OH271668   1.116   1.292  15.587 -0.4859 -0.0374 -0.3822
16726TIP3    H171669   1.088   1.205  15.558 -1.9867 -0.2542  1.4897
16726TIP3    H271670   1.059   1.311  15.661  1.5028  1.4869  0.8416
16727TIP3   OH271671   1.443   6.823  15.031  0.1094 -0.1368 -0.4455
16727TIP3    H171672   1.366   6.827  15.087 -1.5342  0.5581 -2.6148
16727TIP3    H271673   1.436   6.740  14.986  1.2752 -0.5738  0.1277
16728TIP3   OH271674   1.852   4.136   5.877 -0.1388 -0.1098 -0.5317
16728TIP3    H171675   1.846   4.054   5.827  1.7381  0.1495 -1.2780
16728TIP3    H271676   1.935   4.175   5.849  0.5635  0.5240  2.1068
16729TIP3   OH271677   4.340   4.300   2.000 -0.7201  0.1211 -0.1806
16729TIP3    H171678   4.256   4.340   1.977 -0.2016  0.9659 -0.6855
16729TIP3    H271679   4.351   4.317   2.093 -2.3157 -2.3300  0.5460
16730TIP3   OH271680   4.446   5.410   4.798  0.5343  0.0489  0.5466
16730TIP3    H171681   4.386   5.467   4.749  0.0509 -0.6609  0.2916
16730TIP3    H271682   4.412   5.410   4.887 -2.3956 -3.4828 -0.3022
16731TIP3   OH271683   2.328   3.236   3.041  0.6866 -0.0189 -0.0270
16731TIP3    H171684   2.277   3.173   3.092 -0.9089  0.2005 -1.2310
16731TIP3    H271685   2.320   3.205   2.951  4.5911 -1.2043 -0.1494
16732TIP3   OH271686   3.882   2.235   4.861 -0.0643  0.2667  0.6874
16732TIP3    H171687   3.977   2.242   4.850 -0.1126 -1.2742 -1.3435
16732TIP3    H271688   3.847   2.241   4.771 -1.6705 -1.5944  1.1198
16733TIP3   OH271689   6.402   3.917  12.472 -0.1693  0.4296 -0.2422
16733TIP3    H171690   6.380   3.918  12.566  1.9004  2.1179  0.2997
16733TIP3    H271691   6.440   3.831  12.457  2.1209  1.1045  1.2169
16734TIP3   OH271692   2.254   3.042  13.163 -0.2070 -0.2639  0.2807
16734TIP3    H171693   2.242   2.970  13.100  0.4274 -0.4824  0.3943
16734TIP3    H271694   2.349   3.043  13.179 -0.0149  1.4248 -0.7077
16735TIP3   OH271695   4.366   1.421   1.229 -0.4705  0.5767  0.1875
16735TIP3    H171696   4.351   1.456   1.317  1.3792  1.9916  0.0048
16735TIP3    H271697   4.437   1.474   1.194 -0.6441 -0.4595 -1.8963
16736TIP3   OH271698   3.896   2.446  12.959 -0.5506 -0.2685  0.0820
16736TIP3    H171699   3.948   2.511  12.913 -0.8755 -0.2106 -0.2014
16736TIP3    H271700   3.809   2.485  12.967 -1.3561 -1.4738 -1.9192
16737TIP3   OH271701   6.822   5.005   2.974 -0.0777  0.2173  0.2415
16737TIP3    H171702   6.889   4.938   2.993 -0.7372 -1.2704 -2.2832
16737TIP3    H271703   6.764   5.002   3.050  1.7759  0.4279  1.7656
16738TIP3   OH271704   6.389   4.366  13.776 -0.1984  0.4882  0.7492
16738TIP3    H171705   6.413   4.383  13.685 -0.8297 -1.5037  0.1684
16738TIP3    H271706   6.401   4.450  13.820 -2.4746  2.2674 -1.7318
16739TIP3   OH271707   6.655   3.695   4.236 -0.4281 -0.0244  0.2337
16739TIP3    H171708   6.656   3.680   4.331 -0.6981 -0.2220  0.2043
16739TIP3    H271709   6.564   3.682   4.210 -0.8009  2.0784  0.2617
16740TIP3   OH271710   3.163   6.388  14.806 -1.0150 -0.1065 -0.3785
16740TIP3    H171711   3.100   6.450  14.768 -0.9322  0.7461  0.8157
16740TIP3    H271712   3.181   6.423  14.893  0.2144 -0.9967 -0.2526
16741TIP3   OH271713   5.999   5.861  11.996  0.2934  0.2143 -0.4048
16741TIP3    H171714   6.078   5.857  11.941  0.8825  1.3540  0.3405
16741TIP3    H271715   5.965   5.949  11.983  0.7586  0.7115  1.4673
16742TIP3   OH271716   1.363   4.037   2.358  0.2648 -0.2253  0.4418
16742TIP3    H171717   1.452   4.038   2.321 -0.0014  0.1338 -0.2053
16742TIP3    H271718   1.339   4.130   2.363 -0.2494 -0.3429  0.1877
16743TIP3   OH271719   3.056   3.281   2.990 -0.0676 -0.5243  0.4806
16743TIP3    H171720   3.112   3.339   3.041  0.6566 -1.3416  0.6227
16743TIP3    H271721   2.982   3.262   3.048  0.4152 -0.9024  0.9725
16744TIP3   OH271722   3.985   4.198  14.763  0.2405  0.3728  0.4409
16744TIP3    H171723   4.040   4.266  14.801  1.6741 -0.2743 -0.3940
16744TIP3    H271724   3.948   4.239  14.684  0.4321  0.4501  0.3903
16745TIP3   OH271725   0.912   5.214   0.189 -0.3054 -0.3981  0.0168
16745TIP3    H171726   0.820   5.200   0.213  0.0840 -1.0249  1.2302
16745TIP3    H271727   0.923   5.166   0.107 -0.9733 -0.6328  0.0588
16746TIP3   OH271728   5.196   3.910   5.251  0.3456 -0.1840 -0.3568
16746TIP3    H171729   5.235   3.893   5.166  2.2571  0.6364  0.3009
16746TIP3    H271730   5.107   3.941   5.232  0.7355 -0.0377 -2.0378
16747TIP3   OH271731   3.368   6.598   6.735  0.0277 -0.0014 -0.0541
16747TIP3    H171732   3.386   6.562   6.648 -0.7157 -2.0374  0.5705
16747TIP3    H271733   3.303   6.539   6.772  1.4042 -0.0659  2.4489
16748TIP3   OH271734   1.983   4.947  13.030  0.0098  0.0914  0.1772
16748TIP3    H171735   1.948   5.021  13.080  1.5792 -0.3237  2.0253
16748TIP3    H271736   1.977   4.873  13.090  1.1232 -0.6514 -0.5942
16749TIP3   OH271737   0.621   0.860   4.627 -0.1538  0.6225  0.1191
16749TIP3    H171738   0.695   0.800   4.616 -0.6720 -0.2215  1.0902
16749TIP3    H271739   0.547   0.815   4.587  0.1115  2.1162 -2.2232
16750TIP3   OH271740   5.996   4.002   5.889 -0.0761 -0.0381  0.1866
16750TIP3    H171741   5.995   3.955   5.806  2.8693  0.6288 -0.3666
16750TIP3    H271742   6.039   4.085   5.868 -1.4213  1.1719  1.9415
16751TIP3   OH271743   0.085   1.520   1.753  0.2923 -0.2573  0.3140
16751TIP3    H171744   0.108   1.511   1.660 -0.2278  2.4552 -0.1720
16751TIP3    H271745   0.118   1.607   1.777 -1.4906  0.0056  2.0518
16752TIP3   OH271746   1.172   2.613   4.588 -0.0369  0.2185 -0.4967
16752TIP3    H171747   1.261   2.613   4.624 -0.6987  2.1324  1.3904
16752TIP3    H271748   1.178   2.664   4.508  0.4720  0.8515 -0.0656
16753TIP3   OH271749   0.506   6.129  12.323 -0.4728 -0.6554  0.0721
16753TIP3    H171750   0.558   6.202  12.290  0.1911 -0.7025  0.9821
16753TIP3    H271751   0.416   6.149  12.296  0.0306 -0.7091 -1.7692
16754TIP3   OH271752   5.646   6.329   0.729  0.1620 -0.4429  0.1608
16754TIP3    H171753   5.614   6.335   0.639  2.3574  0.7143 -0.6175
16754TIP3    H271754   5.574   6.290   0.778 -1.6035  0.1462 -1.8331
16755TIP3   OH271755   6.089   5.245   5.794  0.1784 -0.1634  0.2949
16755TIP3    H171756   6.171   5.234   5.747 -0.1124 -0.8224 -0.0697
16755TIP3    H271757   6.021   5.232   5.727 -0.2345 -0.7026  0.8119
16756TIP3   OH271758   0.158   4.497   0.742  0.3230  0.3429  0.0864
16756TIP3    H171759   0.081   4.496   0.686 -0.4677  0.1121  1.1502
16756TIP3    H271760   0.124   4.505   0.831  1.4997 -0.3104  0.6235
16757TIP3   OH271761   5.935   4.786  16.309  0.3537  0.2156 -0.6111
16757TIP3    H171762   5.989   4.707  16.310  0.7293  0.4324  1.4649
16757TIP3    H271763   5.850   4.757  16.276  0.7617 -0.8656 -0.7531
16758TIP3   OH271764   3.484   6.617   1.072 -0.1221 -0.0933 -0.4222
16758TIP3    H171765   3.440   6.654   0.996 -2.3681 -0.8283  0.4529
16758TIP3    H271766   3.493   6.524   1.053 -0.9356 -0.3328  0.2854
16759TIP3   OH271767   2.048   1.616   5.033 -0.9324  0.0554  0.4095
16759TIP3    H171768   1.982   1.554   5.002  0.0365 -0.0189 -1.7299
16759TIP3    H271769   2.030   1.696   4.985  0.0893  0.2498  0.3225
16760TIP3   OH271770   3.639   3.303   4.205 -0.2569 -0.5490 -0.2825
16760TIP3    H171771   3.659   3.368   4.272 -0.1936  0.5930 -1.3735
16760TIP3    H271772   3.647   3.219   4.250  1.9008  0.0745  0.6300
16761TIP3   OH271773   0.904   1.990  12.108  0.0267 -0.2849 -0.3254
16761TIP3    H171774   0.932   1.903  12.137 -0.4911 -0.2082  0.4492
16761TIP3    H271775   0.812   1.978  12.082 -0.3495  0.2061  0.7054
16762TIP3   OH271776   2.896   4.999  14.593 -0.5300 -0.3919  0.2307
16762TIP3    H171777   2.954   5.004  14.517 -1.6227 -0.9428 -0.6683
16762TIP3    H271778   2.955   4.991  14.668  0.6913  2.3912 -0.2783
16763TIP3   OH271779   5.578   2.171   3.362 -0.7614  0.3352  0.1487
16763TIP3    H171780   5.624   2.105   3.414 -0.1688  0.4560 -0.2165
16763TIP3    H271781   5.626   2.252   3.378 -1.5054  0.6991  0.6249
16764TIP3   OH271782   0.938   5.167   3.364 -0.5022  0.4150  0.0731
16764TIP3    H171783   0.983   5.083   3.368 -0.1459  0.6310  0.6351
16764TIP3    H271784   0.962   5.204   3.279 -0.1936  0.2102  0.0729
16765TIP3   OH271785   1.078   4.047  14.575 -0.4374 -0.1144  0.4559
16765TIP3    H171786   1.125   4.050  14.658  0.3157  1.3822  0.0157
16765TIP3    H271787   0.988   4.073  14.596 -1.1248 -2.8081  1.2711
16766TIP3   OH271788   1.405   0.505  12.772 -0.2126 -0.0711 -0.3103
16766TIP3    H171789   1.349   0.575  12.740  0.3063  0.6939  0.3911
16766TIP3    H271790   1.403   0.515  12.868  0.4922 -0.5149 -0.2410
16767TIP3   OH271791   1.375   5.123   2.481  0.4143 -0.4056  0.7012
16767TIP3    H171792   1.423   5.164   2.553 -0.3824  0.5597  0.7040
16767TIP3    H271793   1.409   5.167   2.403  0.5783 -0.7620  0.5703
16768TIP3   OH271794   3.452   3.569  12.230 -0.0391 -0.0745 -0.5387
16768TIP3    H171795   3.445   3.656  12.269 -2.6370 -0.0325 -0.8835
16768TIP3    H271796   3.484   3.513  12.300  0.9788  1.0125 -0.1024
16769TIP3   OH271797   1.063   6.667  14.841  0.0612 -0.3414  0.0141
16769TIP3    H171798   1.102   6.646  14.926 -0.2860 -0.4204  0.1545
16769TIP3    H271799   1.087   6.758  14.825  1.0015 -0.6199 -0.2820
16770TIP3   OH271800   6.571   4.247  12.661  0.2969 -0.3860 -0.0708
16770TIP3    H171801   6.577   4.152  12.647  0.4691 -0.3580 -0.1899
16770TIP3    H271802   6.517   4.256  12.740 -1.0927 -0.5329 -0.9635
16771TIP3   OH271803   3.785   3.849   6.461 -0.4549  0.2546  0.7365
16771TIP3    H171804   3.742   3.931   6.485 -1.1676  0.1123 -0.0141
16771TIP3    H271805   3.714   3.789   6.440  0.0402 -0.7697  1.8818
16772TIP3   OH271806   1.871   4.306  16.182  0.7401 -0.4467  0.5531
16772TIP3    H171807   1.886   4.339  16.093 -0.1748 -0.3916  0.4129
16772TIP3    H271808   1.938   4.238  16.193  1.9164  0.6522  0.4402
16773TIP3   OH271809   5.217   0.520   3.251 -0.4099  0.1468  0.4446
16773TIP3    H171810   5.231   0.442   3.198  0.8980 -1.1213  2.5191
16773TIP3    H271811   5.227   0.593   3.189  0.0624 -1.2662 -1.2180
16774TIP3   OH271812   1.323   0.142   5.151 -0.2595  0.1060 -0.0302
16774TIP3    H171813   1.294   0.116   5.063 -0.0476 -0.1437 -0.0259
16774TIP3    H271814   1.378   0.070   5.180 -1.3339 -0.4058  0.8107
16775TIP3   OH271815   0.033   3.559   5.598 -0.1930 -0.2184  0.5085
16775TIP3    H171816   0.123   3.593   5.591  0.6708 -1.9792  2.0914
16775TIP3    H271817   0.044   3.468   5.626 -2.3560 -1.9707 -3.5044
16776TIP3   OH271818   5.539   4.498   4.732  0.0338 -0.4478  0.2363
16776TIP3    H171819   5.607   4.526   4.671  0.4305 -0.8090  0.5058
16776TIP3    H271820   5.565   4.535   4.817 -0.8573  0.6007  0.0787
16777TIP3   OH271821   5.000   0.235  13.640 -0.0298 -0.0332  0.2996
16777TIP3    H171822   5.051   0.156  13.659  0.9733  0.4477 -0.3152
16777TIP3    H271823   4.996   0.239  13.545  0.3149  0.8852  0.3102
16778TIP3   OH271824   0.264   1.746   5.584 -0.0262 -0.2896  0.0565
16778TIP3    H171825   0.174   1.723   5.564  0.4750 -3.0750  0.5658
16778TIP3    H271826   0.267   1.753   5.680  0.1681  0.5416  0.0001
16779TIP3   OH271827   6.728   3.505  15.026 -0.1583 -0.1883  0.5007
16779TIP3    H171828   6.771   3.582  14.988  0.6156  0.5331  2.6762
16779TIP3    H271829   6.756   3.433  14.970 -1.9298  1.1576 -2.4028
16780TIP3   OH271830   1.212   5.080  13.684 -1.0231 -0.0071  0.1932
16780TIP3    H171831   1.284   5.143  13.677 -2.3161  1.5234  0.1414
16780TIP3    H271832   1.163   5.090  13.602 -2.1316  0.0570  0.8359
16781TIP3   OH271833   3.265   5.176   5.616 -0.2029 -0.7277  0.2320
16781TIP3    H171834   3.360   5.180   5.603 -0.2722 -1.0004 -0.3985
16781TIP3    H271835   3.229   5.236   5.551 -0.4587 -0.5294  0.5539
16782TIP3   OH271836   1.052   1.876  13.696 -0.0365 -0.3097 -0.4090
16782TIP3    H171837   1.137   1.896  13.655 -0.9283  2.3951 -1.1410
16782TIP3    H271838   1.024   1.795  13.653  1.6548 -0.6656 -0.9399
16783TIP3   OH271839   3.797   3.343  15.045 -0.4950 -0.0819  0.2378
16783TIP3    H171840   3.759   3.430  15.034 -0.7082 -0.3424 -1.3170
16783TIP3    H271841   3.891   3.360  15.058 -0.8759  0.4863  2.7458
16784TIP3   OH271842   1.026   4.291   3.225 -0.3855 -0.8517 -0.4309
16784TIP3    H171843   0.982   4.375   3.216  0.5777 -0.1912  0.7801
16784TIP3    H271844   0.980   4.233   3.163  0.1844  1.0299 -2.7700
16785TIP3   OH271845   2.957   1.679   1.601 -0.2733  0.5775 -0.7081
16785TIP3    H171846   2.955   1.618   1.528  0.8993  0.3073 -0.5395
16785TIP3    H271847   2.869   1.716   1.605 -0.4494  0.3340 -2.0315
16786TIP3   OH271848   0.340   5.030  12.786  0.1682  0.2926 -0.1638
16786TIP3    H171849   0.304   5.119  12.780  0.7757  0.4707 -1.4691
16786TIP3    H271850   0.295   4.981  12.717 -1.3340 -0.8702  1.5593
16787TIP3   OH271851   1.993   1.106   3.666  0.0690 -0.1559  0.1861
16787TIP3    H171852   2.084   1.107   3.638  0.1672  2.8110  0.2731
16787TIP3    H271853   1.980   1.191   3.708 -2.0466 -1.5132  2.5863
16788TIP3   OH271854   2.707   3.899  15.978 -0.0868  0.3851 -0.0938
16788TIP3    H171855   2.674   3.922  16.065 -0.7456  2.0341 -0.7428
16788TIP3    H271856   2.725   3.805  15.984 -1.1231  0.2412  1.4999
16789TIP3   OH271857   3.582   1.075   1.136 -0.5149 -0.0642  0.2162
16789TIP3    H171858   3.603   1.124   1.057 -0.8356  0.6208  0.5420
16789TIP3    H271859   3.626   1.124   1.207 -0.7854 -0.2848  0.5399
16790TIP3   OH271860   6.147   2.389   1.928 -0.3601 -0.1561  0.1325
16790TIP3    H171861   6.066   2.353   1.890 -0.7283  0.5923  0.1830
16790TIP3    H271862   6.208   2.316   1.927 -0.1445 -0.0351 -2.4601
16791TIP3   OH271863   5.092   2.285  16.514 -0.5127  0.2717 -0.4180
16791TIP3    H171864   5.141   2.321  16.440  2.4703 -0.5678  1.0106
16791TIP3    H271865   5.054   2.362  16.556  0.2200  1.0751 -1.1754
16792TIP3   OH271866   6.652   1.577   1.855 -0.0902 -0.5497  0.1190
16792TIP3    H171867   6.742   1.547   1.841  0.1489  0.5989 -1.0600
16792TIP3    H271868   6.658   1.672   1.848 -1.3449 -0.4446  0.4005
16793TIP3   OH271869   5.743   0.914   5.521 -0.1144  0.1967  0.2483
16793TIP3    H171870   5.785   0.950   5.443  0.4158  1.6175  1.1629
16793TIP3    H271871   5.685   0.983   5.552 -1.2522 -0.8165  0.4374
16794TIP3   OH271872   0.926   2.962  13.648  0.4637 -0.0552  0.3258
16794TIP3    H171873   0.971   3.003  13.574  2.1105 -0.6141  0.9590
16794TIP3    H271874   0.904   2.875  13.617  1.4854 -0.4203  0.5783
16795TIP3   OH271875   1.622   2.053  13.231  0.2996  0.3702  0.2235
16795TIP3    H171876   1.672   2.133  13.215  0.3792  0.1652 -0.5631
16795TIP3    H271877   1.688   1.984  13.233  0.1310  0.2008 -0.0465
16796TIP3   OH271878   4.409   3.723   3.859 -0.1013 -0.6304 -0.3581
16796TIP3    H171879   4.403   3.809   3.900  0.0848 -0.7412 -0.0933
16796TIP3    H271880   4.319   3.690   3.859 -0.2457 -0.2435 -0.8834
16797TIP3   OH271881   1.899   3.575  13.840  0.0795  0.5413  0.5285
16797TIP3    H171882   1.851   3.629  13.778  0.5750  1.2876  0.7833
16797TIP3    H271883   1.839   3.562  13.913 -0.5476 -0.4328 -0.1345
16798TIP3   OH271884   3.362   2.223   6.014 -0.1724 -0.5904 -0.3484
16798TIP3    H171885   3.402   2.310   6.001 -0.8305 -0.0000  1.3182
16798TIP3    H271886   3.426   2.175   6.066 -0.8099 -0.2637  0.7688
16799TIP3   OH271887   2.119   2.691   3.610  0.0462  0.0098 -0.0343
16799TIP3    H171888   2.040   2.744   3.601 -0.6266 -0.8717  0.5297
16799TIP3    H271889   2.145   2.671   3.520 -1.3876 -1.1551 -0.2202
16800TIP3   OH271890   4.326   3.731  15.556 -0.2175 -0.2099 -0.1376
16800TIP3    H171891   4.306   3.824  15.539 -1.9206 -0.3605  0.9026
16800TIP3    H271892   4.308   3.719  15.649  0.7977 -1.4132 -0.0749
16801TIP3   OH271893   4.741   2.402   0.767 -0.2544 -0.1734  0.8554
16801TIP3    H171894   4.778   2.367   0.847  1.0886 -0.3460  0.1797
16801TIP3    H271895   4.778   2.490   0.759  0.0122 -0.3424  0.1720
16802TIP3   OH271896   2.435   3.580  14.916  0.2426 -0.1957  0.8434
16802TIP3    H171897   2.407   3.565  15.007  0.0547  0.7655  0.9578
16802TIP3    H271898   2.506   3.518  14.902  0.4651 -0.1602  1.7502
16803TIP3   OH271899   5.482   4.577   4.364 -0.5045 -0.2765  0.0101
16803TIP3    H171900   5.390   4.600   4.357 -0.6102  1.1949  3.9031
16803TIP3    H271901   5.528   4.648   4.321 -1.1284 -0.2055 -0.5574
16804TIP3   OH271902   3.795   2.409   3.266  0.0075 -0.0877 -0.3939
16804TIP3    H171903   3.804   2.360   3.348 -1.3734  0.7367  0.2845
16804TIP3    H271904   3.824   2.497   3.288  3.5087 -0.6956 -1.8807
16805TIP3   OH271905   6.153   2.318   4.646  0.4647 -0.3821  0.4275
16805TIP3    H171906   6.058   2.326   4.638  0.5654 -0.1496 -0.7266
16805TIP3    H271907   6.171   2.341   4.737 -0.7011 -1.7814  1.0538
16806TIP3   OH271908   1.394   3.161   5.858 -0.5494  0.2451  0.3179
16806TIP3    H171909   1.434   3.074   5.854  0.7949  0.8412  0.5669
16806TIP3    H271910   1.462   3.220   5.828 -1.1131  1.3382  1.1362
16807TIP3   OH271911   2.974   6.510   0.807 -0.1259 -0.4834 -0.3881
16807TIP3    H171912   2.918   6.503   0.730 -1.4472 -0.6101  0.5513
16807TIP3    H271913   2.922   6.474   0.879  0.2308  1.4998  0.9706
16808TIP3   OH271914   3.518   6.635   5.955 -0.0904  0.2403  0.5776
16808TIP3    H171915   3.432   6.650   5.914  0.3660  1.9570  0.1641
16808TIP3    H271916   3.534   6.713   6.007  0.6669 -0.6393  1.7244
16809TIP3   OH271917   1.338   1.415   5.257  0.4053 -0.5492 -0.2500
16809TIP3    H171918   1.290   1.458   5.327  0.8477  0.4960 -0.5727
16809TIP3    H271919   1.429   1.441   5.269  0.3674  0.3873 -1.7231
16810TIP3   OH271920   4.392   4.705   4.803  0.9326 -0.5750 -0.5831
16810TIP3    H171921   4.427   4.688   4.891  1.2021 -0.3519 -0.6459
16810TIP3    H271922   4.447   4.775   4.769  1.6657 -1.5231 -1.4263
16811TIP3   OH271923   3.941   2.470   1.402 -0.0145 -0.3178 -0.7814
16811TIP3    H171924   3.995   2.401   1.363  1.5763 -0.2335  1.1113
16811TIP3    H271925   4.001   2.544   1.412 -1.0297  0.4818 -0.4118
16812TIP3   OH271926   6.189   1.516  15.158  0.2859  0.4498 -0.1654
16812TIP3    H171927   6.197   1.421  15.149 -0.3696  0.4162 -0.4287
16812TIP3    H271928   6.279   1.548  15.153  0.5246 -0.1722  0.1025
16813TIP3   OH271929   1.430   4.251   3.912 -0.5595 -0.3480  0.3232
16813TIP3    H171930   1.415   4.171   3.862  0.5343  0.0219 -0.6424
16813TIP3    H271931   1.519   4.278   3.888  0.1229 -0.2906  2.6870
16814TIP3   OH271932   2.695   1.080  10.631  0.0592  0.0270 -0.2642
16814TIP3    H171933   2.676   1.132  10.553 -2.6811 -1.0674 -0.4383
16814TIP3    H271934   2.645   1.123  10.701  1.8160  0.5129  0.7397
16815TIP3   OH271935   2.988   0.634   5.063  0.4235 -0.1459  0.3284
16815TIP3    H171936   3.067   0.659   5.111 -1.3714 -0.4146  3.7557
16815TIP3    H271937   2.919   0.688   5.101 -1.4310 -1.4543 -0.9856
16816TIP3   OH271938   1.227   6.303   0.343 -0.6980 -0.2691  0.2572
16816TIP3    H171939   1.158   6.290   0.408  0.8741  1.4032  2.4703
16816TIP3    H271940   1.290   6.233   0.361 -1.5919 -1.5792 -1.5146
16817TIP3   OH271941   6.011   5.440  12.174  0.5236  0.1271 -0.1823
16817TIP3    H171942   6.096   5.396  12.174 -0.6855 -2.4136  0.1760
16817TIP3    H271943   5.979   5.430  12.084 -0.7522 -1.9891  0.4224
16818TIP3   OH271944   2.375   5.564   4.269 -0.2304 -0.2714  0.4702
16818TIP3    H171945   2.321   5.641   4.252  0.7264  0.8275  2.1181
16818TIP3    H271946   2.452   5.576   4.213 -0.3223 -0.3001  0.3373
16819TIP3   OH271947   3.714   2.209   6.541  0.0563  0.1923  0.2848
16819TIP3    H171948   3.718   2.123   6.498 -0.1179  0.4783 -0.2999
16819TIP3    H271949   3.645   2.256   6.495 -1.5944 -0.2075  2.1909
16820TIP3   OH271950   6.482   1.808   1.495 -0.0903  0.1416  0.1887
16820TIP3    H171951   6.406   1.780   1.547 -0.1482  0.3423  0.2108
16820TIP3    H271952   6.468   1.901   1.479  0.5933  0.3900  0.9544
16821TIP3   OH271953   3.179   4.963   4.342 -0.5581 -0.0926  0.1252
16821TIP3    H171954   3.150   4.959   4.251  1.5854  0.8929 -0.6605
16821TIP3    H271955   3.198   4.872   4.365  2.4834 -0.0501 -1.7386
16822TIP3   OH271956   3.401   2.468   5.839  0.1793  0.3149  0.0985
16822TIP3    H171957   3.442   2.536   5.893  0.3399 -0.3932  0.8899
16822TIP3    H271958   3.308   2.474   5.860 -0.1137  1.6340 -1.3752
16823TIP3   OH271959   6.511   4.901   1.874  0.4830  0.3812  0.4379
16823TIP3    H171960   6.566   4.827   1.848 -1.1430 -0.7261  0.0345
16823TIP3    H271961   6.563   4.979   1.851  2.7339 -0.5592  1.9051
16824TIP3   OH271962   5.245   2.646   3.583  0.1812  0.0486  0.9447
16824TIP3    H171963   5.182   2.579   3.607 -1.5971  0.7740 -1.3425
16824TIP3    H271964   5.251   2.703   3.660 -1.7973 -0.1894  1.3159
16825TIP3   OH271965   5.537   2.399  15.224  0.4829 -0.0143 -0.0498
16825TIP3    H171966   5.527   2.494  15.232  1.1054  0.0952 -0.4757
16825TIP3    H271967   5.560   2.385  15.132 -1.6625 -0.7795 -0.5255
16826TIP3   OH271968   6.573   5.479  14.986  0.6070  0.5832  0.2498
16826TIP3    H171969   6.496   5.424  15.000 -0.0882  1.2917 -0.6029
16826TIP3    H271970   6.585   5.525  15.069  0.5680 -0.0856  0.6289
16827TIP3   OH271971   2.079   2.021   1.934 -0.0788  0.0099 -1.0715
16827TIP3    H171972   2.023   2.001   2.010 -1.1924 -0.8610 -2.0853
16827TIP3    H271973   2.168   2.019   1.969 -0.6170  0.7353  0.4479
16828TIP3   OH271974   2.302   1.976  11.787  0.0115 -0.2513 -0.0483
16828TIP3    H171975   2.295   1.937  11.699 -1.5274 -1.5159  0.5931
16828TIP3    H271976   2.299   2.070  11.772  0.5510 -0.4269 -1.4088
16829TIP3   OH271977   6.014   3.905  14.291  0.3566 -0.1758  0.0902
16829TIP3    H171978   5.994   3.812  14.288  0.8660 -0.2971  0.3685
16829TIP3    H271979   6.092   3.915  14.236  0.1970  0.1144 -0.0860
16830TIP3   OH271980   3.458   6.203  14.862  0.6027 -0.0821  0.3633
16830TIP3    H171981   3.488   6.281  14.908  0.3585  0.1040  0.2110
16830TIP3    H271982   3.487   6.130  14.917  3.1285 -0.0389 -0.7589
16831TIP3   OH271983   0.204   2.911   5.580 -0.0118  0.6124  0.2524
16831TIP3    H171984   0.192   3.002   5.606 -2.0828 -0.1565  2.3176
16831TIP3    H271985   0.141   2.862   5.633  0.4781 -1.9552 -1.3428
16832TIP3   OH271986   2.633   3.022   5.611 -0.5598 -0.5268 -0.2480
16832TIP3    H171987   2.611   2.970   5.689 -0.8772 -0.1643 -0.0870
16832TIP3    H271988   2.724   3.047   5.624 -1.4297  2.1023  1.5602
16833TIP3   OH271989   5.354   5.050   5.000 -0.5022  0.4859 -0.0379
16833TIP3    H171990   5.386   5.062   5.090  0.3391  1.5456 -0.4624
16833TIP3    H271991   5.259   5.057   5.007 -0.5098 -0.2601  0.8840
16834TIP3   OH271992   6.507   4.832  11.702  0.0886 -0.2383  0.2978
16834TIP3    H171993   6.459   4.783  11.769  0.1572 -0.7779 -0.0380
16834TIP3    H271994   6.441   4.857  11.638  0.2452 -1.0006 -0.1764
16835TIP3   OH271995   4.300   4.177   5.355 -0.3780 -0.0331 -0.2146
16835TIP3    H171996   4.277   4.245   5.292 -0.1069 -0.2398 -0.5362
16835TIP3    H271997   4.327   4.103   5.302 -0.2784 -0.2557  0.1436
16836TIP3   OH271998   4.242   0.407   1.119 -0.2831 -0.8281  0.0889
16836TIP3    H171999   4.207   0.340   1.177  0.7268 -0.4964  1.1008
16836TIP3    H272000   4.300   0.459   1.174  0.1171 -0.0405 -1.0424
16837TIP3   OH272001   6.051   6.368   2.828 -0.4949 -0.0105  0.2003
16837TIP3    H172002   6.006   6.451   2.845 -0.6690 -0.2569  0.9590
16837TIP3    H272003   6.003   6.303   2.879 -0.4288 -0.6101 -0.4747
16838TIP3   OH272004   3.430   3.273  13.417 -0.1557 -0.3295 -0.3500
16838TIP3    H172005   3.479   3.322  13.483 -0.9095  0.5461 -0.4262
16838TIP3    H272006   3.475   3.188  13.412 -1.7297 -1.5849  3.3633
16839TIP3   OH272007   4.547   0.848  13.002 -0.2898  1.0960 -0.3320
16839TIP3    H172008   4.534   0.838  13.096 -0.0373  0.4122 -0.3603
16839TIP3    H272009   4.628   0.899  12.995  0.3801  0.1068 -0.1604
16840TIP3   OH272010   3.738   1.087  10.470  0.0891  0.2645 -0.1177
16840TIP3    H172011   3.757   1.141  10.546  0.2900  0.0980 -0.0493
16840TIP3    H272012   3.782   1.004  10.487  0.1970  0.2500 -0.4464
16841TIP3   OH272013   0.344   5.618  16.014  0.1063 -0.2000 -0.3300
16841TIP3    H172014   0.410   5.615  16.083 -0.1880  0.5151  0.0043
16841TIP3    H272015   0.393   5.639  15.935  0.3073  0.1681 -0.1139
16842TIP3   OH272016   6.277   1.772  12.097 -0.2418 -0.3939 -0.2929
16842TIP3    H172017   6.360   1.806  12.130 -0.7701  1.0002 -0.3143
16842TIP3    H272018   6.259   1.695  12.150  0.8062 -0.4031  0.0680
16843TIP3   OH272019   1.493   0.174  14.845  0.0144 -0.0433  0.2424
16843TIP3    H172020   1.413   0.225  14.834 -0.1907 -0.2791  0.6071
16843TIP3    H272021   1.467   0.099  14.898 -0.0214 -1.3504 -1.5380
16844TIP3   OH272022   1.443   0.959   4.585 -0.1809  0.1319 -0.3983
16844TIP3    H172023   1.475   0.959   4.495 -1.0025  1.2345 -0.7242
16844TIP3    H272024   1.495   0.892   4.630  1.2081  0.5305 -1.3482
16845TIP3   OH272025   5.699   6.693  15.500 -0.8701 -0.1969 -0.3700
16845TIP3    H172026   5.702   6.598  15.488 -1.5788 -0.2900  0.1571
16845TIP3    H272027   5.709   6.705  15.595  1.2799  0.3635 -0.6074
16846TIP3   OH272028   2.888   0.170   2.366 -0.5836  0.4654 -0.2501
16846TIP3    H172029   2.966   0.174   2.421 -1.1236 -0.7544  0.6766
16846TIP3    H272030   2.916   0.204   2.281  0.7063  0.8886  0.3209
16847TIP3   OH272031   2.374   2.438  11.209  0.2550  0.4490 -0.0788
16847TIP3    H172032   2.419   2.379  11.148 -0.2518 -0.0895  0.0556
16847TIP3    H272033   2.430   2.440  11.287 -0.4831 -1.1486  0.5523
16848TIP3   OH272034   3.887   2.285  13.601 -0.2942 -0.4634  0.0441
16848TIP3    H172035   3.810   2.284  13.658 -0.6644 -0.2512 -0.4399
16848TIP3    H272036   3.882   2.370  13.556 -0.7804 -1.1804 -1.3196
16849TIP3   OH272037   0.117   4.949  13.080 -0.2114  0.1036 -0.1248
16849TIP3    H172038   0.126   5.044  13.088 -0.2392  0.0047  1.3069
16849TIP3    H272039   0.207   4.917  13.078 -0.1944  0.0572  0.9832
16850TIP3   OH272040   5.602   4.774   4.178  0.4288 -1.5945  0.2422
16850TIP3    H172041   5.650   4.855   4.161 -0.2165 -0.4731  3.1533
16850TIP3    H272042   5.568   4.747   4.093 -2.9198  3.4856 -0.4261
16851TIP3   OH272043   2.333   6.065  15.712  0.1272 -0.0484  0.1407
16851TIP3    H172044   2.279   6.144  15.715  0.5983  0.2728  0.3787
16851TIP3    H272045   2.322   6.024  15.797 -1.9641 -1.5170 -0.7881
16852TIP3   OH272046   3.376   6.406  14.629  0.2756  0.3527 -0.1693
16852TIP3    H172047   3.320   6.376  14.701  1.1127 -1.8317 -0.3575
16852TIP3    H272048   3.384   6.501  14.643  0.2599  0.0477  2.5336
16853TIP3   OH272049   1.968   5.897   0.038  0.1462 -0.4088  0.6591
16853TIP3    H172050   2.005   5.885   0.125 -1.7289  0.8970  1.6952
16853TIP3    H272051   1.932   5.810   0.016  0.1685 -0.6232  1.4214
16854TIP3   OH272052   3.434   0.163   4.417 -0.2199 -0.0515 -0.7832
16854TIP3    H172053   3.397   0.104   4.483  0.4097  0.1991 -0.1938
16854TIP3    H272054   3.516   0.122   4.390  0.2183  0.5375 -0.3750
16855TIP3   OH272055   6.249   5.868  12.801 -0.3924 -0.0432 -0.0734
16855TIP3    H172056   6.246   5.893  12.893 -2.3926 -1.1241  0.2136
16855TIP3    H272057   6.235   5.773  12.801 -2.9667  0.2279 -1.5161
16856TIP3   OH272058   4.215   5.728   2.382 -0.1150  0.2227  0.0184
16856TIP3    H172059   4.288   5.674   2.351  1.2101 -0.3544  3.6251
16856TIP3    H272060   4.142   5.667   2.392 -0.0286  0.0692 -0.2690
16857TIP3   OH272061   5.473   3.461   3.967  0.2095 -0.0998  0.1447
16857TIP3    H172062   5.489   3.384   3.913 -0.7708  0.3400 -0.7996
16857TIP3    H272063   5.512   3.533   3.919 -3.5035  0.8722 -1.8223
16858TIP3   OH272064   0.556   3.359   3.703  0.0716 -0.3238  0.0677
16858TIP3    H172065   0.494   3.287   3.697  1.1649 -1.2530 -0.3859
16858TIP3    H272066   0.599   3.362   3.618  0.7491  0.2140  0.4145
16859TIP3   OH272067   2.068   3.895   4.546 -0.2920 -0.3623  0.3274
16859TIP3    H172068   2.134   3.930   4.606 -0.7316  0.5720  0.2754
16859TIP3    H272069   2.076   3.800   4.555 -1.3575 -0.2791  3.0049
16860TIP3   OH272070   1.756   2.778  12.142 -0.0971 -0.1086  0.4766
16860TIP3    H172071   1.846   2.788  12.113  0.2634 -0.0361  1.5755
16860TIP3    H272072   1.762   2.760  12.236 -1.2277  0.0039  0.5939
16861TIP3   OH272073   5.820   0.764   5.122 -0.1749 -0.4063  0.6520
16861TIP3    H172074   5.816   0.672   5.098 -1.5224 -0.6860  1.8688
16861TIP3    H272075   5.815   0.811   5.038  0.2373 -1.4085  0.0520
16862TIP3   OH272076   5.796   1.266   4.210 -0.2052 -0.3688 -0.1685
16862TIP3    H172077   5.842   1.349   4.220  1.8931 -1.4815 -0.1113
16862TIP3    H272078   5.843   1.206   4.268 -0.5714 -2.0162 -1.5211
16863TIP3   OH272079   2.509   4.735  12.923 -0.6611 -0.6969  0.3463
16863TIP3    H172080   2.434   4.793  12.912  1.8958  2.7812 -0.5756
16863TIP3    H272081   2.552   4.765  13.003 -0.0424 -2.4358  0.7238
16864TIP3   OH272082   4.602   4.023   4.316  0.2314  0.7870  0.1950
16864TIP3    H172083   4.547   3.971   4.258  0.9731  0.0565  0.1288
16864TIP3    H272084   4.678   3.967   4.334  0.1234  1.0707  1.6988
16865TIP3   OH272085   0.526   4.472   2.427  0.0131 -0.7298  0.1469
16865TIP3    H172086   0.559   4.510   2.508 -0.1840 -0.9698  0.3440
16865TIP3    H272087   0.431   4.486   2.431 -0.1726 -1.9757  0.6260
16866TIP3   OH272088   5.025   1.451  15.655  0.3708 -0.1860 -0.4305
16866TIP3    H172089   5.022   1.546  15.651  1.1375 -0.1276  0.1695
16866TIP3    H272090   5.117   1.429  15.643  0.1598 -0.8809 -0.9187
16867TIP3   OH272091   3.778   1.587  14.112  0.1605  1.1572  0.4694
16867TIP3    H172092   3.754   1.509  14.163  2.0857 -0.0239 -0.3248
16867TIP3    H272093   3.730   1.577  14.030  3.2891 -1.4111 -1.2838
16868TIP3   OH272094   5.036   2.543  14.579 -0.0939  0.1492  0.0192
16868TIP3    H172095   5.074   2.506  14.659 -2.0754 -1.9365  0.0951
16868TIP3    H272096   5.087   2.503  14.509 -1.1590 -1.5669  0.1606
16869TIP3   OH272097   1.977   3.395   4.745  0.1931  0.2712 -0.1413
16869TIP3    H172098   1.945   3.467   4.690 -1.0804  0.9397  1.4039
16869TIP3    H272099   1.924   3.399   4.824  1.0183 -1.5485  0.5696
16870TIP3   OH272100   3.020   1.964  15.291  0.3671 -0.4679 -0.0662
16870TIP3    H172101   2.968   1.936  15.216  0.1643 -0.2684  0.0001
16870TIP3    H272102   2.982   1.916  15.365 -0.3794  0.4356  0.1504
16871TIP3   OH272103   1.994   1.770  13.520  0.6328 -0.3013  0.3822
16871TIP3    H172104   1.987   1.838  13.453 -1.5169 -1.9090 -1.1733
16871TIP3    H272105   1.950   1.808  13.597  0.5262  0.5054 -0.0635
16872TIP3   OH272106   0.904   1.856  16.718 -0.3231  0.4425 -0.0002
16872TIP3    H172107   1.000   1.855  16.711 -0.2058 -0.4760  1.2413
16872TIP3    H272108   0.886   1.919  16.788 -0.4398 -0.9355  1.2799
16873TIP3   OH272109   1.506   0.776  13.917 -0.3085  0.4619  0.1590
16873TIP3    H172110   1.474   0.865  13.899  0.2864  0.0881 -3.4243
16873TIP3    H272111   1.601   0.784  13.916 -0.2353 -0.0393  1.2145
16874TIP3   OH272112   2.281   4.042   2.606  0.4477 -0.5664 -1.1325
16874TIP3    H172113   2.319   3.954   2.607  2.1932  0.1527 -0.9277
16874TIP3    H272114   2.213   4.039   2.673  2.3621 -1.0217  0.9174
16875TIP3   OH272115   1.837   6.674  10.380  0.7911  0.2265 -0.0316
16875TIP3    H172116   1.907   6.733  10.352  0.0205  0.3900 -1.7316
16875TIP3    H272117   1.759   6.729  10.387  0.1384 -0.4984 -1.3028
16876TIP3   OH272118   3.542   6.287  13.116 -0.0009 -0.0514 -0.1658
16876TIP3    H172119   3.580   6.200  13.108 -1.7210 -0.8533 -0.0650
16876TIP3    H272120   3.505   6.289  13.205  1.1272  1.2773  0.3147
16877TIP3   OH272121   2.042   5.616  13.051 -0.0620  0.2531 -0.5528
16877TIP3    H172122   1.955   5.633  13.014 -1.3044  0.0833  2.0081
16877TIP3    H272123   2.094   5.691  13.025 -0.7937  0.1222 -2.5814
16878TIP3   OH272124   3.138   3.368   1.744  0.0782  0.4619  1.2763
16878TIP3    H172125   3.133   3.343   1.836 -2.5927 -2.6009  0.4597
16878TIP3    H272126   3.200   3.306   1.705 -0.6307  0.1613  0.6021
16879TIP3   OH272127   6.047   2.982   1.419 -0.2516 -0.3633  0.2588
16879TIP3    H172128   6.051   3.054   1.357  2.4528 -0.8973 -0.3161
16879TIP3    H272129   6.077   2.906   1.369  0.6705 -1.0841  1.8270
16880TIP3   OH272130   2.926   5.580   0.761 -0.6520  0.0395 -0.6425
16880TIP3    H172131   2.892   5.543   0.843  0.8871 -0.7403 -0.3307
16880TIP3    H272132   2.882   5.531   0.692 -0.9048 -0.2628 -0.2715
16881TIP3   OH272133   0.026   4.479  15.804  0.3044 -0.5897 -0.0003
16881TIP3    H172134   0.008   4.398  15.851  2.3089 -1.9775 -1.4600
16881TIP3    H272135   0.075   4.533  15.867 -0.6829 -0.6432  0.8373
16882TIP3   OH272136   6.628   5.246   2.553 -0.3313  0.3654  0.6905
16882TIP3    H172137   6.648   5.214   2.641  1.1593  0.3387  0.3778
16882TIP3    H272138   6.712   5.279   2.521 -0.3293 -1.5148 -1.4849
16883TIP3   OH272139   3.678   0.415  11.165 -0.0272 -0.0305 -0.2690
16883TIP3    H172140   3.654   0.322  11.161 -1.2188  0.2935 -1.4815
16883TIP3    H272141   3.734   0.429  11.089 -0.3709  0.3676 -0.4538
16884TIP3   OH272142   6.088   2.236  17.182  0.2263  0.0745  0.0173
16884TIP3    H172143   6.043   2.319  17.191  0.1874  0.1693 -0.9393
16884TIP3    H272144   6.181   2.259  17.179  0.3087 -0.0444  1.0759
16885TIP3   OH272145   3.331   5.862  16.799  0.3363 -0.0865  0.1859
16885TIP3    H172146   3.280   5.941  16.819  0.9636 -0.0317  1.7119
16885TIP3    H272147   3.319   5.850  16.705 -2.2821  0.0524  0.4156
16886TIP3   OH272148   4.414   2.202  16.834  0.0993  0.4444 -0.2289
16886TIP3    H172149   4.458   2.162  16.910 -1.0498  0.6366  0.5702
16886TIP3    H272150   4.437   2.295  16.840  0.2418  0.4131 -0.2824
16887TIP3   OH272151   6.433   4.936  12.605 -0.5819 -0.2209  0.1083
16887TIP3    H172152   6.411   4.977  12.688  0.0701 -0.8017  0.5795
16887TIP3    H272153   6.503   4.874  12.626 -1.7073 -1.7865 -0.5141
16888TIP3   OH272154   0.311   1.794  14.918 -0.3228 -0.3706  0.6720
16888TIP3    H172155   0.304   1.699  14.915 -0.6325 -0.3311 -0.3181
16888TIP3    H272156   0.282   1.823  14.831 -2.6186  0.7788  1.7196
16889TIP3   OH272157   1.200   0.713   3.941  0.3407  0.6059  0.5135
16889TIP3    H172158   1.125   0.736   3.887 -0.2738 -0.9302  0.6405
16889TIP3    H272159   1.173   0.733   4.031  0.0947  0.1091  0.5533
16890TIP3   OH272160   6.056   2.069   1.222  0.0736 -1.0218  0.8890
16890TIP3    H172161   5.973   2.048   1.180 -0.8055  1.9563  0.9213
16890TIP3    H272162   6.117   2.084   1.150  0.1853 -1.6488  0.8428
16891TIP3   OH272163   4.232   0.901  12.354  0.6215  0.2773  0.0270
16891TIP3    H172164   4.169   0.866  12.417  0.9086 -0.3641 -0.0309
16891TIP3    H272165   4.222   0.996  12.361 -0.8357  0.1860 -0.4943
16892TIP3   OH272166   6.052   0.530  14.338  0.3352 -0.3534 -0.2056
16892TIP3    H172167   5.993   0.460  14.364  0.6453 -1.6039 -2.6458
16892TIP3    H272168   6.098   0.554  14.419 -1.4912 -1.2526  1.1589
16893TIP3   OH272169   2.241   1.822  13.127 -0.5300 -0.0465  0.3023
16893TIP3    H172170   2.264   1.901  13.079 -1.7659  0.8796  1.1713
16893TIP3    H272171   2.281   1.833  13.213 -2.2890  0.5608  1.0770
16894TIP3   OH272172   1.100   5.675  16.642 -0.3757 -0.0875 -0.2330
16894TIP3    H172173   1.192   5.697  16.627 -0.4527 -0.1096 -0.7683
16894TIP3    H272174   1.098   5.579  16.643 -0.3423 -0.0846  0.1150
16895TIP3   OH272175   5.920   5.664   0.917  0.1002  0.1717  0.0502
16895TIP3    H172176   5.969   5.582   0.907 -1.4758 -0.9126  0.8576
16895TIP3    H272177   5.894   5.688   0.828  2.6749  1.2195 -0.5252
16896TIP3   OH272178   5.731   4.062  15.809 -0.1196  0.2040  0.6468
16896TIP3    H172179   5.743   4.040  15.717 -1.4935  0.3749  0.4144
16896TIP3    H272180   5.808   4.114  15.831  0.6082 -0.4892 -0.1810
16897TIP3   OH272181   6.183   2.940  16.905  0.2202 -0.1346 -0.1606
16897TIP3    H172182   6.189   3.013  16.843  1.7977 -0.9826 -1.0711
16897TIP3    H272183   6.273   2.912  16.919 -0.1181 -0.2487  2.2531
16898TIP3   OH272184   5.788   4.067   3.110  0.1099  0.1814 -0.4207
16898TIP3    H172185   5.749   4.079   3.197  2.3003  0.3236  0.5909
16898TIP3    H272186   5.713   4.071   3.051 -1.8969 -2.6837  1.5931
16899TIP3   OH272187   2.992   1.559   2.048 -0.0011 -0.0938  0.3788
16899TIP3    H172188   3.008   1.527   1.960 -1.3557  0.0207  0.0633
16899TIP3    H272189   2.907   1.603   2.042  0.5289  1.1548  1.4192
16900TIP3   OH272190   4.503   1.615  15.674  0.2377 -0.3135 -0.4127
16900TIP3    H172191   4.472   1.683  15.615  0.6941 -0.4312 -0.7886
16900TIP3    H272192   4.427   1.559  15.688  0.1303 -0.2911 -0.8925
16901TIP3   OH272193   5.202   5.903   5.066  0.1977 -0.1482  0.5035
16901TIP3    H172194   5.151   5.824   5.053 -0.7021  0.6295 -1.0200
16901TIP3    H272195   5.168   5.965   5.001  1.3566  1.2507  1.1544
16902TIP3   OH272196   2.246   1.631   5.927  0.1391 -0.2889  0.0753
16902TIP3    H172197   2.188   1.704   5.951  0.7758 -0.8392  3.8821
16902TIP3    H272198   2.334   1.668   5.932  0.3667 -0.2506 -2.6424
16903TIP3   OH272199   3.599   5.100  13.611 -0.2363  0.4355 -0.2308
16903TIP3    H172200   3.666   5.147  13.661 -2.1973  1.1737  1.8673
16903TIP3    H272201   3.592   5.147  13.528  0.0095  1.9709  0.5882
16904TIP3   OH272202   2.563   4.288  14.632  0.3282 -0.4250  0.0978
16904TIP3    H172203   2.506   4.212  14.621 -1.6201  0.8919  0.6308
16904TIP3    H272204   2.650   4.256  14.609 -0.4060 -2.8312  0.3890
16905TIP3   OH272205   2.728   1.332   1.768  0.4525  0.3889 -0.0621
16905TIP3    H172206   2.712   1.240   1.787  1.2532  0.0945 -0.7461
16905TIP3    H272207   2.678   1.379   1.834  0.6264 -0.5441  0.7617
16906TIP3   OH272208   0.026   0.923   4.953 -0.8122 -0.4298  0.1104
16906TIP3    H172209  -0.060   0.919   4.911 -0.2829 -1.3072 -0.9748
16906TIP3    H272210   0.047   1.016   4.956 -1.2685 -0.2799 -0.7908
16907TIP3   OH272211   5.678   1.489   0.472 -0.0846 -0.3135  0.0738
16907TIP3    H172212   5.594   1.442   0.478 -0.2114 -0.2638 -1.0970
16907TIP3    H272213   5.657   1.569   0.424  0.6533 -0.3581 -0.3342
16908TIP3   OH272214   0.775   0.015  15.937  0.8493  0.3196 -0.1880
16908TIP3    H172215   0.755   0.091  15.882  0.4337 -0.1344 -0.6726
16908TIP3    H272216   0.871   0.012  15.939  0.9291 -0.6651 -2.3647
16909TIP3   OH272217   5.400   6.737  15.674 -0.3206 -0.2607 -0.3677
16909TIP3    H172218   5.425   6.828  15.654 -0.3457  0.0546  0.9574
16909TIP3    H272219   5.434   6.687  15.600  2.3266  0.4471  0.2447
16910TIP3   OH272220   1.904   5.407  15.114  0.4300  0.0766 -0.1189
16910TIP3    H172221   1.903   5.368  15.201  2.5678 -1.8957 -0.8776
16910TIP3    H272222   1.812   5.418  15.091 -0.1961 -1.3325  1.5380
16911TIP3   OH272223   4.446   5.126  13.627 -0.6366 -0.5782 -0.1690
16911TIP3    H172224   4.538   5.132  13.601 -0.1982 -1.3974  1.0751
16911TIP3    H272225   4.422   5.217  13.648 -0.0310 -0.3876 -0.2638
16912TIP3   OH272226   3.130   0.480   2.048 -0.8600  0.4440 -0.2926
16912TIP3    H172227   3.179   0.421   2.105 -4.0131 -1.5516  0.6160
16912TIP3    H272228   3.164   0.567   2.069  0.6138 -0.5635  1.9330
16913TIP3   OH272229   0.311   6.580   2.937  0.1349 -0.2432  0.2861
16913TIP3    H172230   0.336   6.521   3.008  0.7792 -1.1907 -0.6962
16913TIP3    H272231   0.379   6.568   2.871 -0.5238  0.5178 -0.5567
16914TIP3   OH272232   6.323   2.617   3.848  0.7605 -0.3203 -0.2446
16914TIP3    H172233   6.354   2.705   3.825  2.9136 -1.0264 -0.2946
16914TIP3    H272234   6.361   2.600   3.935 -1.5527 -0.3612  0.8509
16915TIP3   OH272235   3.776   0.804   0.643 -0.0975 -0.3708  0.3749
16915TIP3    H172236   3.868   0.803   0.616  0.3796 -0.0535  1.8805
16915TIP3    H272237   3.727   0.784   0.563  1.2693 -0.4459 -0.4749
16916TIP3   OH272238   5.846   2.472   4.809 -0.1306  0.2145 -0.3841
16916TIP3    H172239   5.823   2.468   4.716  0.1923 -0.1323 -0.4540
16916TIP3    H272240   5.874   2.383   4.830  0.6616  0.5050 -0.1829
16917TIP3   OH272241   0.387   5.847   0.188  0.2998  0.4171  0.5351
16917TIP3    H172242   0.348   5.761   0.203  0.2825  0.7534  2.6624
16917TIP3    H272243   0.479   5.828   0.169  0.2117 -0.0909  0.5882
16918TIP3   OH272244   5.576   3.563   3.093 -0.8951 -0.0251 -0.3404
16918TIP3    H172245   5.505   3.591   3.034 -1.9656  0.5429  1.1565
16918TIP3    H272246   5.533   3.549   3.177  0.8960  1.1336  0.8395
16919TIP3   OH272247   4.516   2.523   3.180 -0.4280  0.5260 -0.3348
16919TIP3    H172248   4.449   2.455   3.184 -0.1174  0.2550  0.7412
16919TIP3    H272249   4.509   2.567   3.265 -0.7328  1.9547 -1.0634
16920TIP3   OH272250   4.893   4.349   1.037  0.1913 -0.4286  0.3055
16920TIP3    H172251   4.907   4.370   1.129  0.4085  0.2408  0.1249
16920TIP3    H272252   4.849   4.264   1.038 -2.7493  0.9845  1.1416
16921TIP3   OH272253   6.347   1.768  15.208 -0.0002 -0.4418  0.2407
16921TIP3    H172254   6.390   1.793  15.127  1.0051  0.9672  1.1539
16921TIP3    H272255   6.255   1.790  15.194  0.1869 -0.0702 -0.4561
16922TIP3   OH272256   1.232   0.043   4.353  0.2262 -0.8276  0.2666
16922TIP3    H172257   1.208   0.030   4.261 -1.7745 -0.6499  0.7175
16922TIP3    H272258   1.247   0.137   4.360 -0.4926 -0.7083  0.2924
16923TIP3   OH272259   2.666   1.439   2.915 -0.1340 -0.4713 -0.0699
16923TIP3    H172260   2.587   1.473   2.956 -1.1729 -1.3753 -1.2415
16923TIP3    H272261   2.654   1.344   2.915  0.6582 -0.5834 -0.8256
16924TIP3   OH272262   5.711   3.653   5.653  0.2419 -0.5153  0.0021
16924TIP3    H172263   5.767   3.621   5.582 -0.8071 -1.4648 -0.4309
16924TIP3    H272264   5.635   3.595   5.651  0.5110 -1.0790  2.4021
16925TIP3   OH272265   3.213   1.752   3.280  0.7964  1.1491 -0.4537
16925TIP3    H172266   3.260   1.718   3.356 -1.1109  1.3610  0.8973
16925TIP3    H272267   3.125   1.716   3.289  0.0968  2.4603 -1.7195
16926TIP3   OH272268   0.889   2.479   5.544  0.3395  0.1718  0.0097
16926TIP3    H172269   0.878   2.517   5.631 -0.8418  0.7763 -0.3858
16926TIP3    H272270   0.801   2.457   5.515  0.7883 -0.7098 -0.7405
16927TIP3   OH272271   1.813   4.828  16.527  0.2714  0.0504  0.3846
16927TIP3    H172272   1.863   4.819  16.445  2.2766  1.5864  1.3713
16927TIP3    H272273   1.751   4.754  16.525  0.7655 -0.3859 -2.1434
16928TIP3   OH272274   5.230   3.163  12.253  0.3019 -0.0033 -0.2755
16928TIP3    H172275   5.274   3.127  12.176  1.3079  1.1076 -0.2419
16928TIP3    H272276   5.282   3.132  12.327 -1.4951 -2.3124  0.1476
16929TIP3   OH272277   2.808   4.474  15.364  0.7822  0.6494  0.5437
16929TIP3    H172278   2.903   4.479  15.373  0.6330  1.5982  1.9579
16929TIP3    H272279   2.782   4.402  15.422  0.3992  2.4931  2.8124
16930TIP3   OH272280   6.294   1.642  15.625 -0.0382  0.2294  0.3584
16930TIP3    H172281   6.270   1.729  15.591 -3.1559 -0.9800 -0.9260
16930TIP3    H272282   6.360   1.609  15.564 -1.3210  0.4038 -1.1743
16931TIP3   OH272283   4.851   3.127  12.040 -0.0658 -0.2458 -0.5877
16931TIP3    H172284   4.771   3.117  11.989 -0.9422  0.1047  0.6503
16931TIP3    H272285   4.917   3.157  11.977 -1.3291  1.0782 -1.3373
16932TIP3   OH272286   0.586   1.616  13.336 -0.3955  0.2222 -0.2001
16932TIP3    H172287   0.513   1.664  13.296 -1.4613 -0.5437  0.7667
16932TIP3    H272288   0.606   1.664  13.416 -0.7159 -0.2972  0.1965
16933TIP3   OH272289   5.901   6.181  12.538  0.2378 -0.0369  0.7235
16933TIP3    H172290   5.889   6.276  12.537 -0.0993 -0.0795 -0.2834
16933TIP3    H272291   5.995   6.168  12.524  0.1433  0.1466 -0.1694
16934TIP3   OH272292   6.582   3.694   4.757 -0.1208 -0.0094  0.0761
16934TIP3    H172293   6.631   3.613   4.773 -1.1849 -0.6427  0.2412
16934TIP3    H272294   6.496   3.676   4.794  0.0447  1.7185  1.4099
16935TIP3   OH272295   2.308   4.258   1.777 -0.3995  0.0024 -0.0653
16935TIP3    H172296   2.275   4.291   1.861  0.7730 -0.6856  0.6975
16935TIP3    H272297   2.403   4.260   1.786 -0.2613 -0.4975 -1.2278
16936TIP3   OH272298   0.739   4.852   4.610 -0.0191  0.4324 -0.6264
16936TIP3    H172299   0.729   4.757   4.605 -0.1819  0.4925 -1.5847
16936TIP3    H272300   0.795   4.866   4.686  2.3399 -0.6032 -2.0754
16937TIP3   OH272301   5.908   6.406  16.443  0.5706 -0.3398  0.4732
16937TIP3    H172302   5.933   6.404  16.536  1.4116  0.1375  0.2620
16937TIP3    H272303   5.964   6.473  16.405 -0.3787  0.0737 -0.2139
16938TIP3   OH272304   3.753   5.273  12.271 -0.3067 -0.2543  0.7411
16938TIP3    H172305   3.707   5.323  12.339 -1.7648 -0.9865  0.3420
16938TIP3    H272306   3.751   5.183  12.301 -1.6052 -0.7017 -0.5558
16939TIP3   OH272307   1.689   4.783  11.340  0.1444 -0.0513 -0.1542
16939TIP3    H172308   1.759   4.761  11.279  1.0859 -0.0977  0.9123
16939TIP3    H272309   1.724   4.855  11.393  0.3474 -1.6178  1.9741
16940TIP3   OH272310   5.057   6.157   1.906 -0.0972 -0.2726 -0.6217
16940TIP3    H172311   4.990   6.090   1.918 -3.2026  2.4001 -1.6999
16940TIP3    H272312   5.101   6.133   1.824 -0.8460 -1.1682 -0.7758
16941TIP3   OH272313   6.542   3.946   4.319 -0.3881 -0.1573 -0.8310
16941TIP3    H172314   6.618   3.952   4.261  0.5841 -0.7610  0.3271
16941TIP3    H272315   6.579   3.921   4.404 -1.8759 -0.2995 -0.1976
16942TIP3   OH272316   5.222   0.970   3.678  0.5227  0.1907 -0.0756
16942TIP3    H172317   5.165   0.898   3.708  1.2609  0.4694  2.2324
16942TIP3    H272318   5.277   0.989   3.754 -0.5288  4.0907 -0.1046
16943TIP3   OH272319   4.426   0.483  10.754 -0.1373  0.0964  0.0290
16943TIP3    H172320   4.340   0.447  10.732 -0.4703  0.7943  0.1631
16943TIP3    H272321   4.488   0.426  10.708 -0.7516  0.8244 -1.7829
16944TIP3   OH272322   1.562   3.725   6.038  0.0796 -0.0444 -0.7728
16944TIP3    H172323   1.542   3.674   5.959  1.0941  0.5258 -1.4378
16944TIP3    H272324   1.629   3.673   6.083  0.1765  0.0703 -0.7833
16945TIP3   OH272325   4.841   6.083   2.866 -0.2759 -0.1552 -0.2787
16945TIP3    H172326   4.918   6.076   2.809  0.7981 -0.3725  1.1351
16945TIP3    H272327   4.813   5.993   2.880 -1.0685 -0.0553 -1.1168
16946TIP3   OH272328   3.155   6.244  16.401 -0.2666  0.0490 -0.2762
16946TIP3    H172329   3.205   6.287  16.331 -1.3371  2.3332  0.2919
16946TIP3    H272330   3.206   6.260  16.480 -0.4242 -0.1949 -0.1215
16947TIP3   OH272331   0.882   2.519  13.800 -0.4187 -0.4641  0.1277
16947TIP3    H172332   0.924   2.575  13.865 -1.2503 -0.4566  0.6694
16947TIP3    H272333   0.950   2.503  13.735  0.4548 -0.5473  1.0410
16948TIP3   OH272334   0.929   2.084   4.722  0.6839 -0.1835  0.3373
16948TIP3    H172335   0.859   2.023   4.745  0.9855 -0.6786 -0.0270
16948TIP3    H272336   1.003   2.027   4.700  0.7909  0.3020 -0.5812
16949TIP3   OH272337   2.050   3.310   3.504 -0.5763  0.2447 -0.1619
16949TIP3    H172338   1.960   3.331   3.479 -1.2930 -2.7566 -0.5007
16949TIP3    H272339   2.061   3.351   3.590 -2.9400 -0.7964  0.7224
16950TIP3   OH272340   6.453   0.780   5.313  0.0604 -0.1106  0.4892
16950TIP3    H172341   6.467   0.810   5.223  2.5764  0.5666  1.0398
16950TIP3    H272342   6.488   0.849   5.368  1.5372 -1.8720  1.9039
16951TIP3   OH272343   0.964   6.740  15.175  0.3936  0.4690 -0.0249
16951TIP3    H172344   0.941   6.659  15.129  0.7703  1.3853 -1.9157
16951TIP3    H272345   0.887   6.759  15.229  0.2031 -0.9988  0.2639
16952TIP3   OH272346   2.864   1.391  16.293  0.6793 -0.1164 -0.0908
16952TIP3    H172347   2.954   1.358  16.298  0.5274 -0.8755 -1.7691
16952TIP3    H272348   2.810   1.319  16.326  0.6593  0.2792  0.7641
16953TIP3   OH272349   1.785   1.425   2.675 -0.6261 -0.1347  0.0453
16953TIP3    H172350   1.770   1.421   2.769 -0.2302  2.4029  0.3042
16953TIP3    H272351   1.879   1.413   2.664 -0.7193 -0.7836 -0.0729
16954TIP3   OH272352   3.557   1.405   5.399 -0.1161  0.3802 -0.0403
16954TIP3    H172353   3.620   1.452   5.455  1.0845  2.6048 -2.9970
16954TIP3    H272354   3.565   1.314   5.428  2.2053  1.0199  1.7784
16955TIP3   OH272355   2.632   2.937  16.317 -0.1818 -0.3231 -0.2240
16955TIP3    H172356   2.698   2.947  16.385  0.5576 -1.2895 -0.7749
16955TIP3    H272357   2.582   3.018  16.320  0.3653 -0.0051  0.9000
16956TIP3   OH272358   1.868   1.458   2.006 -0.7343 -0.6569 -0.2975
16956TIP3    H172359   1.841   1.403   2.079  5.3477  0.9574  3.9551
16956TIP3    H272360   1.855   1.547   2.037 -0.1129  0.1622 -2.2261
16957TIP3   OH272361   3.059   1.980   5.456  0.1629 -0.1531  0.0110
16957TIP3    H172362   3.026   1.891   5.467  0.5022 -0.2521  0.2543
16957TIP3    H272363   3.033   2.004   5.367  1.6670 -1.1820 -0.7571
16958TIP3   OH272364   6.286   4.335   0.369  0.0239 -0.0897  0.8620
16958TIP3    H172365   6.222   4.265   0.381  2.7158 -3.1884 -1.2197
16958TIP3    H272366   6.262   4.376   0.286 -0.7639  0.6370  1.4257
16959TIP3   OH272367   5.794   2.124  12.496 -0.5061 -0.4768  0.9264
16959TIP3    H172368   5.776   2.171  12.415  0.8650 -1.5639 -0.0480
16959TIP3    H272369   5.730   2.159  12.558 -1.1142  0.9012 -0.4063
16960TIP3   OH272370   6.572   6.664  16.669 -0.4582  0.2364 -0.2026
16960TIP3    H172371   6.606   6.754  16.671  2.7182 -0.8116  2.9923
16960TIP3    H272372   6.640   6.614  16.624 -0.2817 -1.0926  1.4354
16961TIP3   OH272373   4.172   4.741  13.517 -0.5785 -0.4020  0.7436
16961TIP3    H172374   4.163   4.791  13.436  2.0975  0.2028  0.7360
16961TIP3    H272375   4.135   4.655  13.496 -2.2099  0.5026 -0.2830
16962TIP3   OH272376   1.114   4.054   5.831  0.0750 -0.7800 -0.6208
16962TIP3    H172377   1.191   4.020   5.876  0.3405 -2.1747 -2.0677
16962TIP3    H272378   1.125   4.150   5.833  1.8302 -0.9537 -0.8305
16963TIP3   OH272379   3.418   0.878   1.655  0.2732 -0.1250  0.7711
16963TIP3    H172380   3.397   0.821   1.581  1.3093  1.9079 -1.2275
16963TIP3    H272381   3.489   0.834   1.700 -0.0115 -1.1572  0.2494
16964TIP3   OH272382   2.737   4.598  13.957 -0.6133  0.2578 -0.4702
16964TIP3    H172383   2.642   4.586  13.960 -0.6001  0.3890  1.2274
16964TIP3    H272384   2.754   4.675  14.012  0.6171 -0.9182  0.8981
16965TIP3   OH272385   0.273   0.445  11.834  0.3486  0.1783 -0.2610
16965TIP3    H172386   0.189   0.472  11.797  1.5160  1.9803 -1.8140
16965TIP3    H272387   0.306   0.381  11.771  0.1617 -0.5207  0.3429
16966TIP3   OH272388   3.690   3.556   2.433  0.5295  0.0161  0.1109
16966TIP3    H172389   3.652   3.643   2.421  2.5899  0.9450 -0.0692
16966TIP3    H272390   3.743   3.541   2.354  0.2557 -1.4031  0.1578
16967TIP3   OH272391   0.352   5.196  14.311  0.3901 -0.5018 -0.0936
16967TIP3    H172392   0.312   5.281  14.326  1.0550 -0.2297  0.1876
16967TIP3    H272393   0.404   5.179  14.390  0.9865 -0.7478 -0.5262
16968TIP3   OH272394   5.742   4.248  13.277  0.2406 -0.4325 -0.6887
16968TIP3    H172395   5.831   4.230  13.248  0.5102  1.7168 -1.3442
16968TIP3    H272396   5.719   4.330  13.235 -1.4848 -0.1345  0.7247
16969TIP3   OH272397   2.333   6.321   3.573  0.0094 -0.5173 -0.2203
16969TIP3    H172398   2.336   6.385   3.644 -0.8237  0.5729 -1.1411
16969TIP3    H272399   2.406   6.345   3.515 -0.5985 -0.0748 -0.8182
16970TIP3   OH272400   5.098   4.864   4.238  0.1300 -0.0896  0.0486
16970TIP3    H172401   5.172   4.827   4.287  0.3611 -0.8354 -0.8193
16970TIP3    H272402   5.025   4.863   4.300  0.7954  0.5121  0.8706
16971TIP3   OH272403   3.377   0.764  16.623 -0.0366  0.0550  0.5311
16971TIP3    H172404   3.323   0.703  16.673  0.7019 -0.7888  0.3020
16971TIP3    H272405   3.439   0.799  16.687 -0.7121  0.8982  0.7548
16972TIP3   OH272406   5.442   0.811   0.795  0.1630 -0.0920  0.6153
16972TIP3    H172407   5.433   0.833   0.887 -0.8483 -1.5698  0.8970
16972TIP3    H272408   5.424   0.717   0.790 -0.3811  0.0575 -1.1574
16973TIP3   OH272409   5.220   2.070  13.998 -1.0189  0.3169 -0.3915
16973TIP3    H172410   5.189   2.083  14.087 -2.9776 -1.4659 -0.7417
16973TIP3    H272411   5.166   1.999  13.963 -0.5251  1.1420 -3.1059
16974TIP3   OH272412   2.422   0.518  11.584 -0.3104 -0.1733  0.0436
16974TIP3    H172413   2.375   0.472  11.514  0.0118  1.3476 -1.2330
16974TIP3    H272414   2.365   0.590  11.609  1.3126  1.8344 -1.6857
16975TIP3   OH272415   2.125   3.912   3.154  0.4682 -0.0359 -0.1089
16975TIP3    H172416   2.124   3.999   3.115 -0.5465  0.8610  1.7525
16975TIP3    H272417   2.033   3.889   3.166  0.6829 -1.8450 -1.4686
16976TIP3   OH272418   3.285   0.916   2.187 -0.1199 -0.2159  0.6202
16976TIP3    H172419   3.204   0.865   2.190 -0.0830 -0.2615  2.4070
16976TIP3    H272420   3.333   0.881   2.113 -2.0988  0.4452 -1.0949
16977TIP3   OH272421   6.777   3.002   2.289  0.0184  0.2913  0.0956
16977TIP3    H172422   6.710   2.949   2.246  0.3229 -0.5496  0.6426
16977TIP3    H272423   6.730   3.082   2.316 -0.2314  0.7354 -1.5366
16978TIP3   OH272424   5.165   4.656   3.346 -1.1306  0.3623  0.1097
16978TIP3    H172425   5.140   4.566   3.326  2.5713 -0.8730  0.2124
16978TIP3    H272426   5.142   4.667   3.438 -0.6374 -0.9411  0.4185
16979TIP3   OH272427   1.959   3.030  11.168 -0.3526  0.1715 -0.4472
16979TIP3    H172428   1.866   3.034  11.146 -0.3304  0.6642 -0.4505
16979TIP3    H272429   2.002   3.009  11.085 -0.4364  0.1966 -0.4975
16980TIP3   OH272430   0.555   1.658  13.619 -0.1129 -0.0907  0.3825
16980TIP3    H172431   0.525   1.748  13.628 -2.1618 -0.7317  0.4887
16980TIP3    H272432   0.510   1.610  13.688  1.3868 -1.1231  0.6996
16981TIP3   OH272433   5.501   5.316  14.830  0.1967  0.1960  0.3045
16981TIP3    H172434   5.446   5.366  14.770 -1.1434  0.6606  1.8325
16981TIP3    H272435   5.585   5.308  14.786 -0.8004  0.3146 -1.7096
16982TIP3   OH272436   1.663   3.407   4.124  0.0997  0.4383 -0.7189
16982TIP3    H172437   1.606   3.358   4.184  1.1168  0.9176  0.6858
16982TIP3    H272438   1.718   3.341   4.083  0.0151  0.1952 -0.4410
16983TIP3   OH272439   0.502   3.365   2.321 -0.9467 -0.8153 -0.0620
16983TIP3    H172440   0.432   3.398   2.378 -0.3137  0.8459 -0.1894
16983TIP3    H272441   0.558   3.313   2.378 -2.3436 -2.3278  0.0071
16984TIP3   OH272442   3.899   0.349   1.804  0.3650  0.2998  0.3491
16984TIP3    H172443   3.812   0.309   1.806 -0.2248  1.5534  1.0969
16984TIP3    H272444   3.897   0.413   1.875  2.0204  0.1221  0.5881
16985TIP3   OH272445   2.400   4.116  14.995  0.2403  0.2572 -0.2344
16985TIP3    H172446   2.337   4.068  15.049 -1.9014  0.9338 -2.0017
16985TIP3    H272447   2.442   4.049  14.941  0.3006 -0.0871  0.2403
16986TIP3   OH272448   3.912   4.930   2.127  0.2076  0.1108  0.2115
16986TIP3    H172449   3.987   4.950   2.070  1.0305  0.8285  1.4869
16986TIP3    H272450   3.840   4.912   2.067  1.6914 -1.9107 -1.1000
16987TIP3   OH272451   0.895   2.577   2.595 -0.7207  0.1544  0.0299
16987TIP3    H172452   0.977   2.534   2.573 -0.3880  1.1219 -0.6484
16987TIP3    H272453   0.893   2.578   2.691  0.4677  0.8861  0.0604
16988TIP3   OH272454   3.256   3.130   5.867 -0.0411 -0.8877 -0.1694
16988TIP3    H172455   3.168   3.148   5.899 -0.4185 -1.0460 -1.0687
16988TIP3    H272456   3.243   3.064   5.798  0.4638  0.8558 -2.0459
16989TIP3   OH272457   3.109   2.111   2.925 -0.7709 -0.3513  0.6107
16989TIP3    H172458   3.188   2.084   2.972  0.7825  0.1973 -1.5285
16989TIP3    H272459   3.067   2.174   2.983 -0.4171 -1.6444  2.3801
16990TIP3   OH272460   5.361   6.388  16.675 -0.2072 -0.2277 -0.3935
16990TIP3    H172461   5.438   6.365  16.727  0.3627  0.5164 -0.9013
16990TIP3    H272462   5.349   6.314  16.616  1.3572  0.5341 -1.7150
16991TIP3   OH272463   5.862   3.594   5.175  0.1311  0.2261 -0.1069
16991TIP3    H172464   5.857   3.565   5.084  1.0003  0.5077 -0.2590
16991TIP3    H272465   5.819   3.679   5.176 -1.4450 -0.5419  0.1165
16992TIP3   OH272466   6.648   2.842  16.309 -0.1631  0.5406  0.1135
16992TIP3    H172467   6.742   2.834  16.294 -0.2447  1.4959 -1.0046
16992TIP3    H272468   6.620   2.753  16.332  0.7467 -0.0763 -1.0868
16993TIP3   OH272469   2.615   1.081   5.632 -0.3767 -0.6329 -0.3662
16993TIP3    H172470   2.619   1.137   5.710  1.9840 -2.2356  0.7873
16993TIP3    H272471   2.539   1.025   5.647 -0.3363 -0.4766  0.4708
16994TIP3   OH272472   3.112   2.644  10.178 -0.0172  0.0654  0.5284
16994TIP3    H172473   3.107   2.550  10.195 -1.3723  0.1492  0.6568
16994TIP3    H272474   3.028   2.679  10.208  0.8115  1.4610  1.3283
16995TIP3   OH272475   4.845   1.396  17.003 -0.1031  0.2999 -0.1341
16995TIP3    H172476   4.840   1.485  16.966 -0.8583  0.3784  0.1320
16995TIP3    H272477   4.784   1.397  17.076 -0.4253 -0.5592 -0.3761
16996TIP3   OH272478   1.887   6.232  15.848  0.2203  0.5598 -0.0236
16996TIP3    H172479   1.843   6.278  15.920 -0.4223  1.3303 -0.8821
16996TIP3    H272480   1.819   6.177  15.809  0.9561 -1.1013  0.9165
16997TIP3   OH272481   6.025   4.005   3.906 -0.2412 -0.3063  0.3969
16997TIP3    H172482   5.971   4.047   3.973 -2.1947 -0.2525 -1.1194
16997TIP3    H272483   5.962   3.966   3.845  1.4425 -0.3943 -1.3924
16998TIP3   OH272484   3.845   0.074   2.268 -0.3311  0.0682  0.3034
16998TIP3    H172485   3.901   0.017   2.215 -0.4944  1.1987 -1.1470
16998TIP3    H272486   3.758   0.067   2.228 -1.0075 -0.8046  1.8537
16999TIP3   OH272487   1.574   0.942   0.231 -0.2415  0.0590  0.6511
16999TIP3    H172488   1.662   0.966   0.259  1.1846 -1.5767 -1.9775
16999TIP3    H272489   1.558   0.857   0.272 -0.4464  0.1896  0.8417
17000TIP3   OH272490   4.607   4.273  15.419  0.3480 -0.1278  0.2180
17000TIP3    H172491   4.656   4.330  15.478 -0.8292  0.7215  0.3946
17000TIP3    H272492   4.654   4.280  15.335 -0.7366  2.5056 -0.2575
17001TIP3   OH272493   5.059   0.880  11.736 -0.0365  0.0262 -0.0817
17001TIP3    H172494   5.110   0.960  11.728 -3.0639  2.0428 -1.4684
17001TIP3    H272495   5.034   0.875  11.828  2.8268 -1.2557  0.7162
17002TIP3   OH272496   6.532   4.157   0.109  0.6812 -0.1724  0.2298
17002TIP3    H172497   6.453   4.121   0.149  0.8659  0.2429  0.9942
17002TIP3    H272498   6.523   4.139   0.016 -0.4608  0.1468  0.2670
17003TIP3   OH272499   5.427   4.527  16.547  0.1936  0.0710 -0.5947
17003TIP3    H172500   5.504   4.567  16.508  0.1397  0.3510 -0.4147
17003TIP3    H272501   5.358   4.537  16.482  0.0296  0.7906 -0.3192
17004TIP3   OH272502   6.679   4.672  15.890 -0.5788  0.7551 -0.7001
17004TIP3    H172503   6.717   4.584  15.884 -0.1518  1.0164 -2.6643
17004TIP3    H272504   6.606   4.671  15.828 -0.6339  1.7429 -0.6649
17005TIP3   OH272505   2.613   3.292  16.393  0.5093  0.0709 -0.1478
17005TIP3    H172506   2.706   3.272  16.401  0.9502  2.0389 -0.0106
17005TIP3    H272507   2.575   3.261  16.476  1.4576  1.3429  0.7923
17006TIP3   OH272508   4.239   2.698   1.181 -0.5100  0.3208 -0.1165
17006TIP3    H172509   4.248   2.603   1.187 -1.8391  0.1142 -0.9497
17006TIP3    H272510   4.236   2.716   1.087  0.3215  1.2576  0.0218
17007TIP3   OH272511   1.546   0.428   1.510  0.3427 -0.2992  0.5374
17007TIP3    H172512   1.604   0.396   1.441 -0.4198 -0.4664 -0.0346
17007TIP3    H272513   1.549   0.360   1.577  0.2474 -0.6521  0.1880
17008TIP3   OH272514   3.939   6.536  14.360 -0.1952 -0.7944  0.3992
17008TIP3    H172515   4.021   6.562  14.319 -0.5539  0.1379  0.2430
17008TIP3    H272516   3.956   6.450  14.398  1.3436  0.0650  1.7839
17009TIP3   OH272517   2.790   1.810   2.972 -0.2921 -0.1877  0.0015
17009TIP3    H172518   2.835   1.730   2.945  1.1197  0.3102  0.7642
17009TIP3    H272519   2.837   1.880   2.926 -0.1445  0.3575  0.9592
17010TIP3   OH272520   1.980   0.225  14.135  0.2987 -0.3376 -0.1046
17010TIP3    H172521   1.892   0.199  14.163  0.2330 -2.5888 -2.1817
17010TIP3    H272522   2.030   0.229  14.217 -1.3481 -0.3843  0.9685
17011TIP3   OH272523   6.732   6.305  11.071  0.1904  0.4806 -0.1677
17011TIP3    H172524   6.762   6.396  11.078 -0.7116  0.6737  2.4693
17011TIP3    H272525   6.813   6.255  11.060  0.7472  1.5320 -1.1723
17012TIP3   OH272526   2.782   4.542   4.051  0.5260 -0.0960  0.1054
17012TIP3    H172527   2.865   4.550   4.097  1.2706  0.2656 -1.2600
17012TIP3    H272528   2.778   4.620   3.996 -1.9168  1.2654  1.9737
17013TIP3   OH272529   5.789   4.241  14.791 -0.9246 -0.2653  0.3073
17013TIP3    H172530   5.716   4.300  14.773 -1.9670 -1.8883 -1.2074
17013TIP3    H272531   5.748   4.164  14.831 -0.1513 -1.3874 -0.9758
17014TIP3   OH272532   0.943   1.910  15.666 -0.0373  0.0461 -0.3000
17014TIP3    H172533   0.890   1.980  15.626 -0.5445  0.3196  0.8200
17014TIP3    H272534   0.960   1.850  15.593  1.3109  1.8268 -1.5414
17015TIP3   OH272535   1.034   1.760  12.448 -0.1532  0.1935  0.0097
17015TIP3    H172536   0.998   1.846  12.428  0.2315  0.1574 -0.8718
17015TIP3    H272537   0.957   1.704  12.459 -0.3931  0.4159 -0.5016
17016TIP3   OH272538   0.945   3.003  15.539  0.3932  0.4826 -0.6711
17016TIP3    H172539   0.892   3.027  15.463  1.5578  1.1791 -1.3051
17016TIP3    H272540   0.997   3.082  15.558  1.1856 -0.1605 -0.0871
17017TIP3   OH272541   6.688   2.302  15.324  0.1991 -0.1362  0.3799
17017TIP3    H172542   6.713   2.389  15.355 -0.0515  0.0102  0.1774
17017TIP3    H272543   6.764   2.272  15.273  1.3264 -1.0946  2.5113
17018TIP3   OH272544   4.769   1.211  12.999 -0.8715  0.2864 -0.2365
17018TIP3    H172545   4.710   1.260  12.941 -0.7115 -0.7975 -1.3714
17018TIP3    H272546   4.773   1.263  13.079 -2.4667  0.9718 -0.5592
17019TIP3   OH272547   1.092   0.936   4.871 -0.3868 -0.5679 -0.0627
17019TIP3    H172548   1.128   0.914   4.785 -0.2084  1.4830 -0.5638
17019TIP3    H272549   1.168   0.964   4.922 -0.7430  0.0608  0.1345
17020TIP3   OH272550   3.112   0.779   1.710  0.2347 -0.4244 -0.2926
17020TIP3    H172551   3.160   0.829   1.776 -0.8093  0.1006  0.0943
17020TIP3    H272552   3.068   0.710   1.759  1.0664 -1.2994 -0.7281
17021TIP3   OH272553   4.002   0.475   6.077 -0.0266 -0.0736  0.7662
17021TIP3    H172554   3.938   0.443   6.141 -1.2127  2.4061  0.9376
17021TIP3    H272555   4.017   0.566   6.102  1.6587  0.1316 -0.8245
17022TIP3   OH272556   4.719   5.887  11.341 -0.1143 -0.1353 -0.6826
17022TIP3    H172557   4.764   5.804  11.349  0.2743  0.1108 -0.3346
17022TIP3    H272558   4.628   5.863  11.320 -1.0615 -0.8342  3.3455
17023TIP3   OH272559   0.784   2.576   2.069  0.8352 -0.1453  0.1496
17023TIP3    H172560   0.769   2.544   2.158  3.6413 -2.4677 -0.0728
17023TIP3    H272561   0.878   2.566   2.055  0.3689 -1.0648 -3.4715
17024TIP3   OH272562   3.834   3.695   3.883  0.3406  0.7951  0.0293
17024TIP3    H172563   3.877   3.765   3.834 -1.5761  2.5020  0.6273
17024TIP3    H272564   3.789   3.644   3.817 -0.2313  1.6161 -0.2302
17025TIP3   OH272565   0.162   2.736   2.196  0.1892 -0.3361 -0.1418
17025TIP3    H172566   0.153   2.759   2.288  1.8786  0.6175 -0.1731
17025TIP3    H272567   0.112   2.804   2.150 -1.6272 -1.4688  0.0755
17026TIP3   OH272568   2.184   2.524  14.397 -0.5258  0.1232 -0.0418
17026TIP3    H172569   2.276   2.551  14.400 -0.5152  0.0757  0.1018
17026TIP3    H272570   2.187   2.428  14.393 -0.5723  0.0885  0.5584
17027TIP3   OH272571   6.640   6.714   0.566  0.6327 -0.7468  0.1577
17027TIP3    H172572   6.683   6.751   0.643  0.7213 -1.7444  0.6073
17027TIP3    H272573   6.694   6.743   0.492 -0.3733  1.6180  0.2505
17028TIP3   OH272574   6.252   0.400  16.724 -0.5177 -0.1824 -0.2747
17028TIP3    H172575   6.240   0.455  16.802 -0.6264 -0.8879  0.2201
17028TIP3    H272576   6.248   0.311  16.758 -2.6719 -0.5601 -1.3917
17029TIP3   OH272577   0.837   1.150  15.491  0.1534 -0.3701 -0.0182
17029TIP3    H172578   0.755   1.116  15.527  0.1302  0.5256  0.8249
17029TIP3    H272579   0.899   1.077  15.501 -0.3851 -0.8458 -0.1043
17030TIP3   OH272580   6.133   4.400  15.797  0.3924  0.1153 -0.1533
17030TIP3    H172581   6.186   4.463  15.748 -0.0441  1.0339  0.5418
17030TIP3    H272582   6.146   4.424  15.889 -0.3791 -0.3360  0.0785
17031TIP3   OH272583   5.224   5.208   0.439 -0.6642 -0.2649 -0.5705
17031TIP3    H172584   5.267   5.293   0.449  0.5301 -0.7829 -1.1512
17031TIP3    H272585   5.212   5.176   0.528 -2.0204  0.9124 -0.2760
17032TIP3   OH272586   2.864   2.751  16.472  0.1085 -0.5445  0.3747
17032TIP3    H172587   2.804   2.713  16.408  1.8330 -1.0496 -1.0492
17032TIP3    H272588   2.840   2.711  16.555 -0.2426 -2.2660 -0.5066
17033TIP3   OH272589   2.744   2.191  14.453  0.0358 -0.5352 -0.1385
17033TIP3    H172590   2.663   2.147  14.425  0.7422 -0.1231 -3.1970
17033TIP3    H272591   2.752   2.266  14.394  1.9310  0.2676  1.0574
17034TIP3   OH272592   3.109   3.712   3.088  0.3114  0.3216  0.4027
17034TIP3    H172593   3.082   3.752   3.005 -0.8898 -0.5711  0.3384
17034TIP3    H272594   3.029   3.673   3.123  0.9160  0.2185  1.7255
17035TIP3   OH272595   2.416   3.482  14.607  0.2849 -0.4197 -0.2520
17035TIP3    H172596   2.401   3.390  14.627 -2.1556  0.4212  2.5263
17035TIP3    H272597   2.397   3.527  14.689  4.5785  2.3927 -0.5082
17036TIP3   OH272598   0.752   2.322  13.151  0.7074 -0.1100 -0.3170
17036TIP3    H172599   0.744   2.258  13.080 -1.0370  0.1029 -0.3651
17036TIP3    H272600   0.789   2.273  13.224 -4.6313 -2.6907  1.2170
17037TIP3   OH272601   5.478   6.475  15.427  0.4721 -0.5425  0.3386
17037TIP3    H172602   5.484   6.417  15.504 -0.7334  0.1416  0.9709
17037TIP3    H272603   5.558   6.456  15.378  0.1079 -2.7782  0.4873
17038TIP3   OH272604   3.778   4.251  15.938  0.2098  0.5635 -0.4443
17038TIP3    H172605   3.800   4.333  15.981  1.7415  0.5192 -1.0940
17038TIP3    H272606   3.853   4.194  15.954 -0.4160 -0.3985 -0.7995
17039TIP3   OH272607   6.023   1.991   4.397 -0.1990  0.2487  0.4034
17039TIP3    H172608   6.017   2.035   4.312 -0.4307  1.5830  1.0934
17039TIP3    H272609   6.022   2.061   4.461  0.4799 -0.7102  1.5084
17040TIP3   OH272610   3.383   4.099   1.323 -0.0305  0.0212 -0.3256
17040TIP3    H172611   3.389   4.020   1.377 -1.4148  0.5606  0.6814
17040TIP3    H272612   3.345   4.070   1.241 -2.1325 -0.1580  0.6418
17041TIP3   OH272613   5.699   1.496   4.922  0.3229  0.1514  0.2477
17041TIP3    H172614   5.727   1.503   4.831 -2.2513  0.7690 -0.5686
17041TIP3    H272615   5.650   1.577   4.938  0.1916 -0.2399  1.9820
17042TIP3   OH272616   3.058   1.383   2.890 -0.1222  0.0798  0.3985
17042TIP3    H172617   3.057   1.444   2.964  1.0889  0.2035  0.3265
17042TIP3    H272618   3.105   1.429   2.821 -0.4499 -0.3862 -0.1389
17043TIP3   OH272619   3.692   1.919   3.434  0.0186  0.7800  0.0152
17043TIP3    H172620   3.651   1.833   3.443 -1.4939  1.3346 -1.1433
17043TIP3    H272621   3.633   1.968   3.378  1.1187  2.4255  0.2178
17044TIP3   OH272622   2.348   1.830   0.123 -0.0793  0.3264  0.1559
17044TIP3    H172623   2.377   1.915   0.156 -1.9086  1.5601 -1.2202
17044TIP3    H272624   2.258   1.844   0.095 -0.6451 -2.2380  0.3990
17045TIP3   OH272625   2.529   5.530  11.139  0.5349 -0.7772  0.6768
17045TIP3    H172626   2.488   5.444  11.141 -0.1937 -0.4716 -0.2032
17045TIP3    H272627   2.622   5.513  11.153  0.7781 -2.0038 -1.7774
17046TIP3   OH272628   1.979   4.297   3.696  0.1217  0.0319 -0.1460
17046TIP3    H172629   1.986   4.202   3.706 -0.7306 -0.1122 -0.8827
17046TIP3    H272630   1.896   4.312   3.652 -2.1490  1.4042  4.0360
17047TIP3   OH272631   0.279   0.660  11.240  0.0566  0.0402  0.1924
17047TIP3    H172632   0.302   0.752  11.225 -0.1512 -0.0588 -0.8135
17047TIP3    H272633   0.350   0.611  11.199 -0.0768 -0.2428  0.3005
17048TIP3   OH272634   4.746   5.261   2.223  0.1728 -0.4396 -0.5619
17048TIP3    H172635   4.665   5.282   2.269  0.2286 -2.6314  0.6332
17048TIP3    H272636   4.718   5.233   2.136 -0.2689 -0.1989 -0.4999
17049TIP3   OH272637   0.662   1.689  11.786 -0.7913  0.1414 -0.2988
17049TIP3    H172638   0.658   1.666  11.693  0.7433  0.9492 -0.6064
17049TIP3    H272639   0.622   1.776  11.791 -1.3425 -0.1179 -0.1041
17050TIP3   OH272640   1.978   5.760  11.506 -0.4041  0.2127 -0.5185
17050TIP3    H172641   1.932   5.754  11.590  0.8340  4.2709  0.6749
17050TIP3    H272642   2.062   5.800  11.527 -0.1164  1.6095 -3.6988
17051TIP3   OH272643   2.278   1.982  11.236  0.2092 -0.1228 -0.2713
17051TIP3    H172644   2.365   2.018  11.218  0.5929 -0.6158  0.5237
17051TIP3    H272645   2.285   1.890  11.210  0.4870 -0.6090  1.4078
17052TIP3   OH272646   3.322   2.364   1.267 -0.2035  1.0312  0.6941
17052TIP3    H172647   3.258   2.347   1.335 -0.7016  0.0108 -0.0059
17052TIP3    H272648   3.361   2.278   1.249 -0.3962  1.2055 -0.6088
17053TIP3   OH272649   3.440   0.588   6.364  0.0257 -0.9396 -0.1201
17053TIP3    H172650   3.390   0.624   6.291  0.8076 -0.0980 -0.2662
17053TIP3    H272651   3.382   0.524   6.404 -1.3412  0.2976 -0.0164
17054TIP3   OH272652   1.086   4.974  12.096 -0.5057  0.1668 -0.2452
17054TIP3    H172653   0.995   4.951  12.111  0.3315 -3.1426  0.8097
17054TIP3    H272654   1.104   5.046  12.156 -1.9951 -0.3064  0.8092
17055TIP3   OH272655   1.610   6.319  11.897 -0.3899  0.1350 -0.3489
17055TIP3    H172656   1.615   6.405  11.855  0.6125 -0.9447 -2.6323
17055TIP3    H272657   1.700   6.301  11.925 -0.1849 -0.8793 -1.5461
17056TIP3   OH272658   4.945   2.534  13.183 -0.3032  0.4794 -0.0140
17056TIP3    H172659   4.949   2.461  13.244 -3.8949  0.2373  0.1023
17056TIP3    H272660   4.899   2.500  13.107 -3.1017  2.7777  0.4821
17057TIP3   OH272661   2.534   2.469   5.260 -0.6119 -0.5585  0.1297
17057TIP3    H172662   2.527   2.561   5.285 -1.6238  0.1365 -2.3402
17057TIP3    H272663   2.621   2.442   5.288 -0.0476  1.3459  0.3115
17058TIP3   OH272664   5.193   4.255   0.770 -0.0472  0.1645 -0.0242
17058TIP3    H172665   5.150   4.235   0.686  1.2267 -0.1773 -0.6228
17058TIP3    H272666   5.226   4.344   0.759 -0.5505  0.4096  0.4166
17059TIP3   OH272667   0.485   5.393  14.748 -0.2445  0.1269  0.2980
17059TIP3    H172668   0.418   5.345  14.700  0.0277  1.0579 -1.0495
17059TIP3    H272669   0.566   5.378  14.699  0.3661 -0.2121  1.3766
17060TIP3   OH272670   5.684   2.387   1.944  0.1991  0.3040  0.3306
17060TIP3    H172671   5.594   2.387   1.909  0.8320 -1.4148 -1.5594
17060TIP3    H272672   5.677   2.341   2.027 -0.5382 -0.9472 -0.3859
17061TIP3   OH272673   6.097   6.482  13.582 -0.1424  0.2044  0.1740
17061TIP3    H172674   6.038   6.436  13.642 -0.8529  0.5847 -0.2237
17061TIP3    H272675   6.152   6.536  13.638  1.0071 -1.4315  0.7005
17062TIP3   OH272676   1.556   4.624  14.755  0.1544 -0.6031  0.4427
17062TIP3    H172677   1.468   4.660  14.769 -0.2963 -1.3397 -0.3654
17062TIP3    H272678   1.569   4.631  14.661  1.5817  0.8566  0.7185
17063TIP3   OH272679   1.378   5.576   5.639 -0.6676  0.3795  0.1403
17063TIP3    H172680   1.434   5.559   5.714  0.8845  0.3479 -0.9609
17063TIP3    H272681   1.327   5.653   5.663 -0.2949  0.2822  1.2674
17064TIP3   OH272682   5.786   4.860   1.480  0.1064 -0.7487  0.3698
17064TIP3    H172683   5.700   4.824   1.499  0.5564 -0.9350  2.3376
17064TIP3    H272684   5.835   4.848   1.562  1.1344  1.8194  0.2303
17065TIP3   OH272685   5.446   1.687  17.033  0.7217  0.0072  0.1409
17065TIP3    H172686   5.384   1.670  16.961  1.2907  1.1667 -0.6532
17065TIP3    H272687   5.532   1.675  16.994  1.0323 -0.0502  0.8335
17066TIP3   OH272688   4.289   4.482   5.677  0.0085  0.1870 -0.1735
17066TIP3    H172689   4.255   4.541   5.745 -0.2473 -1.4748  1.2361
17066TIP3    H272690   4.357   4.431   5.722  1.6597  0.7743 -1.8954
17067TIP3   OH272691   6.809   5.178   6.055  0.2292 -0.1819 -0.2431
17067TIP3    H172692   6.882   5.117   6.067 -1.6916 -2.8694 -1.3756
17067TIP3    H272693   6.755   5.167   6.133 -1.0663 -1.3740 -1.2670
17068TIP3   OH272694   1.857   1.458   4.923  0.2781 -0.3820 -0.1189
17068TIP3    H172695   1.857   1.449   4.828  0.4958 -0.2903 -0.1289
17068TIP3    H272696   1.792   1.396   4.953  0.3144 -0.5180 -0.3193
17069TIP3   OH272697   0.441   6.682  14.426 -0.4779  0.2763  0.2064
17069TIP3    H172698   0.417   6.775  14.427  0.7746  0.6512 -1.2570
17069TIP3    H272699   0.524   6.679  14.380 -1.3463 -1.7686 -1.3800
17070TIP3   OH272700   2.725   2.182  12.692 -0.1963  1.1145 -0.6247
17070TIP3    H172701   2.707   2.210  12.603 -1.2268 -0.2232 -0.8731
17070TIP3    H272702   2.811   2.140  12.688 -0.4350  0.6625 -1.0913
17071TIP3   OH272703   6.271   6.651  14.452  0.0802 -0.2442 -0.8848
17071TIP3    H172704   6.219   6.627  14.375  0.8421 -1.7366 -0.9738
17071TIP3    H272705   6.207   6.675  14.518 -0.6472 -0.3520 -1.5386
17072TIP3   OH272706   3.670   2.698  13.088 -0.2931 -0.4790  0.0737
17072TIP3    H172707   3.650   2.630  13.153 -2.0732 -0.5718 -0.5287
17072TIP3    H272708   3.585   2.735  13.065  0.5174  0.9791 -0.6797
17073TIP3   OH272709   5.370   2.090  15.319  0.0547 -0.2107 -0.4574
17073TIP3    H172710   5.453   2.138  15.324 -0.6032  0.8500  1.3938
17073TIP3    H272711   5.395   1.998  15.312  1.3633  0.1548 -0.8597
17074TIP3   OH272712   3.919   3.501   5.294  0.2301 -0.1581  0.3817
17074TIP3    H172713   3.997   3.453   5.266  0.6065  0.6228  0.0594
17074TIP3    H272714   3.890   3.456   5.373  1.0004 -0.4733  0.4947
17075TIP3   OH272715   2.362   5.045   0.829  0.2046 -0.2332 -0.1517
17075TIP3    H172716   2.356   4.950   0.834  2.3093 -0.3553  1.0672
17075TIP3    H272717   2.365   5.074   0.920  1.7700  0.7945 -0.4877
17076TIP3   OH272718   1.878   4.029  13.739  0.2641  0.2473  0.3407
17076TIP3    H172719   1.795   4.069  13.712 -0.7259 -1.5377  0.5427
17076TIP3    H272720   1.911   4.086  13.808 -1.4343  0.3466  1.1281
17077TIP3   OH272721   6.434   4.548  15.754  0.3270  0.1557  0.0787
17077TIP3    H172722   6.367   4.576  15.691  0.8924 -0.7853 -1.0010
17077TIP3    H272723   6.476   4.473  15.711  1.6093  0.2972  1.0359
17078TIP3   OH272724   1.227   1.640   1.738  0.6378 -0.4434 -0.0323
17078TIP3    H172725   1.239   1.710   1.802  0.7192  0.2889 -0.8288
17078TIP3    H272726   1.270   1.672   1.658  0.9946 -1.5546 -0.3107
17079TIP3   OH272727   0.070   6.674  13.830  0.1221  0.1287 -0.5950
17079TIP3    H172728   0.030   6.671  13.917  0.3330  0.7071 -0.4728
17079TIP3    H272729   0.109   6.587  13.819  1.6592  0.5974  0.6486
17080TIP3   OH272730   5.558   2.945   6.004  0.1411  0.5560  0.7778
17080TIP3    H172731   5.540   2.888   5.929  0.6458  0.9970  0.3131
17080TIP3    H272732   5.475   2.949   6.052  0.1279 -0.6520  0.8807
17081TIP3   OH272733   2.534   6.692   5.995  0.3531 -0.0811  0.7787
17081TIP3    H172734   2.568   6.728   6.077  0.6977 -3.0715  2.0884
17081TIP3    H272735   2.441   6.679   6.011  0.4748 -0.9418  0.8084
17082TIP3   OH272736   4.051   6.238   1.846  0.1491  0.2939 -0.5178
17082TIP3    H172737   4.139   6.203   1.833  0.0805  0.0181 -0.2542
17082TIP3    H272738   3.994   6.162   1.837 -0.1516  0.6461 -1.7048
17083TIP3   OH272739   6.348   0.966  13.089  0.6031  0.1635 -0.3798
17083TIP3    H172740   6.257   0.976  13.116  0.8543 -0.9415  0.9739
17083TIP3    H272741   6.398   1.021  13.149  0.9337 -0.1570 -0.3571
17084TIP3   OH272742   3.226   5.616  12.889 -0.1439 -0.2330 -0.2471
17084TIP3    H172743   3.273   5.540  12.924  0.7087  0.2647 -0.2748
17084TIP3    H272744   3.142   5.616  12.935 -0.7905 -2.0498 -1.3345
17085TIP3   OH272745   6.043   2.128  16.572 -0.5242 -0.2751 -0.1651
17085TIP3    H172746   6.083   2.056  16.522  1.2167  1.0208 -0.7679
17085TIP3    H272747   5.979   2.166  16.512  0.1406  0.0291 -0.7076
17086TIP3   OH272748   2.074   5.263  11.140 -0.0614 -0.0996  0.5105
17086TIP3    H172749   2.052   5.170  11.139  1.5729 -0.5429  1.3787
17086TIP3    H272750   2.106   5.282  11.052 -2.9895  0.3901 -0.5548
17087TIP3   OH272751   5.228   4.251  11.804 -0.1743 -0.2823 -0.1136
17087TIP3    H172752   5.255   4.275  11.716  1.2924 -1.8780 -0.1318
17087TIP3    H272753   5.136   4.225  11.795  0.5701 -2.6041 -1.6362
17088TIP3   OH272754   4.967   4.015  12.386 -0.3643  0.1083  0.3880
17088TIP3    H172755   5.003   3.927  12.376 -1.8245 -0.6847  1.6351
17088TIP3    H272756   4.946   4.043  12.297 -2.3570 -1.9269  0.1260
17089TIP3   OH272757   6.195   2.150   3.060  0.1235 -0.1199 -0.4533
17089TIP3    H172758   6.278   2.172   3.103  0.3693  0.5161 -1.2285
17089TIP3    H272759   6.132   2.144   3.132  1.3049 -3.3212  0.5421
17090TIP3   OH272760   1.526   6.416   4.669 -0.0074  0.2681 -0.0763
17090TIP3    H172761   1.490   6.500   4.697 -0.3095  0.6311 -1.5105
17090TIP3    H272762   1.480   6.395   4.588  0.5374 -0.9658 -0.0911
17091TIP3   OH272763   5.487   3.452   5.968  0.1664 -0.2621 -0.1004
17091TIP3    H172764   5.523   3.513   6.032 -1.2068 -1.7125  2.1569
17091TIP3    H272765   5.392   3.463   5.974 -0.0383 -1.2170 -1.1138
17092TIP3   OH272766   1.670   1.545   0.333  0.1979  0.2906 -0.3777
17092TIP3    H172767   1.650   1.629   0.292 -0.1993 -0.0745 -0.9475
17092TIP3    H272768   1.585   1.510   0.359  0.4368  0.4781  0.7004
17093TIP3   OH272769   1.056   4.657   0.855  0.2356 -0.4680  0.0255
17093TIP3    H172770   1.011   4.736   0.825  0.8818 -0.5578 -1.2350
17093TIP3    H272771   1.138   4.655   0.806  0.5131 -1.6029  0.4850
17094TIP3   OH272772   2.402   6.491  16.785  0.4118 -0.2115  0.3000
17094TIP3    H172773   2.441   6.578  16.782  2.0578 -0.9170  0.4048
17094TIP3    H272774   2.393   6.472  16.878  2.3375 -1.1000  0.3437
17095TIP3   OH272775   1.444   1.222   3.969 -0.2333  0.0505 -0.4203
17095TIP3    H172776   1.367   1.246   3.918  0.3429 -0.0851 -1.3685
17095TIP3    H272777   1.416   1.145   4.020 -1.6844  1.8289  1.6609
17096TIP3   OH272778   3.928   6.412  15.085 -0.8579  0.0725  0.3642
17096TIP3    H172779   3.977   6.401  15.167  0.4715 -2.6788 -0.6735
17096TIP3    H272780   3.901   6.324  15.061 -1.1200  0.7641 -2.2058
17097TIP3   OH272781   2.698   6.494   1.244  0.8353 -0.4028 -0.3370
17097TIP3    H172782   2.792   6.509   1.233  1.0455  0.0390  1.6702
17097TIP3    H272783   2.682   6.506   1.338 -0.9658 -1.9947 -0.3685
17098TIP3   OH272784   6.057   3.238   3.755  0.3448 -0.1452  0.2109
17098TIP3    H172785   6.048   3.158   3.703 -0.0201  1.9161 -3.1233
17098TIP3    H272786   6.147   3.266   3.742  0.2164  0.4868  0.6022
17099TIP3   OH272787   2.991   3.489   2.109  0.2804 -0.1281 -0.4319
17099TIP3    H172788   3.006   3.455   2.197 -0.3514  1.4194  0.3007
17099TIP3    H272789   3.078   3.502   2.073  0.5404 -1.6285 -0.4015
17100TIP3   OH272790   2.158   5.583   5.466 -0.2529  1.0359 -0.5805
17100TIP3    H172791   2.125   5.654   5.411 -0.7089  0.4433 -1.0685
17100TIP3    H272792   2.081   5.531   5.487  0.2132  0.2114 -0.9038
17101TIP3   OH272793   5.939   1.616  16.774 -0.1263 -0.5258  0.3487
17101TIP3    H172794   5.968   1.647  16.688  1.2925  1.3208  1.4015
17101TIP3    H272795   5.961   1.688  16.833 -3.9013 -0.3938  1.8335
17102TIP3   OH272796   1.159   0.580   1.111  0.0605  0.0630  0.4664
17102TIP3    H172797   1.177   0.529   1.032  0.2461  1.1229 -0.1898
17102TIP3    H272798   1.092   0.643   1.085 -0.8976 -0.4757  1.5368
17103TIP3   OH272799   2.393   6.541   1.886 -0.3650 -0.7930 -0.0318
17103TIP3    H172800   2.451   6.546   1.810  1.6089 -3.9522  1.0414
17103TIP3    H272801   2.331   6.472   1.864 -0.6959 -0.7166  0.6503
17104TIP3   OH272802   1.037   5.509   3.403  0.2766  0.4575  0.2440
17104TIP3    H172803   1.111   5.455   3.373  0.9289  0.2228  2.1203
17104TIP3    H272804   0.972   5.445   3.433 -2.1604  0.4782 -4.1217
17105TIP3   OH272805   2.416   1.368  10.137  0.7801 -0.6061 -0.8259
17105TIP3    H172806   2.348   1.425  10.174 -0.5279 -0.6733 -2.9056
17105TIP3    H272807   2.482   1.428  10.103  0.5567 -0.4122 -0.9222
17106TIP3   OH272808   3.548   1.241  14.948  0.0386  0.0339  0.2413
17106TIP3    H172809   3.453   1.242  14.949  0.0299  0.6465 -0.6939
17106TIP3    H272810   3.572   1.159  14.992 -0.9652 -1.7111 -2.2589
17107TIP3   OH272811   4.795   1.242  11.986  0.8056 -0.2258  0.1633
17107TIP3    H172812   4.710   1.248  11.944  0.0903  0.9623  1.6918
17107TIP3    H272813   4.806   1.149  12.006 -0.7027 -0.2267  1.0597
17108TIP3   OH272814   0.663   6.101  13.885 -0.1020 -0.2678 -0.1869
17108TIP3    H172815   0.701   6.045  13.953  1.3028  0.0619 -0.6580
17108TIP3    H272816   0.739   6.139  13.840 -1.0055  0.2808 -1.3118
17109TIP3   OH272817   4.760   6.358  10.975  0.1799  0.1986 -0.4874
17109TIP3    H172818   4.702   6.283  10.988  1.3756 -0.7782 -0.5332
17109TIP3    H272819   4.730   6.423  11.039 -1.6104  0.1581 -1.2307
17110TIP3   OH272820   1.004   0.301  16.018  0.0442  0.5328  0.3773
17110TIP3    H172821   1.035   0.341  15.937 -1.2206  1.0481  0.1321
17110TIP3    H272822   0.921   0.343  16.036 -0.1552 -0.2586  1.4423
17111TIP3   OH272823   1.850   4.457   5.400 -0.1929  0.3614  0.1628
17111TIP3    H172824   1.779   4.464   5.336 -0.0185  2.2012  0.1017
17111TIP3    H272825   1.888   4.546   5.404  0.8617 -0.1028  1.6028
17112TIP3   OH272826   2.040   0.973  13.476  0.1041  0.6014 -0.1505
17112TIP3    H172827   1.989   0.938  13.404 -0.5220 -0.8612  0.9531
17112TIP3    H272828   2.003   1.060  13.493 -2.5960 -0.6795  1.0811
17113TIP3   OH272829   1.890   5.304   4.205 -0.5239 -0.1132  0.1766
17113TIP3    H172830   1.940   5.238   4.156  0.4880  0.0706  0.9382
17113TIP3    H272831   1.850   5.358   4.137  0.6218 -0.0355 -0.4648
17114TIP3   OH272832   4.024   6.589   4.035  0.6312 -0.0573  0.2508
17114TIP3    H172833   4.062   6.509   3.998  1.7297  1.0991 -1.2436
17114TIP3    H272834   4.011   6.569   4.128  0.0412 -2.2525 -0.2385
17115TIP3   OH272835   5.667   5.721  10.709  0.5151  0.3952  1.0194
17115TIP3    H172836   5.660   5.634  10.669 -0.3927  1.1867 -0.6632
17115TIP3    H272837   5.760   5.739  10.712  0.6197  0.5600 -1.4460
17116TIP3   OH272838   1.667   5.160   4.004 -0.5775 -0.0640  1.3469
17116TIP3    H172839   1.682   5.074   4.042 -0.1711  0.7179  3.0376
17116TIP3    H272840   1.754   5.191   3.978 -0.8080 -0.4409  0.0541
17117TIP3   OH272841   5.587   2.758  12.301 -0.5292 -0.6894 -0.0964
17117TIP3    H172842   5.591   2.805  12.218 -0.3449 -3.7375 -1.9641
17117TIP3    H272843   5.493   2.740  12.314 -0.4422 -1.3215 -0.3280
17118TIP3   OH272844   0.891   0.463   4.632 -0.3776  0.1965  0.2013
17118TIP3    H172845   0.886   0.416   4.715 -1.2789 -0.6956 -0.3342
17118TIP3    H272846   0.883   0.395   4.565  1.6549  0.7380 -0.6641
17119TIP3   OH272847   0.838   4.258   4.150 -0.0188  0.0343 -0.3335
17119TIP3    H172848   0.771   4.190   4.154  1.9602 -2.0920 -0.7304
17119TIP3    H272849   0.854   4.271   4.057 -1.3339  2.1291 -0.3116
17120TIP3   OH272850   0.381   1.735   0.033  1.2109 -0.1184 -0.0432
17120TIP3    H172851   0.300   1.683   0.041  1.5538 -0.5660  0.6293
17120TIP3    H272852   0.394   1.772   0.120 -0.0378  2.7011 -0.9156
17121TIP3   OH272853   6.569   2.924  11.781 -0.1289 -0.2741 -0.2700
17121TIP3    H172854   6.610   2.837  11.781  0.7520  0.1121  0.6566
17121TIP3    H272855   6.603   2.965  11.861 -1.4409  0.4976 -0.0908
17122TIP3   OH272856   6.759   2.576   4.467 -0.2330 -0.3898 -0.1677
17122TIP3    H172857   6.745   2.582   4.562  2.5916  2.0368  0.2670
17122TIP3    H272858   6.763   2.482   4.449 -0.0525 -0.9198  2.2741
17123TIP3   OH272859   1.860   1.302   4.149  0.1205 -0.3395 -0.1966
17123TIP3    H172860   1.819   1.218   4.128 -0.8026  0.0991 -0.1965
17123TIP3    H272861   1.826   1.363   4.083 -1.1552  0.5788  1.2357
17124TIP3   OH272862   3.501   5.867   1.905  0.0203 -0.4741  0.6499
17124TIP3    H172863   3.529   5.855   1.996 -1.1840 -0.5531  1.0318
17124TIP3    H272864   3.415   5.908   1.912  1.4087  2.9939 -0.5059
17125TIP3   OH272865   0.152   6.425  13.746 -0.1117  0.0298 -0.7679
17125TIP3    H172866   0.073   6.372  13.742 -0.9689  1.2141 -0.1420
17125TIP3    H272867   0.201   6.389  13.820 -1.1356  0.6893  0.2578
17126TIP3   OH272868   2.707   0.965   4.622 -0.7710 -0.1880 -0.1284
17126TIP3    H172869   2.789   0.930   4.657 -0.6805  0.1961  0.0503
17126TIP3    H272870   2.640   0.937   4.683 -1.0151 -1.8614 -1.1063
17127TIP3   OH272871   3.395   0.377   4.232 -0.3168 -0.3605  0.0183
17127TIP3    H172872   3.446   0.311   4.184  1.0335  0.8825 -0.3079
17127TIP3    H272873   3.385   0.339   4.320  1.5843 -0.4736  0.2393
17128TIP3   OH272874   3.845   5.784   2.287  0.2449  0.0416 -0.5355
17128TIP3    H172875   3.815   5.696   2.310  1.9343 -0.4688 -0.1939
17128TIP3    H272876   3.837   5.788   2.191 -1.9036  0.3434 -0.4072
17129TIP3   OH272877   5.724   1.208   0.815 -0.0957  0.2936  0.8251
17129TIP3    H172878   5.649   1.235   0.762  0.6599  2.0949  0.6154
17129TIP3    H272879   5.755   1.289   0.856  2.7975 -0.0633 -0.4505
17130TIP3   OH272880   6.157   0.170   5.388 -0.2337  0.1226  0.0420
17130TIP3    H172881   6.159   0.075   5.401 -0.3388  0.1359  0.1542
17130TIP3    H272882   6.086   0.201   5.444 -1.0092  0.1291 -0.9128
17131TIP3   OH272883   1.613   3.348  16.612  0.4519  0.3005 -0.7250
17131TIP3    H172884   1.538   3.387  16.568 -0.2346  1.8017  1.6036
17131TIP3    H272885   1.625   3.400  16.691  2.2776 -1.5587  0.3382
17132TIP3   OH272886   4.571   0.917  10.904 -0.2100  0.2618 -0.0679
17132TIP3    H172887   4.638   0.870  10.953 -1.2532 -1.0005  0.2261
17132TIP3    H272888   4.616   0.992  10.866  0.9710  0.4489  1.5794
17133TIP3   OH272889   1.343   4.361  15.780 -0.1900  0.5681  0.1230
17133TIP3    H172890   1.332   4.319  15.695 -0.2744  0.8525 -0.0068
17133TIP3    H272891   1.344   4.454  15.761 -1.3464  0.6827  0.5529
17134TIP3   OH272892   2.056   5.851   5.356 -0.3421  0.1164  0.3240
17134TIP3    H172893   2.094   5.936   5.379  2.4140 -1.0694  0.5303
17134TIP3    H272894   2.000   5.870   5.280  2.3745  1.7384 -1.4336
17135TIP3   OH272895   6.702   1.369   0.102  0.0179 -0.2877  0.3533
17135TIP3    H172896   6.722   1.348   0.193 -0.1036  0.3464  0.5327
17135TIP3    H272897   6.740   1.297   0.051  0.6161 -0.3326  0.8593
17136TIP3   OH272898   2.326   4.697   0.192 -0.2136  0.2394 -0.0557
17136TIP3    H172899   2.258   4.633   0.171  0.0752 -0.6287  1.5403
17136TIP3    H272900   2.380   4.654   0.258  0.8546  1.5925 -0.0104
17137TIP3   OH272901   6.594   2.983  13.850 -0.6232 -0.0399  0.4726
17137TIP3    H172902   6.547   3.027  13.778 -0.0479 -0.7942 -0.3868
17137TIP3    H272903   6.524   2.948  13.906 -1.1015 -0.4666 -0.3662
17138TIP3   OH272904   4.695   0.251  11.529 -0.4892 -0.2419  0.0503
17138TIP3    H172905   4.751   0.323  11.498  0.4522 -1.0181 -0.0970
17138TIP3    H272906   4.679   0.271  11.621  1.0101 -0.5994  0.4144
17139TIP3   OH272907   6.054   5.965   5.483 -0.6437 -0.1119  0.0967
17139TIP3    H172908   6.099   5.959   5.399 -2.3311 -1.7412 -0.7820
17139TIP3    H272909   6.080   5.886   5.530  0.9341  1.1865  1.5081
17140TIP3   OH272910   4.594   3.297  15.864 -0.2255  0.1882 -0.2498
17140TIP3    H172911   4.566   3.361  15.799 -2.3329 -0.6629 -0.2818
17140TIP3    H272912   4.529   3.305  15.934  0.7453 -0.4167  0.7580
17141TIP3   OH272913   3.490   2.831   0.933  0.0738 -0.5715  0.2277
17141TIP3    H172914   3.486   2.927   0.929 -0.5143 -0.5489  1.1378
17141TIP3    H272915   3.449   2.802   0.852  0.8759 -0.0550 -0.3813
17142TIP3   OH272916   2.325   2.214   2.215  0.4792 -0.3663 -0.0051
17142TIP3    H172917   2.412   2.230   2.252 -0.0550  0.2464  1.0388
17142TIP3    H272918   2.339   2.150   2.146  1.6475 -0.8796  0.6883
17143TIP3   OH272919   4.092   0.416   0.710 -0.0536 -0.7043  0.6855
17143TIP3    H172920   4.186   0.403   0.727  0.3593  2.7169  1.8382
17143TIP3    H272921   4.060   0.458   0.790 -2.2806 -0.5502 -0.2386
17144TIP3   OH272922   3.409   5.915   4.043 -0.0797 -0.2479  0.3030
17144TIP3    H172923   3.393   5.822   4.056 -1.2586 -0.3341 -1.4759
17144TIP3    H272924   3.466   5.940   4.116 -0.8660 -2.0406  1.6004
17145TIP3   OH272925   3.036   3.893   5.481  0.5483  0.0144  0.3295
17145TIP3    H172926   2.949   3.889   5.522  0.0711  0.2969 -0.6422
17145TIP3    H272927   3.085   3.822   5.523  0.2622  0.6559  1.8081
17146TIP3   OH272928   5.156   0.793   5.232 -0.3149  0.1601 -0.3762
17146TIP3    H172929   5.234   0.744   5.207 -0.2591  1.0925 -2.2445
17146TIP3    H272930   5.084   0.732   5.217 -0.0158 -0.6044  1.0720
17147TIP3   OH272931   3.242   4.215  14.897  0.2623 -0.2656 -0.0126
17147TIP3    H172932   3.333   4.239  14.881  0.0297  0.8515  0.2923
17147TIP3    H272933   3.247   4.132  14.944  1.1674  0.3706  1.0532
17148TIP3   OH272934   6.765   3.042  15.262  0.1710 -0.3899 -0.0401
17148TIP3    H172935   6.734   3.095  15.188 -0.5023  0.5635  0.9021
17148TIP3    H272936   6.721   2.957  15.251  0.9402 -0.6522 -1.3306
17149TIP3   OH272937   6.719   0.836  12.708  0.0190 -0.0719 -0.4006
17149TIP3    H172938   6.673   0.788  12.777  0.5675 -0.4944 -0.3226
17149TIP3    H272939   6.793   0.878  12.752  0.2101 -0.1122 -0.6730
17150TIP3   OH272940   0.385   6.397   6.417  0.0481  0.1815  0.2220
17150TIP3    H172941   0.475   6.428   6.431  0.5199 -1.0142  0.0330
17150TIP3    H272942   0.375   6.326   6.481 -0.4556 -0.2579 -0.3378
17151TIP3   OH272943   4.844   6.121   6.027 -0.2080 -0.2012 -0.7262
17151TIP3    H172944   4.933   6.146   6.002  0.6909 -1.2882  1.2325
17151TIP3    H272945   4.827   6.171   6.107  0.3743 -3.1933  1.3976
17152TIP3   OH272946   0.233   0.870  14.695  0.0640 -0.0279 -0.0526
17152TIP3    H172947   0.213   0.880  14.788 -1.2002  1.7597 -0.4511
17152TIP3    H272948   0.322   0.902  14.686 -0.3700  1.3562  0.3287
17153TIP3   OH272949   1.961   3.180  13.645  0.6261  0.5855  0.3456
17153TIP3    H172950   2.036   3.233  13.617  1.9308 -2.0773 -1.5299
17153TIP3    H272951   1.905   3.176  13.568 -0.2849  0.5546  0.9942
17154TIP3   OH272952   5.896   2.039   1.688 -0.3452 -0.2910 -0.2177
17154TIP3    H172953   5.846   2.107   1.642  2.1361  1.2448 -0.8876
17154TIP3    H272954   5.895   1.964   1.629 -0.4163  0.3203 -1.0063
17155TIP3   OH272955   5.034   5.776  12.071 -0.1058  0.5702  0.0021
17155TIP3    H172956   4.969   5.772  12.142  0.9288 -0.3382  0.9465
17155TIP3    H272957   4.984   5.760  11.991 -0.9782 -0.6195  0.7618
17156TIP3   OH272958   1.092   1.791   2.542  0.1084 -0.4072  0.1593
17156TIP3    H172959   1.007   1.812   2.503  0.3682 -2.8084 -1.9648
17156TIP3    H272960   1.127   1.876   2.570 -2.4478  0.7891  0.0468
17157TIP3   OH272961   4.324   1.637  14.037 -0.2757  0.1970 -0.2791
17157TIP3    H172962   4.235   1.629  14.070  0.5998  1.1928  2.6722
17157TIP3    H272963   4.379   1.601  14.106  1.8266  3.6245  0.1019
17158TIP3   OH272964   1.342   5.669  14.881  0.0696  0.4298  0.0794
17158TIP3    H172965   1.394   5.705  14.809  0.2325 -1.3391 -0.7330
17158TIP3    H272966   1.400   5.674  14.956  0.8551 -0.0941 -0.4797
17159TIP3   OH272967   5.009   1.685  13.418 -0.0276  0.0796 -0.0220
17159TIP3    H172968   5.079   1.695  13.353 -0.7501  0.3872 -0.7680
17159TIP3    H272969   4.932   1.724  13.377 -0.4704  0.4139  1.0814
17160TIP3   OH272970   0.591   4.358  10.930 -0.5304 -0.6154 -0.0017
17160TIP3    H172971   0.624   4.310  11.006  2.6078 -0.6201 -1.2366
17160TIP3    H272972   0.596   4.450  10.956  1.8065 -0.5225 -0.5267
17161TIP3   OH272973   1.572   3.890   0.535 -0.5187  0.4492 -0.1228
17161TIP3    H172974   1.610   3.808   0.503 -0.2699  0.1101  1.0088
17161TIP3    H272975   1.578   3.884   0.630 -0.5064  1.7924 -0.0253
17162TIP3   OH272976   5.416   4.312   0.346  0.4206  0.0690  0.1392
17162TIP3    H172977   5.411   4.231   0.295  1.8009 -0.1395  0.3037
17162TIP3    H272978   5.451   4.284   0.431 -0.7412  0.5893  0.8176
17163TIP3   OH272979   3.915   2.277  16.148  0.7808  0.4123  0.2526
17163TIP3    H172980   3.890   2.352  16.094  0.4114  0.9769  1.1740
17163TIP3    H272981   3.897   2.306  16.238  2.4732 -0.0577  0.7789
17164TIP3   OH272982   4.933   1.796  14.558 -0.1223 -0.0564  0.0882
17164TIP3    H172983   5.008   1.826  14.506  0.2635 -0.7118  0.2431
17164TIP3    H272984   4.858   1.802  14.498  0.1123  0.3044 -0.1725
17165TIP3   OH272985   3.056   1.857  13.818 -0.1966  0.1968  0.7202
17165TIP3    H172986   3.082   1.764  13.814 -0.4007  0.1202  1.2069
17165TIP3    H272987   3.095   1.889  13.899 -1.6031  0.0875  1.4707
17166TIP3   OH272988   0.454   5.785   0.899 -0.1786 -0.2734  0.1822
17166TIP3    H172989   0.530   5.824   0.855 -1.6448  2.1930 -0.3160
17166TIP3    H272990   0.451   5.828   0.984 -1.0486 -0.3255  0.1788
17167TIP3   OH272991   3.843   5.057   0.975  0.0796  0.0930  0.5004
17167TIP3    H172992   3.887   4.981   1.014 -0.1025  0.0058  0.5403
17167TIP3    H272993   3.843   5.039   0.881  0.9753  0.5454  0.4091
17168TIP3   OH272994   3.374   6.470   5.215  0.6496 -0.0511  0.4935
17168TIP3    H172995   3.463   6.505   5.216  1.3954 -1.7466 -0.5096
17168TIP3    H272996   3.364   6.427   5.300  0.8194  0.1101  0.5947
17169TIP3   OH272997   4.625   6.291   5.225 -0.1701  0.4111 -0.3047
17169TIP3    H172998   4.671   6.368   5.259  1.0467  0.5541 -2.1304
17169TIP3    H272999   4.556   6.327   5.170 -0.3193  0.2015 -0.2561
17170TIP3   OH273000   2.454   2.352  15.164  0.5103  0.3645 -0.0921
17170TIP3    H173001   2.459   2.256  15.172  0.5437  0.3512 -0.2606
17170TIP3    H273002   2.369   2.375  15.202  0.4964  0.2672 -0.0634
17171TIP3   OH273003   3.655   1.346  14.056  0.5900  0.0504 -0.5066
17171TIP3    H173004   3.568   1.324  14.023  0.9532 -2.5325  0.0723
17171TIP3    H273005   3.701   1.382  13.980 -0.3033 -0.5866 -1.3626
17172TIP3   OH273006   5.864   4.558  12.921 -0.4329  0.0973  0.3433
17172TIP3    H173007   5.895   4.467  12.917 -0.0966  0.2180  0.0960
17172TIP3    H273008   5.941   4.608  12.946 -0.1623  0.5178 -1.1923
17173TIP3   OH273009   1.271   3.415  12.663  0.2102 -0.3056 -0.0374
17173TIP3    H173010   1.259   3.327  12.626 -1.0400  0.0948 -0.6536
17173TIP3    H273011   1.267   3.402  12.758  0.6928 -0.9930 -0.1026
17174TIP3   OH273012   5.386   6.734  14.424  0.3396 -0.2051 -0.4125
17174TIP3    H173013   5.408   6.815  14.376 -0.4566  0.2079 -0.0966
17174TIP3    H273014   5.460   6.721  14.484 -0.2525  1.2055  0.6905
17175TIP3   OH273015   1.030   5.410   3.986  0.4118 -0.0542  0.9581
17175TIP3    H173016   1.085   5.363   4.049  0.1416  0.3325  1.4904
17175TIP3    H273017   1.061   5.501   3.990 -0.7194  0.3262  1.8062
17176TIP3   OH273018   4.673   6.584   5.937  0.2260 -0.3538  0.1504
17176TIP3    H173019   4.750   6.640   5.935 -0.6077  0.8228 -0.1026
17176TIP3    H273020   4.702   6.501   5.898  0.5973  1.0824 -2.9300
17177TIP3   OH273021   4.832   5.742  14.689  0.2390 -0.5266 -0.1182
17177TIP3    H173022   4.877   5.825  14.705  1.2163 -1.1858  0.6861
17177TIP3    H273023   4.863   5.684  14.758 -0.7865 -1.4382 -0.3857
17178TIP3   OH273024   1.032   6.578  16.108 -0.1783 -0.5216  0.2825
17178TIP3    H173025   0.970   6.567  16.180 -0.8319 -0.5212 -0.2772
17178TIP3    H273026   1.109   6.619  16.149 -0.4744 -0.6758  1.0080
17179TIP3   OH273027   0.554   6.554  16.659  0.3516 -0.0089  0.5243
17179TIP3    H173028   0.560   6.466  16.695  0.3313 -0.5296 -0.7046
17179TIP3    H273029   0.644   6.580  16.642  0.2521 -0.9829 -1.8323
17180TIP3   OH273030   0.815   0.574  16.515 -0.7475 -0.2662 -0.2100
17180TIP3    H173031   0.808   0.582  16.420 -0.3115 -0.9328 -0.3020
17180TIP3    H273032   0.901   0.536  16.530  0.7241  3.0659  0.6298
17181TIP3   OH273033   1.596   6.209   6.114  0.5764 -0.5476  0.1135
17181TIP3    H173034   1.641   6.135   6.155  0.0667  0.5034  2.8195
17181TIP3    H273035   1.503   6.190   6.126  0.3478 -0.7446 -1.7190
17182TIP3   OH273036   5.208   4.442  12.515 -0.2123 -0.2917 -0.0772
17182TIP3    H173037   5.293   4.451  12.558 -0.1413 -0.9300 -0.0778
17182TIP3    H273038   5.209   4.355  12.476 -0.5278  0.0379 -0.8367
17183TIP3   OH273039   5.824   3.310  16.386  0.1073  0.7637  0.0529
17183TIP3    H173040   5.883   3.382  16.411  0.6279  0.0417  0.9758
17183TIP3    H273041   5.882   3.239  16.361 -0.4136  0.7762 -1.2418
17184TIP3   OH273042   0.058   5.056   5.254  0.5127  0.0119 -0.0402
17184TIP3    H173043   0.063   5.030   5.346 -0.7541  1.3813  0.4544
17184TIP3    H273044   0.139   5.105   5.238  0.5055  0.1971  0.4927
17185TIP3   OH273045   2.443   1.707   2.377 -0.3179 -0.6712  0.3015
17185TIP3    H173046   2.467   1.788   2.422  0.3091  0.2992 -1.6904
17185TIP3    H273047   2.359   1.682   2.416  0.5861 -0.3801  2.5855
17186TIP3   OH273048   2.436   6.718  11.123 -0.0433  0.7681 -0.2233
17186TIP3    H173049   2.450   6.791  11.183  3.1996 -0.9928  1.4346
17186TIP3    H273050   2.442   6.640  11.177 -2.0543 -0.8556 -2.1443
17187TIP3   OH273051   6.208   5.720  12.135  0.2215 -0.0773 -0.0701
17187TIP3    H173052   6.241   5.646  12.187 -0.6351  0.6062  1.5285
17187TIP3    H273053   6.131   5.750  12.184  0.9411  2.2984 -0.2930
17188TIP3   OH273054   0.472   5.473   3.923  0.3535  0.0384  0.4920
17188TIP3    H173055   0.475   5.499   4.015  1.6585  1.8720  0.0032
17188TIP3    H273056   0.519   5.543   3.878 -0.5859 -0.6273 -1.6218
17189TIP3   OH273057   0.733   5.485  16.272  0.0262  0.5182  0.3870
17189TIP3    H173058   0.659   5.453  16.220 -1.1767  0.0035  2.2939
17189TIP3    H273059   0.798   5.415  16.266 -0.6724 -0.1797  0.6868
17190TIP3   OH273060   3.467   6.021  11.712 -0.1751  0.2196  0.3203
17190TIP3    H173061   3.395   6.084  11.719  0.0863  0.5762 -0.1080
17190TIP3    H273062   3.472   5.981  11.798  0.8628  2.1396  1.2111
17191TIP3   OH273063   4.689   1.242   0.895 -0.4729 -0.7824  0.0759
17191TIP3    H173064   4.606   1.277   0.926 -0.0363 -1.1244  1.7743
17191TIP3    H273065   4.719   1.304   0.829 -0.7701  0.8808  1.4205
17192TIP3   OH273066   2.399   2.624   2.504  0.5300  0.0607  0.3776
17192TIP3    H173067   2.311   2.647   2.474  0.6211 -1.3725 -1.1055
17192TIP3    H273068   2.389   2.540   2.548  1.0730  0.1499  0.6820
17193TIP3   OH273069   3.381   4.171   5.410  0.2442 -0.1514  0.0499
17193TIP3    H173070   3.377   4.186   5.504 -3.0041  2.0839 -0.2607
17193TIP3    H273071   3.354   4.080   5.399 -1.2317  0.0885  1.2728
17194TIP3   OH273072   0.383   2.562   2.147 -0.1250  0.5460  0.0169
17194TIP3    H173073   0.401   2.509   2.225  2.5226 -0.8456 -1.4132
17194TIP3    H273074   0.293   2.592   2.159 -1.2281 -2.9110  1.7283
17195TIP3   OH273075   1.669   4.804  11.668  0.3932  0.1243 -0.9234
17195TIP3    H173076   1.695   4.879  11.722 -0.3855 -0.0685 -0.2637
17195TIP3    H273077   1.746   4.787  11.613  1.0842  0.5576 -0.1278
17196TIP3   OH273078   2.357   3.764   2.661  0.0629  0.0027 -0.4088
17196TIP3    H173079   2.290   3.696   2.661  0.8509 -0.8016  0.1702
17196TIP3    H273080   2.384   3.771   2.570  0.6431 -1.1742 -0.3542
17197TIP3   OH273081   3.069   4.658   1.486 -0.1776  0.2716 -0.3714
17197TIP3    H173082   3.100   4.746   1.509 -2.2515  1.0451 -0.3465
17197TIP3    H273083   3.085   4.651   1.392  2.1219 -0.2727  0.0101
17198TIP3   OH273084   0.849   3.480  10.986 -0.7075 -0.3003 -0.0624
17198TIP3    H173085   0.757   3.506  10.980 -0.6257 -0.2857 -2.3081
17198TIP3    H273086   0.897   3.563  10.978 -0.5058 -0.5923 -2.5941
17199TIP3   OH273087   2.649   0.190   3.177  0.7428 -0.0208 -0.0590
17199TIP3    H173088   2.624   0.269   3.129  3.2923  0.0202 -1.4470
17199TIP3    H273089   2.604   0.120   3.131  0.1403  0.3943 -0.1216
17200TIP3   OH273090   6.426   5.335  16.469  0.3969 -0.5385  0.1816
17200TIP3    H173091   6.476   5.294  16.399 -1.2485  0.9883 -2.0625
17200TIP3    H273092   6.340   5.292  16.465  0.0223  0.1454  0.6931
17201TIP3   OH273093   4.218   2.921  16.306 -0.2851 -0.2480  0.2118
17201TIP3    H173094   4.170   2.971  16.372 -0.3138 -0.3982  0.3058
17201TIP3    H273095   4.165   2.842  16.292  0.7468 -1.2116  1.4994
17202TIP3   OH273096   0.086   2.528  13.716 -0.1121 -0.2125  0.0586
17202TIP3    H173097  -0.006   2.555  13.719 -0.3762 -0.8467 -1.4101
17202TIP3    H273098   0.130   2.598  13.667 -0.5745 -1.6551 -2.6531
17203TIP3   OH273099   5.426   6.123   1.135 -0.0112  0.3372  0.2129
17203TIP3    H173100   5.498   6.061   1.152 -0.9814 -1.2123 -1.0152
17203TIP3    H273101   5.347   6.069   1.139 -0.9622  1.6578 -0.1632
17204TIP3   OH273102   3.010   3.644   3.691 -0.6250  0.0539  0.3144
17204TIP3    H173103   2.976   3.733   3.688 -1.4350 -0.1700  1.7877
17204TIP3    H273104   3.064   3.635   3.612  0.5457  2.2532  0.8091
17205TIP3   OH273105   6.478   0.888   0.317 -0.5376 -0.0771  0.4277
17205TIP3    H173106   6.478   0.882   0.412 -0.6855  3.5517  0.7996
17205TIP3    H273107   6.569   0.904   0.293 -0.6438  0.0182  0.0665
17206TIP3   OH273108   5.951   2.759   4.277  0.3662  0.3102  0.1544
17206TIP3    H173109   6.045   2.742   4.272  0.1541 -1.5652  1.2647
17206TIP3    H273110   5.929   2.747   4.369 -0.9201  1.0314 -0.0272
17207TIP3   OH273111   0.539   1.672  12.135 -0.4335 -0.1769  0.0502
17207TIP3    H173112   0.500   1.596  12.179  1.5440 -0.3417  1.6500
17207TIP3    H273113   0.633   1.657  12.138 -0.0182  1.9967 -0.2190
17208TIP3   OH273114   3.480   3.636  14.983 -0.6945 -0.1579 -0.0383
17208TIP3    H173115   3.510   3.718  14.944  0.4643  0.3508  1.7703
17208TIP3    H273116   3.558   3.581  14.987 -1.0330 -0.6166  0.4620
17209TIP3   OH273117   1.997   5.973  12.218  0.0236 -0.4630 -0.1090
17209TIP3    H173118   2.055   6.002  12.287 -0.6724 -0.5610  0.5333
17209TIP3    H273119   2.016   5.880  12.207 -0.1065 -0.5247  0.1936
17210TIP3   OH273120   4.481   5.803   5.935  0.3294  0.0913  0.3609
17210TIP3    H173121   4.422   5.844   5.997  0.4872 -1.1097  1.3430
17210TIP3    H273122   4.569   5.824   5.968  0.4482  0.8574 -0.4142
17211TIP3   OH273123   1.130   6.327  11.243 -0.2126 -0.0130  0.7029
17211TIP3    H173124   1.202   6.367  11.292 -0.4693 -0.5563  1.5472
17211TIP3    H273125   1.115   6.387  11.170  2.9341 -1.2433 -1.1562
17212TIP3   OH273126   0.496   0.215  15.655 -0.4586  0.0685 -0.1270
17212TIP3    H173127   0.561   0.276  15.690  0.3623 -0.8990  0.0783
17212TIP3    H273128   0.462   0.169  15.731 -1.3471  0.5107 -0.2420
17213TIP3   OH273129   6.741   6.262   3.454  0.1853  0.2061 -0.1907
17213TIP3    H173130   6.662   6.309   3.483  0.5375  0.0978  0.9886
17213TIP3    H273131   6.707   6.194   3.395 -0.7539 -0.5570  1.1546
17214TIP3   OH273132   3.960   3.177   6.209 -0.5340 -0.2991 -0.0488
17214TIP3    H173133   3.901   3.230   6.155 -1.5915 -2.3193 -1.0044
17214TIP3    H273134   3.902   3.112   6.249  0.4415  0.3002  2.5090
17215TIP3   OH273135   6.119   4.712   0.705 -0.6485  0.0045 -0.9888
17215TIP3    H173136   6.071   4.635   0.674  0.2258  0.0446 -2.5554
17215TIP3    H273137   6.211   4.692   0.686 -0.3622  1.2404 -0.9844
17216TIP3   OH273138   1.546   5.491  14.702  0.7511  0.0863 -0.0168
17216TIP3    H173139   1.641   5.494  14.708  0.6923 -0.0523  1.2135
17216TIP3    H273140   1.516   5.502  14.792 -0.3481 -1.7647 -0.1144
17217TIP3   OH273141   6.396   1.184   2.355 -0.3733 -0.8677  0.4321
17217TIP3    H173142   6.373   1.093   2.378  4.2339 -2.1648  0.9450
17217TIP3    H273143   6.490   1.189   2.370  0.2796  2.9526 -3.2522
17218TIP3   OH273144   4.056   2.173  10.304  0.1178  0.0303  0.3136
17218TIP3    H173145   3.983   2.212  10.352 -0.9904  0.5503 -1.6960
17218TIP3    H273146   4.071   2.089  10.348 -1.9787 -0.2768  0.5569
17219TIP3   OH273147   0.478   5.670  12.034 -0.1598 -0.3803  0.7646
17219TIP3    H173148   0.492   5.585  12.078  0.0678 -0.2466  0.9584
17219TIP3    H273149   0.522   5.733  12.092 -1.3996  0.0353  1.2742
17220TIP3   OH273150   4.859   1.331  11.290 -0.2819 -0.0789 -0.8465
17220TIP3    H173151   4.857   1.408  11.233 -0.3580  1.6235  1.3102
17220TIP3    H273152   4.812   1.263  11.241 -3.2118  2.2473 -1.5235
17221TIP3   OH273153   2.140   5.713  12.132 -0.1494 -0.2025  0.1742
17221TIP3    H173154   2.227   5.716  12.094 -0.3383  0.2403 -0.2230
17221TIP3    H273155   2.137   5.629  12.179  0.0138 -0.8346 -0.9280
17222TIP3   OH273156   0.075   2.460  12.044 -0.0905 -0.1374 -0.3485
17222TIP3    H173157   0.106   2.549  12.028  0.1092 -0.0769  0.3624
17222TIP3    H273158   0.066   2.453  12.139 -0.4866 -0.7495 -0.4213
17223TIP3   OH273159   2.859   3.030   0.842 -0.3914 -0.4439  0.2416
17223TIP3    H173160   2.918   2.996   0.910 -0.3804 -0.2328  0.3400
17223TIP3    H273161   2.910   3.025   0.761 -0.3963 -0.6773  0.2509
17224TIP3   OH273162   6.707   2.875  14.133  0.2523 -0.5209 -0.0841
17224TIP3    H173163   6.650   2.909  14.202 -0.4710  0.6033 -1.2024
17224TIP3    H273164   6.751   2.800  14.173 -1.9509 -1.3946  0.8391
17225TIP3   OH273165   3.050   4.674   0.144  0.1286 -0.0674  0.2929
17225TIP3    H173166   2.965   4.701   0.109  0.8143  0.8298 -0.7199
17225TIP3    H273167   3.062   4.726   0.224 -0.8479 -1.1717  1.2051
17226TIP3   OH273168   0.677   6.561  14.626  0.3945  0.3127  0.3427
17226TIP3    H173169   0.620   6.633  14.655 -1.3887 -0.3191 -1.3864
17226TIP3    H273170   0.755   6.605  14.592  0.1498  1.3140  1.0361
17227TIP3   OH273171   0.428   0.228  12.476  0.0784 -0.5632 -0.1645
17227TIP3    H173172   0.435   0.135  12.498  0.6097  0.0918  2.9457
17227TIP3    H273173   0.337   0.251  12.494 -0.0085 -0.4458 -0.7512
17228TIP3   OH273174   2.460   5.275  12.311 -0.3725 -0.2776 -0.0204
17228TIP3    H173175   2.522   5.263  12.239  0.2267  0.0339  0.4310
17228TIP3    H273176   2.476   5.201  12.370  1.0459  0.8660  1.1286
17229TIP3   OH273177   1.255   6.077  14.569  0.0568 -0.3515 -0.0979
17229TIP3    H173178   1.333   6.117  14.531 -0.5498  1.4797  0.4587
17229TIP3    H273179   1.188   6.088  14.502 -0.2484  0.0567  0.2713
17230TIP3   OH273180   4.598   4.885  11.629 -0.6807  0.5737 -0.0886
17230TIP3    H173181   4.637   4.971  11.642  0.0750  0.1084  0.8107
17230TIP3    H273182   4.615   4.838  11.711 -2.8568  0.2370  0.2292
17231TIP3   OH273183   4.998   3.546  12.068 -0.8492  0.4310  0.2222
17231TIP3    H173184   5.031   3.503  12.146  1.0790  1.6553  0.1540
17231TIP3    H273185   4.904   3.528  12.068 -0.8591  0.1801  2.6591
17232TIP3   OH273186   6.337   5.186   6.746  0.1334  0.2482  0.0158
17232TIP3    H173187   6.336   5.091   6.736  0.9418  0.2017  0.2885
17232TIP3    H273188   6.421   5.205   6.788  0.6572  1.2070 -1.3697
17233TIP3   OH273189   4.906   0.608   2.793  0.7914  0.0897  0.5551
17233TIP3    H173190   4.856   0.616   2.712 -0.8060 -1.4303  1.3436
17233TIP3    H273191   4.997   0.625   2.767  0.2167  0.3433 -1.3964
17234TIP3   OH273192   1.749   5.503   4.074 -0.0817  0.1960  0.7121
17234TIP3    H173193   1.688   5.556   4.023 -0.8377 -0.8838  0.4796
17234TIP3    H273194   1.714   5.504   4.163 -1.0857 -1.3091  0.3724
17235TIP3   OH273195   6.230   5.730   0.947 -0.2267  0.0727  0.7048
17235TIP3    H173196   6.217   5.728   0.852  0.2196  1.1864  0.6010
17235TIP3    H273197   6.184   5.652   0.979 -2.4940  0.9793 -0.1521
17236TIP3   OH273198   5.659   3.263  12.158  0.0901 -0.1093  0.2880
17236TIP3    H173199   5.686   3.348  12.125 -0.5794 -0.2092 -0.5375
17236TIP3    H273200   5.738   3.210  12.157  0.1599  0.0081 -0.7841
17237TIP3   OH273201   2.573   1.756  11.314  0.3805  0.0558 -0.0457
17237TIP3    H173202   2.598   1.699  11.386 -0.5687  0.7675  0.8936
17237TIP3    H273203   2.651   1.809  11.297  0.7867 -0.4924  0.0934
17238TIP3   OH273204   1.577   4.596   5.352 -0.8285 -0.3740  0.1285
17238TIP3    H173205   1.526   4.672   5.322  0.4053  1.4878  2.3858
17238TIP3    H273206   1.667   4.617   5.327 -0.3160 -0.5235  1.7868
17239TIP3   OH273207   2.098   6.255   0.513 -0.4008  0.1065  0.1720
17239TIP3    H173208   2.193   6.260   0.507 -0.3716 -0.9177 -0.4981
17239TIP3    H273209   2.076   6.169   0.476 -1.4529 -0.3750  1.8234
17240TIP3   OH273210   5.486   1.130  12.423 -0.2291 -0.2337 -0.6685
17240TIP3    H173211   5.530   1.149  12.506 -0.6187 -0.9068 -0.2950
17240TIP3    H273212   5.459   1.039  12.431 -0.5023 -0.2268 -1.4358
17241TIP3   OH273213   0.595   6.219  13.651 -0.1814  0.0262 -0.5293
17241TIP3    H173214   0.620   6.150  13.712  1.5883 -0.7912 -2.1087
17241TIP3    H273215   0.513   6.187  13.613  0.0116 -0.6593 -0.3967
17242TIP3   OH273216   3.975   6.626  14.931  1.2068 -0.3745  1.0845
17242TIP3    H173217   3.999   6.569  14.858 -0.8025  0.6646 -0.4885
17242TIP3    H273218   3.951   6.566  15.001  2.3574 -1.4083  0.6251
17243TIP3   OH273219   1.939   5.536  12.231 -0.2096  0.4544  0.2760
17243TIP3    H173220   1.908   5.551  12.141 -1.0026  0.2824  0.5170
17243TIP3    H273221   1.881   5.468  12.265  1.5163 -1.1547  0.1682
17244TIP3   OH273222   6.529   1.692  14.957  0.2898 -0.0118 -0.3571
17244TIP3    H173223   6.528   1.633  14.881  0.9846 -0.3117 -0.1349
17244TIP3    H273224   6.608   1.668  15.005  0.0659  0.4535  0.2501
17245TIP3   OH273225   1.417   2.614   2.828 -0.2827  0.1776  0.3410
17245TIP3    H173226   1.434   2.707   2.843 -1.4710  0.7689 -1.5501
17245TIP3    H273227   1.444   2.599   2.737  0.7999 -1.6015  0.8944
17246TIP3   OH273228   6.783   5.005  16.792  0.3938  0.2901  0.1937
17246TIP3    H173229   6.782   4.910  16.788 -0.1501  0.3266 -1.1461
17246TIP3    H273230   6.862   5.027  16.842  1.3426 -0.8362 -0.7619
17247TIP3   OH273231   1.249   4.554  11.536  0.2382  0.2619 -0.4150
17247TIP3    H173232   1.328   4.546  11.590  1.0896 -0.6962 -1.7300
17247TIP3    H273233   1.180   4.512  11.588  0.8183  0.1954  0.3185
17248TIP3   OH273234   0.325   0.886   4.022  0.4188  0.4134  0.4702
17248TIP3    H173235   0.325   0.963   3.966 -0.6887  0.9223  1.1339
17248TIP3    H273236   0.358   0.816   3.966  1.7777  1.4127 -0.0396
17249TIP3   OH273237   0.374   4.116   6.309  0.1525  0.0089 -0.1419
17249TIP3    H173238   0.295   4.159   6.275 -0.8164 -0.8708  0.9424
17249TIP3    H273239   0.355   4.023   6.302  0.7062 -0.2011  1.0379
17250TIP3   OH273240   4.437   2.673   5.561  0.0557  0.1005  0.3094
17250TIP3    H173241   4.501   2.635   5.621 -0.8771  1.1441  2.0438
17250TIP3    H273242   4.488   2.737   5.510  0.8391 -0.7228  0.0283
17251TIP3   OH273243   4.173   6.756  15.077 -0.3552  0.1774 -0.0477
17251TIP3    H173244   4.091   6.790  15.115 -0.8143 -1.0443  0.0806
17251TIP3    H273245   4.148   6.724  14.990  0.1004  0.2839 -0.2218
17252TIP3   OH273246   1.626   0.592  11.678 -0.1916  0.0368 -0.7026
17252TIP3    H173247   1.576   0.511  11.688 -0.3644  0.1648 -0.4858
17252TIP3    H273248   1.679   0.597  11.758  0.7819 -0.5068 -1.3030
17253TIP3   OH273249   4.763   3.037  12.868  0.1843  0.4118 -0.5100
17253TIP3    H173250   4.774   2.942  12.865 -1.2268  0.2396 -1.5346
17253TIP3    H273251   4.774   3.060  12.960  0.4394 -0.7649 -0.2321
17254TIP3   OH273252   1.392   0.502  11.982  0.3169 -0.1012  0.0979
17254TIP3    H173253   1.342   0.504  11.899  0.8010  2.2002 -0.2070
17254TIP3    H273254   1.478   0.468  11.957  1.0325  2.1562 -0.7687
17255TIP3   OH273255   2.869   5.436   1.067  0.0652  0.2571 -0.2799
17255TIP3    H173256   2.848   5.354   1.023  0.8827  0.4135 -1.0012
17255TIP3    H273257   2.965   5.438   1.070  0.0589  1.1962 -0.3194
17256TIP3   OH273258   1.514   0.937   5.839  0.0488 -0.8999 -0.2297
17256TIP3    H173259   1.549   0.848   5.836 -2.0032 -1.8515  1.3862
17256TIP3    H273260   1.511   0.959   5.932 -2.2685 -0.3849 -0.3682
17257TIP3   OH273261   5.532   5.315  13.818  0.6947 -0.3310  0.0038
17257TIP3    H173262   5.605   5.290  13.762  0.8967 -1.9567  0.9463
17257TIP3    H273263   5.454   5.294  13.768  0.8689 -0.1522 -0.3454
17258TIP3   OH273264   2.287   5.180   0.447  0.3529 -0.3763 -0.3055
17258TIP3    H173265   2.279   5.099   0.397 -0.5912 -0.7321  0.3840
17258TIP3    H273266   2.243   5.161   0.530  1.5123  0.3369  0.4925
17259TIP3   OH273267   5.656   0.761   2.830  0.0569  0.1862 -0.3323
17259TIP3    H173268   5.664   0.764   2.925  1.1776 -0.1181 -0.3951
17259TIP3    H273269   5.610   0.679   2.813  1.8972 -0.9632 -0.1079
17260TIP3   OH273270   1.028   4.706  12.270  0.3793  0.5162  0.2510
17260TIP3    H173271   0.975   4.747  12.202  1.0373 -1.1931 -1.3698
17260TIP3    H273272   1.112   4.688  12.228  0.8020 -0.6099  1.5061
17261TIP3   OH273273   4.954   5.654   5.825 -0.0341  0.4465 -0.2510
17261TIP3    H173274   4.937   5.572   5.869 -2.6638  0.5272 -0.9601
17261TIP3    H273275   5.020   5.697   5.879 -0.5913 -0.9396  1.6397
17262TIP3   OH273276   4.258   3.909  14.882  0.0817 -0.9298  0.0776
17262TIP3    H173277   4.276   4.002  14.866 -0.4497 -0.9112 -0.4893
17262TIP3    H273278   4.203   3.908  14.960 -0.4130 -0.7091 -0.2600
17263TIP3   OH273279   4.301   1.273   1.008  0.0974  0.1011 -0.0294
17263TIP3    H173280   4.311   1.316   1.093 -2.8574 -0.0444  0.4739
17263TIP3    H273281   4.316   1.180   1.025 -3.1365 -0.3264  1.0110
17264TIP3   OH273282   3.078   5.705   5.716 -0.5473 -0.1563 -0.0420
17264TIP3    H173283   3.136   5.688   5.642 -0.6234 -0.9103  0.0659
17264TIP3    H273284   3.014   5.635   5.714 -2.0457  1.1830 -0.6996
17265TIP3   OH273285   3.590   2.250   5.751 -0.2249 -0.1291 -0.3955
17265TIP3    H173286   3.541   2.325   5.783  0.4533  0.2412 -0.2166
17265TIP3    H273287   3.635   2.216   5.828 -0.5284 -0.7323 -0.4722
17266TIP3   OH273288   2.868   3.900   4.510 -0.6096  0.0134 -0.0979
17266TIP3    H173289   2.938   3.961   4.534 -0.8477  0.6326 -0.9333
17266TIP3    H273290   2.900   3.815   4.539 -0.1789  0.4895  0.9055
17267TIP3   OH273291   5.892   4.492   5.165  0.2485 -0.0632 -0.1810
17267TIP3    H173292   5.976   4.472   5.123 -0.0655 -3.0432  0.4348
17267TIP3    H273293   5.826   4.462   5.103 -0.2517 -2.0939  1.2637
17268TIP3   OH273294   6.793   4.745  15.133 -0.1094 -0.2085 -0.2692
17268TIP3    H173295   6.752   4.792  15.060  0.8415  1.1763  0.0419
17268TIP3    H273296   6.728   4.748  15.203  0.1602  1.2620 -0.0415
17269TIP3   OH273297   2.144   4.147  15.285 -0.3038 -0.0005 -0.4120
17269TIP3    H173298   2.070   4.108  15.331  0.0255  0.9183  0.9408
17269TIP3    H273299   2.140   4.109  15.197 -1.2968 -1.3497  0.1752
17270TIP3   OH273300   0.848   3.169   1.465  0.5578 -0.1898  0.1793
17270TIP3    H173301   0.923   3.120   1.431  1.0942 -0.5576  1.7740
17270TIP3    H273302   0.788   3.177   1.391  2.2164  0.2354 -1.1970
17271TIP3   OH273303   6.506   2.140  11.111  0.0925  0.2326  0.1904
17271TIP3    H173304   6.441   2.121  11.179 -1.0765 -3.1598 -1.6416
17271TIP3    H273305   6.572   2.072  11.122  1.4363  1.4168 -0.2984
17272TIP3   OH273306   0.512   4.202  14.271 -0.0996  0.0834 -0.2188
17272TIP3    H173307   0.543   4.130  14.217 -1.9709 -1.1068  0.2162
17272TIP3    H273308   0.448   4.163  14.331 -1.9345  2.2208 -0.6176
17273TIP3   OH273309   4.176   6.688   0.087 -0.0924  0.1299 -0.0300
17273TIP3    H173310   4.232   6.610   0.095 -1.3039 -0.9741 -1.5767
17273TIP3    H273311   4.237   6.758   0.063  0.7927 -0.8120 -0.6501
17274TIP3   OH273312   2.927   1.764   5.804 -0.9089 -0.2586  0.0281
17274TIP3    H173313   2.998   1.811   5.847 -0.7837  1.7634 -2.1206
17274TIP3    H273314   2.920   1.681   5.850  2.2922 -0.1859  0.8419
17275TIP3   OH273315   6.637   1.623   3.610  1.0865  0.0589  0.8905
17275TIP3    H173316   6.712   1.656   3.561  0.6714 -0.7305 -0.3197
17275TIP3    H273317   6.620   1.689   3.676  1.0094  1.6884 -0.6951
17276TIP3   OH273318   4.316   2.786   4.363  0.1908  0.1577 -0.0699
17276TIP3    H173319   4.374   2.861   4.373 -0.2341  0.2720  1.9373
17276TIP3    H273320   4.246   2.801   4.426 -0.9259 -0.9955 -0.9804
17277TIP3   OH273321   5.036   1.377  11.983 -0.1136 -0.4992  0.2374
17277TIP3    H173322   5.029   1.424  11.900  1.9974 -0.8943 -0.2206
17277TIP3    H273323   4.952   1.331  11.991 -0.4511 -0.2941 -1.5657
17278TIP3   OH273324   5.998   2.485   6.660  0.0353 -0.5499  0.1059
17278TIP3    H173325   5.982   2.397   6.626  0.8063 -0.5217 -0.3380
17278TIP3    H273326   6.058   2.472   6.734 -0.0125 -0.4163  0.1695
17279TIP3   OH273327   3.133   0.266   0.189  0.1229 -0.7230  0.2769
17279TIP3    H173328   3.038   0.269   0.179  0.2500 -0.0143 -0.8310
17279TIP3    H273329   3.161   0.196   0.131  0.2408 -1.3332  1.0483
17280TIP3   OH273330   0.526   2.635   1.717  0.4773  0.2074  0.5254
17280TIP3    H173331   0.512   2.675   1.803 -3.0122  0.7932 -0.1507
17280TIP3    H273332   0.481   2.551   1.723  2.5396 -1.0046  0.0231
17281TIP3   OH273333   2.843   6.821  10.406 -0.1515  0.4493 -1.0883
17281TIP3    H173334   2.910   6.888  10.394  1.7088 -1.1973 -0.3179
17281TIP3    H273335   2.817   6.796  10.318 -0.4045  1.7038 -1.3871
17282TIP3   OH273336   2.314   2.512  16.659  0.1031  0.3968  0.4568
17282TIP3    H173337   2.233   2.558  16.678  0.8662  1.8534  0.3129
17282TIP3    H273338   2.348   2.487  16.746 -0.7689 -0.7619  0.4895
17283TIP3   OH273339   3.890   5.006  14.708  0.2419  0.2438 -0.1632
17283TIP3    H173340   3.805   5.030  14.744 -1.4756 -1.0489 -3.0708
17283TIP3    H273341   3.913   5.078  14.649  1.3131  0.6802  0.7489
17284TIP3   OH273342   0.861   3.929  16.495 -0.0422  0.4134  0.4601
17284TIP3    H173343   0.917   3.852  16.508 -0.1650 -0.3368 -2.6626
17284TIP3    H273344   0.815   3.912  16.413 -4.1375  1.4945  2.2596
17285TIP3   OH273345   5.944   2.620   5.175  0.4282 -0.0264 -0.1259
17285TIP3    H173346   5.962   2.691   5.237  0.3248  0.3306 -0.5094
17285TIP3    H273347   5.977   2.652   5.091  1.6909 -0.9907 -0.0331
17286TIP3   OH273348   0.324   5.502   1.197  0.3242 -0.3756 -0.0736
17286TIP3    H173349   0.357   5.571   1.139 -0.4695  1.0256  1.0802
17286TIP3    H273350   0.368   5.423   1.166 -0.2245  0.2415 -2.7350
17287TIP3   OH273351   2.450   3.175  11.442 -0.1052 -0.4353 -0.5152
17287TIP3    H173352   2.370   3.138  11.406 -1.0691  2.2048 -1.3537
17287TIP3    H273353   2.432   3.186  11.535 -1.3052  1.2881 -0.8917
17288TIP3   OH273354   5.449   1.145   2.971 -0.6822 -0.2269  0.3657
17288TIP3    H173355   5.464   1.107   3.058 -0.7578 -0.6382  0.2027
17288TIP3    H273356   5.418   1.071   2.918 -1.1367  0.1326  0.1222
17289TIP3   OH273357   1.976   0.139   2.835 -0.3597 -0.2361 -0.2254
17289TIP3    H173358   1.909   0.097   2.889 -2.0030  1.7539 -0.6089
17289TIP3    H273359   2.007   0.069   2.778 -1.7446 -1.3451  0.3048
17290TIP3   OH273360   6.596   5.374   4.294 -0.4123  0.3128 -0.6125
17290TIP3    H173361   6.647   5.293   4.300 -1.0264 -0.1772 -1.7762
17290TIP3    H273362   6.588   5.403   4.385  1.5143  0.1575 -0.3563
17291TIP3   OH273363   5.092   4.437  12.828  0.0136  0.4322  0.2992
17291TIP3    H173364   5.105   4.373  12.758 -0.9851  0.1383  0.3582
17291TIP3    H273365   5.169   4.493  12.825 -0.2625  0.7546 -1.3782
17292TIP3   OH273366   4.275   5.858  17.094 -0.0845 -0.1252  0.3014
17292TIP3    H173367   4.287   5.764  17.106 -1.4419 -0.2302  1.1088
17292TIP3    H273368   4.180   5.870  17.097  0.0968  1.3563  0.9693
17293TIP3   OH273369   5.384   2.199   1.001 -0.6331  0.0610 -0.1059
17293TIP3    H173370   5.404   2.109   1.027 -0.7870  0.3148  0.9625
17293TIP3    H273371   5.436   2.214   0.922 -0.1089 -0.7612  0.0735
17294TIP3   OH273372   6.494   5.543  16.174 -0.4894 -0.0590 -0.2905
17294TIP3    H173373   6.412   5.591  16.172 -0.5257 -0.1259 -0.4096
17294TIP3    H273374   6.535   5.568  16.256  1.1257  2.9684 -1.8432
17295TIP3   OH273375   3.533   4.903  11.876  0.2727 -0.2668 -0.8575
17295TIP3    H173376   3.607   4.852  11.843  0.8880  0.9617 -1.4132
17295TIP3    H273377   3.506   4.958  11.803  0.1420  0.7899 -0.0376
17296TIP3   OH273378   1.793   1.461   4.662 -0.0916  0.2228 -0.1900
17296TIP3    H173379   1.796   1.546   4.619 -1.3686  0.0156 -0.7060
17296TIP3    H273380   1.762   1.400   4.595  0.0211 -0.5065  0.3992
17297TIP3   OH273381   3.814   0.876  14.946 -0.2837 -0.0891  0.0444
17297TIP3    H173382   3.890   0.824  14.920  1.0017  1.4858  0.4960
17297TIP3    H273383   3.807   0.865  15.040  0.1394  0.7046  0.1788
17298TIP3   OH273384   5.366   6.158   5.066  0.7094 -0.7212 -0.0011
17298TIP3    H173385   5.388   6.099   5.139  2.2178  0.3752  0.4580
17298TIP3    H273386   5.281   6.194   5.090  0.7291 -1.1321  0.7263
17299TIP3   OH273387   2.411   1.113  14.043  0.4151  0.8682 -0.1903
17299TIP3    H173388   2.426   1.041  14.104 -1.3368  1.2935  0.8317
17299TIP3    H273389   2.315   1.119  14.036  0.5286  0.8479 -3.0215
17300TIP3   OH273390   3.950   5.572   5.213 -0.2612 -0.2877 -0.1307
17300TIP3    H173391   3.966   5.508   5.282 -1.6954 -0.8210 -0.2597
17300TIP3    H273392   3.923   5.651   5.260  1.2152  0.1763  0.0114
17301TIP3   OH273393   1.419   4.668  14.132  0.7620 -0.0927  0.1908
17301TIP3    H173394   1.485   4.601  14.118 -0.0280 -0.5492 -1.6094
17301TIP3    H273395   1.336   4.620  14.136  0.1308  0.7595 -1.6363
17302TIP3   OH273396   2.032   2.124   3.450 -0.1677  0.2694 -0.5862
17302TIP3    H173397   2.103   2.062   3.466 -0.3239 -0.0011 -0.9325
17302TIP3    H273398   2.029   2.178   3.529  0.6843  0.5452 -0.7309
17303TIP3   OH273399   3.171   0.152   2.817 -0.2143 -0.1089  0.2677
17303TIP3    H173400   3.236   0.084   2.802 -1.6560 -1.2670 -1.1767
17303TIP3    H273401   3.099   0.107   2.863 -0.4725  0.8651  0.8503
17304TIP3   OH273402   4.499   5.257   2.430 -0.3386 -0.5886  0.5432
17304TIP3    H173403   4.578   5.271   2.481 -0.5614 -1.8688  1.2971
17304TIP3    H273404   4.428   5.254   2.495 -1.1364  1.2749 -0.1765
17305TIP3   OH273405   3.656   2.743  15.402  0.2281  0.0200  0.3963
17305TIP3    H173406   3.631   2.696  15.321  3.4640 -0.0441 -0.7000
17305TIP3    H273407   3.749   2.722  15.413  1.0925  3.8469  1.5010
17306TIP3   OH273408   3.571   3.536   0.755 -0.3707  0.1217  1.0493
17306TIP3    H173409   3.566   3.631   0.763 -0.0923  0.6882 -3.1843
17306TIP3    H273410   3.665   3.518   0.748 -0.5108  0.1467 -1.9937
17307TIP3   OH273411   1.910   5.686  13.283 -0.0589  0.5596  0.1303
17307TIP3    H173412   1.821   5.653  13.270  0.3701 -1.1453  1.1159
17307TIP3    H273413   1.963   5.635  13.221  0.7083 -1.1782  2.0877
17308TIP3   OH273414   1.184   0.489  11.765  0.2049 -0.4765 -0.4247
17308TIP3    H173415   1.194   0.539  11.684  2.1446  0.7134  0.4557
17308TIP3    H273416   1.089   0.485  11.779 -0.1574  3.8345 -0.1346
17309TIP3   OH273417   4.319   2.792   6.285 -0.0203 -0.2289 -0.2278
17309TIP3    H173418   4.363   2.734   6.348 -0.0003 -0.3604 -0.3629
17309TIP3    H273419   4.230   2.801   6.319 -0.7403 -2.2110 -1.4251
17310TIP3   OH273420   5.279   3.449  11.941 -0.3624  0.2858 -0.2734
17310TIP3    H173421   5.199   3.451  11.994 -0.0261  4.3206  0.3869
17310TIP3    H273422   5.349   3.433  12.004 -0.2930  1.3843 -0.0512
17311TIP3   OH273423   5.944   6.551   3.176  0.1951  0.2811  0.1267
17311TIP3    H173424   5.967   6.458   3.181  1.2998  0.5461  0.2530
17311TIP3    H273425   5.980   6.580   3.092  0.0143  0.6423  0.1711
17312TIP3   OH273426   0.604   4.261   5.079  0.0129  0.2457 -0.1529
17312TIP3    H173427   0.611   4.245   5.174 -0.1625  0.0848 -0.1656
17312TIP3    H273428   0.534   4.202   5.050  0.0831  0.2766 -0.3875
17313TIP3   OH273429   4.714   2.195  13.512  0.1587  0.3535  0.4718
17313TIP3    H173430   4.757   2.116  13.482  1.2177  1.3989 -0.8924
17313TIP3    H273431   4.626   2.166  13.538  1.2213 -1.6135  2.1474
17314TIP3   OH273432   5.000   0.589   4.650  0.2943 -0.2462 -0.0393
17314TIP3    H173433   4.991   0.656   4.582  1.5911 -0.6577 -0.6409
17314TIP3    H273434   4.973   0.633   4.730 -1.2367  0.2626 -0.7815
17315TIP3   OH273435   6.660   0.477  16.130 -0.3510 -0.2863 -0.2325
17315TIP3    H173436   6.684   0.531  16.055 -0.0913  0.3509  0.3025
17315TIP3    H273437   6.740   0.430  16.152  0.1859  1.1304  0.9626
17316TIP3   OH273438   3.594   0.988   5.267 -0.6452 -0.1859  0.3417
17316TIP3    H173439   3.585   1.049   5.194 -1.4470 -0.5415  0.1352
17316TIP3    H273440   3.684   0.957   5.261 -0.3233  0.7294  0.2595
17317TIP3   OH273441   1.781   6.555  10.761 -0.3643 -0.0263 -0.0932
17317TIP3    H173442   1.862   6.559  10.810 -0.4660  0.2662  0.0504
17317TIP3    H273443   1.714   6.534  10.826 -0.1221 -2.4108 -0.5081
17318TIP3   OH273444   6.146   6.108   6.092 -0.4086  0.5906 -0.0430
17318TIP3    H173445   6.111   6.093   6.004 -1.1458  1.2765  0.1158
17318TIP3    H273446   6.068   6.108   6.148  0.2223 -2.3940  1.0219
17319TIP3   OH273447   6.075   4.701  14.230 -0.1294  0.6739  0.2647
17319TIP3    H173448   6.017   4.774  14.210  0.6137  1.1587 -0.1570
17319TIP3    H273449   6.082   4.652  14.148 -1.2214 -0.3260  0.7323
17320TIP3   OH273450   3.907   4.168  13.600  0.1082 -0.1573  0.5139
17320TIP3    H173451   3.845   4.179  13.673  1.7304 -0.2511  1.9552
17320TIP3    H273452   3.993   4.180  13.640  1.0533 -0.3285 -1.3929
17321TIP3   OH273453   1.276   6.102   1.903  0.5660  0.1404 -0.0012
17321TIP3    H173454   1.241   6.090   1.815  2.5516 -0.0731 -0.8086
17321TIP3    H273455   1.343   6.034   1.912 -0.3715 -0.5943  2.1427
17322TIP3   OH273456   3.364   3.401   0.899  0.1131 -0.3120 -0.9425
17322TIP3    H173457   3.445   3.439   0.865 -0.2866 -1.4951 -3.4306
17322TIP3    H273458   3.305   3.398   0.825 -1.3661 -1.7384  0.2042
17323TIP3   OH273459   0.275   1.993   1.722 -0.2288 -0.4538  0.1978
17323TIP3    H173460   0.366   2.021   1.725  0.4192 -2.4601  1.4884
17323TIP3    H273461   0.225   2.074   1.716  1.6156  0.6998 -0.4792
17324TIP3   OH273462   4.386   1.885   6.249 -0.2186  0.0814  0.1788
17324TIP3    H173463   4.295   1.856   6.248 -1.0241  2.3310  1.7558
17324TIP3    H273464   4.436   1.809   6.217 -2.5278 -1.5156  0.1835
17325TIP3   OH273465   0.284   0.187  16.867  0.2353  0.3497  0.1427
17325TIP3    H173466   0.328   0.197  16.783 -1.7078  4.0317 -0.6358
17325TIP3    H273467   0.324   0.255  16.922 -1.2149  0.6305  0.8833
17326TIP3   OH273468   5.580   0.598   0.003  0.0694  0.4039  0.0501
17326TIP3    H173469   5.509   0.535  -0.005  2.0823 -2.2480  1.5641
17326TIP3    H273470   5.659   0.549  -0.019  1.6287  2.7833 -0.0317
17327TIP3   OH273471   1.744   4.135  14.511 -0.4900  0.3995  0.2406
17327TIP3    H173472   1.765   4.139  14.417 -2.9077 -1.4585 -0.4846
17327TIP3    H273473   1.685   4.209  14.526  1.2525  1.7439  0.7711
17328TIP3   OH273474   5.504   0.217  11.341  0.3029 -0.4623 -0.0127
17328TIP3    H173475   5.511   0.139  11.397 -1.1459 -1.0766 -0.6339
17328TIP3    H273476   5.515   0.183  11.252  0.1301  0.1165 -0.2561
17329TIP3   OH273477   3.527   6.226  17.068 -0.2752 -0.0624 -0.2371
17329TIP3    H173478   3.597   6.191  17.013  1.0791 -0.5735  1.6976
17329TIP3    H273479   3.566   6.304  17.109 -1.3141  0.4385 -0.1616
17330TIP3   OH273480   5.370   1.581   3.828  0.0439  0.0134  0.4709
17330TIP3    H173481   5.429   1.637   3.778  0.4977 -1.3824 -0.6053
17330TIP3    H273482   5.305   1.641   3.865  2.2155  1.6336  1.8690
17331TIP3   OH273483   5.801   6.677  14.090 -0.0837 -0.1153  0.1105
17331TIP3    H173484   5.881   6.635  14.058  0.6733 -0.4942  2.2814
17331TIP3    H273485   5.759   6.610  14.144 -0.1852  1.0399  1.5510
17332TIP3   OH273486   6.085   0.013   3.162  0.5401 -0.0903 -0.4355
17332TIP3    H173487   6.082  -0.078   3.193 -1.5439  0.0519 -0.1033
17332TIP3    H273488   6.155   0.013   3.096  1.0522 -1.7606  0.0488
17333TIP3   OH273489   0.604   3.425   1.056 -0.2757  0.2698 -0.5915
17333TIP3    H173490   0.561   3.506   1.084 -0.1549  0.5195 -1.1186
17333TIP3    H273491   0.616   3.436   0.962 -2.9627 -1.6113 -1.2400
17334TIP3   OH273492   2.427   4.048  12.977 -0.2553 -0.2426 -0.2107
17334TIP3    H173493   2.338   4.072  13.004 -0.9791 -1.8858 -0.9211
17334TIP3    H273494   2.482   4.070  13.051 -1.3138  0.5214  0.3753
17335TIP3   OH273495   4.700   4.571  13.771 -0.4160 -0.5639 -0.2084
17335TIP3    H173496   4.784   4.615  13.789 -1.6088  1.5327  0.7316
17335TIP3    H273497   4.652   4.634  13.718 -1.8201 -1.2067  0.2641
17336TIP3   OH273498   0.691   2.976  17.182 -0.0331  0.0169 -0.3616
17336TIP3    H173499   0.622   2.944  17.241 -1.1868  0.9857 -1.1530
17336TIP3    H273500   0.727   2.897  17.143  1.3207 -0.7445  2.1853
17337TIP3   OH273501   2.233   6.776   2.058  0.7841  0.7350  0.1514
17337TIP3    H173502   2.211   6.704   2.117 -1.0693  0.2515 -1.0429
17337TIP3    H273503   2.326   6.764   2.038  0.6661 -0.9157  0.5202
17338TIP3   OH273504   3.341   6.180   3.311  0.0335 -0.4870 -0.1921
17338TIP3    H173505   3.393   6.206   3.387  0.4009 -0.0536 -0.5813
17338TIP3    H273506   3.405   6.170   3.240 -0.3821 -0.1642 -0.6250
17339TIP3   OH273507   1.219   5.307  12.935  0.6376 -0.7987 -0.3457
17339TIP3    H173508   1.151   5.338  12.876  0.2074 -1.1724 -0.0593
17339TIP3    H273509   1.300   5.316  12.886  0.8306  2.4854  0.3373
17340TIP3   OH273510   4.193   2.230  11.494  0.0349  0.3201  0.1320
17340TIP3    H173511   4.247   2.233  11.416 -1.8883 -0.4679 -1.3312
17340TIP3    H273512   4.200   2.140  11.525 -0.8438  0.0400 -0.4261
17341TIP3   OH273513   2.387   5.587   1.316  0.2991  0.3767 -0.4416
17341TIP3    H173514   2.419   5.504   1.353  0.2311  0.0913 -1.0182
17341TIP3    H273515   2.293   5.573   1.307  0.1374  0.8739  0.3646
17342TIP3   OH273516   2.860   0.171   0.015 -0.1581 -0.1962 -0.3476
17342TIP3    H173517   2.796   0.105   0.041  0.1704 -0.3256  0.1690
17342TIP3    H273518   2.846   0.244   0.076 -1.4307  0.8054 -1.7695
17343TIP3   OH273519   0.304   1.492   6.457  0.0393 -0.0281  0.2415
17343TIP3    H173520   0.285   1.404   6.488 -0.2278  0.2456  0.8707
17343TIP3    H273521   0.220   1.526   6.427  0.2508 -0.2033 -0.5971
17344TIP3   OH273522   0.751   5.668   1.801 -0.0221  0.1970 -0.1240
17344TIP3    H173523   0.738   5.592   1.744  2.4904  0.6429 -1.4711
17344TIP3    H273524   0.810   5.725   1.751 -1.0232  2.5863  1.2650
17345TIP3   OH273525   1.441   3.158   4.577  0.2202 -0.1111 -0.0576
17345TIP3    H173526   1.355   3.200   4.567 -0.5882 -1.9000 -0.9391
17345TIP3    H273527   1.426   3.066   4.559  2.5399 -0.3280 -1.2770
17346TIP3   OH273528   2.732   1.062   1.844 -0.2800  0.2998  0.0124
17346TIP3    H173529   2.710   1.087   1.934  0.9206 -0.6300  0.5805
17346TIP3    H273530   2.659   1.005   1.818  0.7030 -1.7337  1.4339
17347TIP3   OH273531   1.544   1.699  15.308 -0.3429  0.2766 -0.2366
17347TIP3    H173532   1.621   1.716  15.253  0.2208  0.0590  0.4772
17347TIP3    H273533   1.480   1.661  15.248 -0.0522  0.8628 -0.9305
17348TIP3   OH273534   0.674   5.933   0.854  0.2619  0.6563 -0.1247
17348TIP3    H173535   0.708   5.946   0.766  3.6756 -1.2520  0.7677
17348TIP3    H273536   0.715   6.002   0.906  0.4013  0.1302  0.4675
17349TIP3   OH273537   2.776   2.509   4.584  0.3189 -0.2069  0.3228
17349TIP3    H173538   2.850   2.464   4.543  0.3142 -0.3798  0.5058
17349TIP3    H273539   2.699   2.473   4.539  0.2778 -0.7873  0.8458
17350TIP3   OH273540   4.252   1.615   0.985  0.1861  0.1478 -0.4803
17350TIP3    H173541   4.317   1.545   0.976  0.1245 -0.0627  0.5503
17350TIP3    H273542   4.291   1.676   1.048 -0.0945  0.6572 -0.7885
17351TIP3   OH273543   1.366   2.509   3.899  0.5123  0.0632  0.4246
17351TIP3    H173544   1.285   2.555   3.919  0.0630 -0.8057  0.6515
17351TIP3    H273545   1.357   2.483   3.807  0.4239 -0.2332  0.5143
17352TIP3   OH273546   6.726   6.541   1.810  0.3231 -0.5484  0.2403
17352TIP3    H173547   6.742   6.449   1.832 -0.3042 -0.8319 -0.4475
17352TIP3    H273548   6.656   6.538   1.745  0.3833  0.4157  0.1209
17353TIP3   OH273549   3.660   3.851   6.179  0.0599  0.1389 -0.1004
17353TIP3    H173550   3.601   3.911   6.224  2.5018  1.7217  1.2261
17353TIP3    H273551   3.633   3.764   6.208  0.1809  0.9842  2.8723
17354TIP3   OH273552   3.109   3.964   4.117 -0.0453  0.5005 -0.4383
17354TIP3    H173553   3.120   4.029   4.048  1.4656  1.6050  0.7801
17354TIP3    H273554   3.196   3.925   4.128 -0.4689 -0.2937  0.2456
17355TIP3   OH273555   0.448   6.409   3.167  0.5572  0.3718 -0.2067
17355TIP3    H173556   0.504   6.335   3.142  1.0792  0.4827  0.6013
17355TIP3    H273557   0.490   6.485   3.127  1.9885  0.6992  1.7678
17356TIP3   OH273558   2.477   4.962  11.703  0.0604  0.1462 -0.2924
17356TIP3    H173559   2.489   4.869  11.682  1.5984  0.0840  0.7203
17356TIP3    H273560   2.471   4.964  11.799  0.0664  1.1007 -0.3071
17357TIP3   OH273561   2.461   3.006   4.888  0.1535 -0.5532 -0.1405
17357TIP3    H173562   2.446   2.911   4.882 -0.3476 -0.6423  1.8699
17357TIP3    H273563   2.554   3.014   4.910 -0.4455 -0.7996  2.8505
17358TIP3   OH273564   4.150   3.799   1.752  0.5472  0.3750  0.3469
17358TIP3    H173565   4.199   3.717   1.758 -0.1980 -0.0912  0.2146
17358TIP3    H273566   4.106   3.795   1.668  1.0122  1.2153  0.0510
17359TIP3   OH273567   1.427   5.088   6.593  0.1731 -0.0776 -0.2401
17359TIP3    H173568   1.364   5.072   6.664  0.0140 -0.1194 -0.3903
17359TIP3    H273569   1.379   5.141   6.529  0.4588  0.3593 -0.1030
17360TIP3   OH273570   3.917   3.190  15.260  0.0095 -0.0702 -0.0056
17360TIP3    H173571   3.869   3.255  15.209  2.6907  0.5734 -1.9650
17360TIP3    H273572   3.866   3.178  15.339 -1.5386  3.0697 -0.4033
17361TIP3   OH273573   0.650   4.425   0.989  0.0805  0.4401  0.6011
17361TIP3    H173574   0.587   4.468   1.046 -0.6095 -1.0118  0.9799
17361TIP3    H273575   0.604   4.413   0.906  1.3471  3.2975 -0.6574
17362TIP3   OH273576   3.120   3.713   0.084 -0.0952 -0.2400 -0.1834
17362TIP3    H173577   3.042   3.717   0.028  0.6527  1.8972 -1.1940
17362TIP3    H273578   3.086   3.703   0.173 -1.3918 -1.9215 -0.8136
17363TIP3   OH273579   0.509   1.043  14.897  0.0943  0.4669 -0.2244
17363TIP3    H173580   0.558   1.125  14.896 -0.8698  1.0577 -2.0838
17363TIP3    H273581   0.488   1.026  14.806 -0.2509 -1.5519  0.1907
17364TIP3   OH273582   3.942   5.561  15.881  0.0002  0.2977  0.4151
17364TIP3    H173583   3.906   5.647  15.859 -2.3587 -0.1730  2.1197
17364TIP3    H273584   4.011   5.579  15.944  0.1359  0.9728  0.0830
17365TIP3   OH273585   0.531   2.737   2.991 -0.3160  0.0180 -1.2453
17365TIP3    H173586   0.603   2.696   3.039 -0.6555  2.5392  1.6397
17365TIP3    H273587   0.456   2.680   3.008 -0.0198 -0.1086 -0.3014
17366TIP3   OH273588   5.999   2.409  12.406 -0.3615 -0.0069 -0.4474
17366TIP3    H173589   5.937   2.389  12.476  0.5400 -0.0736  0.3465
17366TIP3    H273590   5.948   2.397  12.326 -0.8282 -2.1512  0.0966
17367TIP3   OH273591   2.395   6.429   2.197 -0.1121  0.0367  0.1579
17367TIP3    H173592   2.448   6.497   2.155  1.1070 -0.3806  0.9649
17367TIP3    H273593   2.324   6.477   2.239  0.3804  0.7544  0.1921
17368TIP3   OH273594   4.077   5.626  14.418  0.5430 -0.3069 -0.5326
17368TIP3    H173595   4.046   5.680  14.490  0.3030 -0.8155 -0.2466
17368TIP3    H273596   4.012   5.556  14.411  0.9941 -0.7128 -0.7117
17369TIP3   OH273597   3.136   0.743   2.424  0.7404 -0.1792 -0.1378
17369TIP3    H173598   3.110   0.744   2.332 -0.2533  0.6894  0.1396
17369TIP3    H273599   3.173   0.830   2.440 -0.5989  0.2640  0.6907
17370TIP3   OH273600   5.681   5.618  13.079 -0.2980 -0.4001 -0.5762
17370TIP3    H173601   5.667   5.529  13.047 -0.8951 -0.9135  0.9764
17370TIP3    H273602   5.698   5.607  13.173  0.8639  1.0358 -0.5912
17371TIP3   OH273603   1.482   1.747   2.393 -0.3432 -0.4300 -0.4901
17371TIP3    H173604   1.501   1.841   2.396  0.7901 -0.6646  0.0936
17371TIP3    H273605   1.522   1.712   2.473 -0.7310 -1.4198 -0.7155
17372TIP3   OH273606   2.808   2.670   1.986 -0.1974  0.2668  0.0175
17372TIP3    H173607   2.714   2.675   2.004 -0.4369 -0.2213 -0.9747
17372TIP3    H273608   2.832   2.759   1.962 -0.6401  0.1979 -0.7186
17373TIP3   OH273609   0.277   5.603   0.818  0.2609 -0.0986  0.0678
17373TIP3    H173610   0.257   5.652   0.738 -0.8105 -1.0427 -0.2753
17373TIP3    H273611   0.356   5.645   0.853 -0.8605  2.1807  0.0610
17374TIP3   OH273612   6.166   5.983  14.999  0.4343 -0.5927 -0.2210
17374TIP3    H173613   6.153   5.893  15.028  1.3903 -0.4715  0.6670
17374TIP3    H273614   6.078   6.019  14.989  0.0346 -1.6772 -0.8002
17375TIP3   OH273615   6.562   2.599   3.599 -0.1301 -0.2053  0.4753
17375TIP3    H173616   6.593   2.612   3.509  1.8165 -1.4186  0.9241
17375TIP3    H273617   6.518   2.681   3.621  1.2965  0.9708 -0.8325
17376TIP3   OH273618   0.737   5.148  14.395 -0.0809  0.2002  0.5478
17376TIP3    H173619   0.741   5.053  14.405 -1.2050 -0.0606 -1.0994
17376TIP3    H273620   0.821   5.180  14.429 -0.5001 -1.1382  3.1571
17377TIP3   OH273621   2.035   0.899   1.919  0.3037  0.2596  0.0020
17377TIP3    H173622   2.061   0.822   1.868 -0.1262  0.2510 -0.2048
17377TIP3    H273623   1.963   0.868   1.974  1.4799 -0.0230  1.4416
17378TIP3   OH273624   0.651   0.538  14.446 -0.0454 -0.2069  0.0694
17378TIP3    H173625   0.575   0.499  14.402 -0.4865 -0.4198  0.9838
17378TIP3    H273626   0.678   0.471  14.509  0.8118 -0.0673 -0.1453
17379TIP3   OH273627   4.982   4.415  14.057 -0.1440  0.1564  0.2837
17379TIP3    H173628   4.953   4.446  14.143 -0.3046 -0.4875  0.4706
17379TIP3    H273629   4.932   4.334  14.043 -0.4294  0.4684 -0.6018
17380TIP3   OH273630   3.467   5.971   5.671  0.2170 -0.3989  0.6664
17380TIP3    H173631   3.420   6.005   5.595  1.6998  2.3781  0.8690
17380TIP3    H273632   3.546   5.931   5.634  0.1690 -0.4950  0.6657
17381TIP3   OH273633   0.235   1.149   3.309 -0.3914  0.4877  0.2612
17381TIP3    H173634   0.144   1.119   3.299  0.0179 -0.2865 -1.7141
17381TIP3    H273635   0.236   1.236   3.269 -0.6378  1.3207  2.0060
17382TIP3   OH273636   5.839   1.986  13.379 -0.0527  0.2475  0.1784
17382TIP3    H173637   5.872   2.024  13.298 -0.1860 -3.4226 -1.7975
17382TIP3    H273638   5.745   2.004  13.379 -0.1650 -0.2749 -0.8647
17383TIP3   OH273639   3.343   5.817   0.577  0.4823  0.6973 -0.0340
17383TIP3    H173640   3.343   5.726   0.546  0.1784  0.6465  0.1113
17383TIP3    H273641   3.296   5.814   0.660 -2.4306  1.4581 -1.4944
17384TIP3   OH273642   4.984   5.014  15.954  0.4043 -0.3811  0.3501
17384TIP3    H173643   5.020   4.925  15.957 -0.3594 -0.6607  2.1531
17384TIP3    H273644   4.950   5.030  16.042  0.2967  1.6181 -0.0067
17385TIP3   OH273645   3.594   6.555  12.120  0.1520  0.8331 -0.2062
17385TIP3    H173646   3.675   6.581  12.077 -0.1017  0.1067 -1.1356
17385TIP3    H273647   3.602   6.590  12.209  1.1655  1.3818 -0.5039
17386TIP3   OH273648   1.465   1.211  13.013 -0.1664  0.0061 -0.0296
17386TIP3    H173649   1.489   1.229  13.104  0.7106 -1.8380  0.1487
17386TIP3    H273650   1.537   1.157  12.979 -1.3602 -0.8993 -1.2337
17387TIP3   OH273651   5.562   1.283   0.223 -0.0473 -0.5013  0.5787
17387TIP3    H173652   5.468   1.279   0.206  0.3384 -1.3685 -1.8566
17387TIP3    H273653   5.570   1.316   0.312 -2.6797 -1.5030  1.2652
17388TIP3   OH273654   2.287   3.995   0.178  0.2329 -0.4068  0.0129
17388TIP3    H173655   2.362   4.000   0.119  0.5896  0.5854  0.5322
17388TIP3    H273656   2.263   3.902   0.178  1.5036 -0.7573 -0.1179
17389TIP3   OH273657   6.000   6.125  14.335 -0.2512 -0.2669  0.5823
17389TIP3    H173658   6.027   6.040  14.298 -0.2947 -0.5183  1.1208
17389TIP3    H273659   5.908   6.133  14.312 -0.2716 -0.4099  0.6152
17390TIP3   OH273660   0.721   2.384  14.482  0.3067 -0.0397  0.1209
17390TIP3    H173661   0.803   2.365  14.437  0.5752  2.3684 -0.5653
17390TIP3    H273662   0.653   2.359  14.420  0.6562  2.0888 -1.2371
17391TIP3   OH273663   6.100   1.895  16.409 -0.1835  0.6391 -0.2468
17391TIP3    H173664   6.067   1.808  16.433 -0.2166  0.8273  0.4125
17391TIP3    H273665   6.168   1.877  16.344  0.6945  0.0049  0.7866
17392TIP3   OH273666   2.818   6.451  13.314 -0.3731 -0.4087  0.0986
17392TIP3    H173667   2.807   6.384  13.247 -1.7828 -0.1473  0.0260
17392TIP3    H273668   2.805   6.404  13.397  1.5166 -0.7608  0.2213
17393TIP3   OH273669   5.379   0.686  16.826  0.1520 -0.0513 -0.0174
17393TIP3    H173670   5.333   0.651  16.750  1.5022 -2.3303  0.1348
17393TIP3    H273671   5.456   0.729  16.790 -0.4571  1.0532 -0.0568
17394TIP3   OH273672   5.476   1.949   3.226  0.0208  0.3265 -0.2298
17394TIP3    H173673   5.439   1.885   3.286 -0.6894  1.2972  0.4001
17394TIP3    H273674   5.487   2.028   3.279  0.4961  0.8478 -1.0825
17395TIP3   OH273675   0.378   5.815   3.741  0.1375 -0.2383  0.6722
17395TIP3    H173676   0.312   5.788   3.677  0.1800  1.6747 -0.2609
17395TIP3    H273677   0.365   5.910   3.749  2.2086  0.0447  1.1156
17396TIP3   OH273678   2.155   6.525  15.646  0.1097 -0.0371 -0.0634
17396TIP3    H173679   2.202   6.557  15.723  1.5208  1.3165 -1.4017
17396TIP3    H273680   2.076   6.578  15.641  0.5285  0.5891 -0.1065
17397TIP3   OH273681   4.658   4.843  15.234  0.2290  0.1292  0.5884
17397TIP3    H173682   4.620   4.872  15.151  0.6996  1.1824  0.7289
17397TIP3    H273683   4.731   4.787  15.207  0.4081  0.4995  0.2782
17398TIP3   OH273684   0.646   5.373   4.173  0.5048 -0.2539  0.0641
17398TIP3    H173685   0.687   5.456   4.147 -0.7523  0.6079  0.7234
17398TIP3    H273686   0.575   5.399   4.232 -0.0919 -1.7926  0.0635
17399TIP3   OH273687   1.588   2.450  11.362 -0.2530 -0.0281 -0.2300
17399TIP3    H173688   1.652   2.448  11.433 -1.0773 -0.9228  0.5114
17399TIP3    H273689   1.640   2.470  11.284  0.7488  0.4108  0.5281
17400TIP3   OH273690   4.351   0.846  14.817 -0.8128  0.2786  0.2071
17400TIP3    H173691   4.293   0.791  14.765  0.7128  0.3670 -1.7367
17400TIP3    H273692   4.301   0.926  14.833 -1.6953 -0.1715 -0.2285
17401TIP3   OH273693   3.337   1.136   0.834  0.0817 -0.3342 -0.5883
17401TIP3    H173694   3.302   1.049   0.818  1.4450 -1.1569  0.5957
17401TIP3    H273695   3.428   1.132   0.804  0.7483  0.0373  1.2011
17402TIP3   OH273696   3.913   5.097   2.754  0.0129  0.4945 -0.5723
17402TIP3    H173697   3.892   5.029   2.818 -1.9147  2.0862  0.6293
17402TIP3    H273698   4.007   5.089   2.740 -0.0194 -1.8589  0.1449
17403TIP3   OH273699   6.280   2.319   1.545 -0.4957  0.7767 -0.0296
17403TIP3    H173700   6.289   2.274   1.461  1.3981 -3.9960  2.3422
17403TIP3    H273701   6.187   2.314   1.566 -0.9383  1.7763 -1.6245
17404TIP3   OH273702   0.797   0.748  13.999 -0.1396  0.3613  0.0666
17404TIP3    H173703   0.704   0.762  13.984 -0.5469 -1.8279  0.1976
17404TIP3    H273704   0.801   0.696  14.079  1.2531  0.9742  0.4255
17405TIP3   OH273705   2.113   2.392  11.728  0.1396 -0.2342 -0.5839
17405TIP3    H173706   2.092   2.483  11.707 -0.6407 -0.3338 -0.2758
17405TIP3    H273707   2.029   2.353  11.752  0.7403 -0.5092  1.2452
17406TIP3   OH273708   0.473   2.732  12.917 -0.1381  0.6686  0.2249
17406TIP3    H173709   0.380   2.728  12.940 -0.0806  2.0276  0.7554
17406TIP3    H273710   0.474   2.750  12.823 -0.3715 -1.3457 -0.2264
17407TIP3   OH273711   4.316   0.104  14.501  0.2210 -0.3793 -0.5204
17407TIP3    H173712   4.292   0.123  14.410 -1.0754 -1.5530 -0.4685
17407TIP3    H273713   4.334   0.190  14.540 -0.7080  0.2817 -1.4954
17408TIP3   OH273714   4.423   6.357   5.509  0.1308  0.1970 -0.0325
17408TIP3    H173715   4.347   6.389   5.556  1.3452 -0.1690  2.3015
17408TIP3    H273716   4.496   6.411   5.539  1.4467 -1.8621  0.7615
17409TIP3   OH273717   0.210   3.531   4.479 -0.3976 -0.0951 -0.0661
17409TIP3    H173718   0.254   3.528   4.565  0.5153 -0.2998 -0.5264
17409TIP3    H273719   0.276   3.568   4.420 -0.4969 -1.3125 -0.9722
17410TIP3   OH273720   2.790   1.007   0.138 -0.0489  0.4239 -0.2263
17410TIP3    H173721   2.859   0.995   0.072  0.8761 -0.1298  0.8007
17410TIP3    H273722   2.731   0.933   0.124 -0.0945  0.5448 -0.7028
17411TIP3   OH273723   5.909   4.484   1.010  0.2130  0.1178  0.1861
17411TIP3    H173724   5.827   4.533   1.008  1.4333  2.3310  0.5137
17411TIP3    H273725   5.917   4.446   0.923 -0.9314  0.2793  0.0032
17412TIP3   OH273726   1.663   5.557   4.325 -0.6930  0.0037  0.7376
17412TIP3    H173727   1.730   5.528   4.387  1.2822  0.5355 -1.0044
17412TIP3    H273728   1.653   5.651   4.342  0.9398  0.4770 -0.5846
17413TIP3   OH273729   1.581   3.291   4.358  0.0792 -0.2894 -0.1391
17413TIP3    H173730   1.570   3.351   4.432  3.4828  1.0591 -0.5444
17413TIP3    H273731   1.549   3.206   4.391 -2.8699  1.1798  1.1793
17414TIP3   OH273732   1.495   2.188  12.640  0.5795  0.0003  0.2779
17414TIP3    H173733   1.415   2.193  12.692 -0.6712 -0.8487 -1.4565
17414TIP3    H273734   1.526   2.099  12.653  1.0752  0.2337  0.7038
17415TIP3   OH273735   1.683   5.406   1.556  0.6561  0.0540 -0.3639
17415TIP3    H173736   1.763   5.354   1.557  0.6511  0.0443 -0.4840
17415TIP3    H273737   1.705   5.484   1.506  0.8072  0.4004  0.2418
17416TIP3   OH273738   0.049   4.062   2.825  0.3330 -0.0978 -0.2132
17416TIP3    H173739   0.127   4.051   2.880  1.3717  2.2445 -1.0943
17416TIP3    H273740   0.008   4.142   2.858 -0.9142 -0.5221 -0.6931
17417TIP3   OH273741   1.948   1.829   6.325  0.6301  0.2141 -0.6769
17417TIP3    H173742   1.859   1.828   6.291 -0.2736  0.7660  1.4909
17417TIP3    H273743   1.981   1.917   6.304  0.0071  0.6273  0.0630
17418TIP3   OH273744   1.414   0.219   2.764 -0.2973 -0.1091  0.4592
17418TIP3    H173745   1.457   0.284   2.818  0.7554  0.6335 -1.2112
17418TIP3    H273746   1.322   0.247   2.761  0.0180  0.9081  0.2893
17419TIP3   OH273747   1.729   0.572   1.184  0.0794 -0.1653  0.2212
17419TIP3    H173748   1.733   0.525   1.100  0.0396 -0.3384  0.3158
17419TIP3    H273749   1.636   0.574   1.205  0.0930 -0.1511  0.2790
17420TIP3   OH273750   0.855   4.610   5.368  0.3291 -0.1326  0.3506
17420TIP3    H173751   0.772   4.562   5.359  0.6146 -0.2958 -1.8755
17420TIP3    H273752   0.922   4.542   5.369  0.4913  0.0179  1.8380
17421TIP3   OH273753   0.997   6.622   0.527 -0.2483 -0.1939  0.3940
17421TIP3    H173754   1.006   6.547   0.586 -1.5484 -0.4663  0.2904
17421TIP3    H273755   0.906   6.649   0.537  0.6011  2.5850  1.8160
17422TIP3   OH273756   2.806   5.469  14.376  1.1551 -0.3617 -0.2012
17422TIP3    H173757   2.794   5.560  14.348 -1.2490 -0.9709 -1.4423
17422TIP3    H273758   2.794   5.471  14.471  1.1271  0.6178 -0.2155
17423TIP3   OH273759   1.133   5.052  15.558  0.2499 -0.3722  0.0099
17423TIP3    H173760   1.217   5.097  15.572  0.8455 -1.1375 -0.9703
17423TIP3    H273761   1.095   5.095  15.482  0.3342 -0.8496 -0.3010
17424TIP3   OH273762   0.779   5.760  13.874 -0.1886 -0.3350  0.8199
17424TIP3    H173763   0.700   5.732  13.921  0.4214 -2.5245  0.6373
17424TIP3    H273764   0.783   5.704  13.797  1.9924 -0.9322  1.2880
17425TIP3   OH273765   6.602   0.225   1.311 -0.4732  0.0280  0.0281
17425TIP3    H173766   6.685   0.268   1.291 -0.2127 -0.2942  0.4079
17425TIP3    H273767   6.545   0.249   1.238 -0.5472  1.5614  0.5384
17426TIP3   OH273768   1.114   5.514   5.197 -0.2448  0.8888  0.0971
17426TIP3    H173769   1.127   5.607   5.183  0.4305  0.8683  0.5435
17426TIP3    H273770   1.023   5.498   5.174 -0.8131  1.9417  1.5028
17427TIP3   OH273771   2.197   5.047  15.827 -0.0046  0.1846  0.1962
17427TIP3    H173772   2.282   5.090  15.816 -0.4551  1.5761  1.7229
17427TIP3    H273773   2.138   5.096  15.771 -0.0069 -0.1596 -0.1067
17428TIP3   OH273774   3.203   0.310   4.029 -0.2062  0.3431 -0.5986
17428TIP3    H173775   3.260   0.351   4.094  2.2840 -1.5199 -1.4108
17428TIP3    H273776   3.216   0.363   3.950  0.4762 -0.0782 -0.7829
17429TIP3   OH273777   1.048   3.479   3.456  0.0315 -0.2857 -0.0673
17429TIP3    H173778   1.012   3.563   3.428  2.8513  1.3417  0.7949
17429TIP3    H273779   1.038   3.479   3.552 -0.8195 -1.4380 -0.1252
17430TIP3   OH273780   2.874   2.227  14.699  0.3537  0.1557  0.1824
17430TIP3    H173781   2.948   2.170  14.717  0.2890  0.2199  0.6665
17430TIP3    H273782   2.848   2.205  14.610 -0.0584 -0.9957  0.5738
17431TIP3   OH273783   1.733   4.796   3.481  0.0015  0.4328 -0.1835
17431TIP3    H173784   1.744   4.777   3.574  1.5389  0.7489 -0.2821
17431TIP3    H273785   1.797   4.741   3.436 -1.7168 -0.8202 -1.2154
17432TIP3   OH273786   1.182   5.013  11.310  0.6767  0.8033 -0.1419
17432TIP3    H173787   1.114   4.979  11.367 -0.2719  0.2220 -1.5670
17432TIP3    H273788   1.259   4.959  11.328 -0.1793 -0.6745 -0.8030
17433TIP3   OH273789   5.701   1.506   5.346 -0.2666 -0.1122 -0.1218
17433TIP3    H173790   5.750   1.556   5.412 -0.0206  0.2390 -0.5640
17433TIP3    H273791   5.656   1.574   5.294 -2.4654 -0.4471  1.2028
17434TIP3   OH273792   5.223   1.063   1.887 -0.3058  0.6251  0.3401
17434TIP3    H173793   5.172   1.002   1.834  0.9385  1.2118 -1.6165
17434TIP3    H273794   5.208   1.035   1.977 -0.3465 -2.1235 -0.4438
17435TIP3   OH273795   1.436   6.676  13.129 -0.3999  0.0845 -0.2120
17435TIP3    H173796   1.384   6.708  13.203  0.8356  1.5328  0.0801
17435TIP3    H273797   1.525   6.707  13.147  0.5225 -1.9811 -0.8919
17436TIP3   OH273798   1.058   0.347  14.606 -0.0297  0.0930 -0.2701
17436TIP3    H173799   1.137   0.364  14.555  0.7059  0.6070  0.9912
17436TIP3    H273800   1.062   0.253  14.626  1.3435  0.4684  1.4571
17437TIP3   OH273801   3.909   0.492  12.775  0.0086 -0.1424 -0.8192
17437TIP3    H173802   3.990   0.513  12.821  0.5542 -2.0670 -0.8252
17437TIP3    H273803   3.891   0.570  12.723  1.1854  0.7973  0.1089
17438TIP3   OH273804   2.707   3.530  15.685 -0.2660  0.2049 -0.0473
17438TIP3    H173805   2.721   3.550  15.778  0.7128 -0.9689  0.0788
17438TIP3    H273806   2.725   3.612  15.640  3.7816 -0.2038  0.4245
17439TIP3   OH273807   1.099   6.763   1.103 -0.0534  0.1645  0.0132
17439TIP3    H173808   1.110   6.742   1.196 -2.0559 -0.8973  0.0804
17439TIP3    H273809   1.066   6.853   1.103 -1.8750 -0.4647  0.5022
17440TIP3   OH273810   5.841   0.766  16.333  0.2969  0.2698  0.0011
17440TIP3    H173811   5.748   0.790  16.341  0.0517 -0.9141  0.9458
17440TIP3    H273812   5.847   0.678  16.370  1.9724  0.7166  0.9325
17441TIP3   OH273813   1.193   4.184  11.971 -0.3284  0.1291  0.2681
17441TIP3    H173814   1.144   4.251  12.018 -1.0954  0.1623 -0.5432
17441TIP3    H273815   1.159   4.101  12.006  0.7025  0.1456  1.3530
17442TIP3   OH273816   6.798   0.861   1.549  0.2089 -0.1375 -0.1170
17442TIP3    H173817   6.733   0.927   1.573  0.3310  0.2735 -0.8853
17442TIP3    H273818   6.746   0.783   1.528 -0.0151  0.0616 -0.3150
17443TIP3   OH273819   4.452   6.511   6.374 -0.4827 -0.1471  1.0959
17443TIP3    H173820   4.507   6.558   6.311 -0.2083 -0.9491  0.7279
17443TIP3    H273821   4.407   6.580   6.423  0.0389  0.4994  0.6765
17444TIP3   OH273822   5.862   3.643  10.801 -0.1751 -0.0794 -0.1915
17444TIP3    H173823   5.770   3.628  10.824 -0.1443 -1.0226 -0.6183
17444TIP3    H273824   5.911   3.579  10.853  0.1217 -0.4241 -0.8781
17445TIP3   OH273825   0.445   0.706  11.721 -0.1146  0.0218 -0.1810
17445TIP3    H173826   0.520   0.716  11.663  0.0303 -1.1282 -0.2063
17445TIP3    H273827   0.387   0.645  11.676 -0.2074 -0.5287  0.6665
17446TIP3   OH273828   4.820   4.791   5.397 -0.1758  0.3828  0.0422
17446TIP3    H173829   4.896   4.802   5.340  1.2105 -1.3059  1.4458
17446TIP3    H273830   4.857   4.780   5.485 -2.1797  1.8082  1.1550
17447TIP3   OH273831   1.380   6.487   4.452 -0.1990  0.0208 -0.0684
17447TIP3    H173832   1.289   6.510   4.432 -0.9092 -0.5379  2.1954
17447TIP3    H273833   1.389   6.396   4.423 -0.7205 -0.2610  0.6023
17448TIP3   OH273834   1.234   4.344   5.844  0.0623  0.2466 -0.6405
17448TIP3    H173835   1.263   4.326   5.755 -0.6706 -0.4960 -0.7355
17448TIP3    H273836   1.173   4.418   5.834 -0.0466  0.1415 -0.7555
17449TIP3   OH273837   5.657   6.515  10.587 -0.0143 -0.5326  0.5223
17449TIP3    H173838   5.697   6.451  10.646 -0.8730 -0.1422  1.5567
17449TIP3    H273839   5.634   6.464  10.509  2.2687 -0.8196 -0.0544
17450TIP3   OH273840   1.029   0.233   6.181  0.0317 -0.1438  0.3169
17450TIP3    H173841   1.097   0.300   6.171 -0.1909 -0.0398 -0.5085
17450TIP3    H273842   0.947   0.281   6.171 -0.1203 -0.6708 -1.1580
17451TIP3   OH273843   3.999   3.570   4.336  0.6107 -0.1067  0.1869
17451TIP3    H173844   3.995   3.476   4.357  0.4306  0.0292  0.7751
17451TIP3    H273845   3.986   3.614   4.420 -3.9377  0.5298 -0.6061
17452TIP3   OH273846   1.065   4.102  15.978 -0.1663 -0.1453  0.9414
17452TIP3    H173847   0.983   4.096  16.026 -0.3839  0.9936  0.7335
17452TIP3    H273848   1.097   4.191  15.995  0.5993 -0.2910  0.3442
17453TIP3   OH273849   0.604   2.458   6.575  0.1273 -0.7517 -0.3166
17453TIP3    H173850   0.660   2.383   6.596 -0.5408 -1.1042  0.2192
17453TIP3    H273851   0.517   2.432   6.605 -0.6864 -0.8710 -2.5871
17454TIP3   OH273852   0.219   3.977   3.540  0.1128 -0.3016  0.5211
17454TIP3    H173853   0.260   4.053   3.582  1.6353 -1.0747  0.4845
17454TIP3    H273854   0.141   4.013   3.498  0.0105  0.9767  1.7336
17455TIP3   OH273855   5.627   4.650   2.050  0.6312  0.2607 -0.3867
17455TIP3    H173856   5.713   4.691   2.062  0.7890 -0.4871  1.2202
17455TIP3    H273857   5.572   4.689   2.118 -0.2327  0.4762 -1.1802
17456TIP3   OH273858   5.863   4.878   0.588 -0.6916  0.2747  0.7391
17456TIP3    H173859   5.871   4.900   0.495  0.3556 -0.1302  0.7268
17456TIP3    H273860   5.953   4.874   0.620 -1.0434  0.4302  1.7800
17457TIP3   OH273861   1.212   2.360   0.851 -0.0983  0.3548 -0.0256
17457TIP3    H173862   1.187   2.445   0.886  0.4150  0.1015  1.0248
17457TIP3    H273863   1.217   2.372   0.757 -2.6943  0.7760 -0.1670
17458TIP3   OH273864   3.853   2.812  17.170  0.2087 -0.2213 -0.2929
17458TIP3    H173865   3.945   2.818  17.144  0.0141  0.7346 -0.7872
17458TIP3    H273866   3.834   2.897  17.209  0.0997 -1.1071  1.7372
17459TIP3   OH273867   6.399   6.097  11.975  0.6725 -0.7348 -0.1297
17459TIP3    H173868   6.490   6.110  11.948  0.5960 -0.7662 -0.4110
17459TIP3    H273869   6.366   6.185  11.992  0.4412 -0.6230 -1.0785
17460TIP3   OH273870   2.037   5.897  15.842 -0.1596 -0.8660 -0.1960
17460TIP3    H173871   1.999   5.823  15.890 -2.1633 -0.5810 -1.2345
17460TIP3    H273872   2.084   5.856  15.768  1.1494 -1.1899  0.7748
17461TIP3   OH273873   0.135   1.839   2.117 -0.9508 -0.2126  0.1224
17461TIP3    H173874   0.228   1.821   2.134 -1.2957 -2.0076  0.3036
17461TIP3    H273875   0.110   1.902   2.184  0.1726  0.4313 -0.0372
17462TIP3   OH273876   4.180   1.118  11.374 -0.2236  0.3102 -0.5789
17462TIP3    H173877   4.087   1.095  11.370 -0.4273  1.1775 -1.1766
17462TIP3    H273878   4.214   1.068  11.448 -1.3451  0.5731  0.1539
17463TIP3   OH273879   4.878   5.902   0.347 -0.1208 -0.2127  0.7247
17463TIP3    H173880   4.789   5.924   0.374 -1.2888 -1.3008 -1.8696
17463TIP3    H273881   4.883   5.932   0.256  3.1408  2.2780  1.5658
17464TIP3   OH273882   1.740   4.071  14.214 -0.2117 -0.9145 -0.1162
17464TIP3    H173883   1.669   4.015  14.246 -0.3049  0.4438  2.1962
17464TIP3    H273884   1.805   4.009  14.181 -1.1617 -2.2971  0.4952
17465TIP3   OH273885   6.049   6.158  10.663 -0.1461 -0.3726 -0.0767
17465TIP3    H173886   6.097   6.075  10.666  0.2524 -0.2289 -1.4746
17465TIP3    H273887   5.962   6.135  10.631 -0.0884 -0.2746 -0.3044
17466TIP3   OH273888   5.295   1.430   4.542  0.4018  0.0142 -0.2530
17466TIP3    H173889   5.235   1.455   4.472  1.1364 -0.3404 -1.0292
17466TIP3    H273890   5.333   1.513   4.572 -0.8339  0.2997  0.6117
17467TIP3   OH273891   1.221   1.863   1.006  0.1879  0.2635  0.0681
17467TIP3    H173892   1.161   1.858   1.080 -0.6675  1.1315 -0.5409
17467TIP3    H273893   1.167   1.897   0.934  0.9695 -0.6775 -0.9808
17468TIP3   OH273894   5.167   6.807  16.066 -0.6271  0.4191  0.0108
17468TIP3    H173895   5.261   6.812  16.048  0.2551  1.2463  3.9256
17468TIP3    H273896   5.127   6.794  15.980  3.0399 -0.2487 -1.7994
17469TIP3   OH273897   1.790   4.440   3.549 -0.2102 -0.6342  0.6357
17469TIP3    H173898   1.771   4.475   3.462  2.0567 -2.0088 -0.5030
17469TIP3    H273899   1.844   4.507   3.591 -1.3333  0.0443  1.0327
17470TIP3   OH273900   0.113   0.849  11.891  0.0509  0.2059  0.0724
17470TIP3    H173901   0.099   0.862  11.797 -0.3914 -1.6674 -0.1576
17470TIP3    H273902   0.168   0.923  11.917  0.7753  0.3857 -1.7950
17471TIP3   OH273903   4.134   0.214   1.336 -0.6139  0.0804  0.2368
17471TIP3    H173904   4.171   0.134   1.374 -0.1921 -0.3370 -1.0271
17471TIP3    H273905   4.095   0.260   1.411 -0.5915 -1.1507  1.0253
17472TIP3   OH273906   4.336   2.916  14.265 -0.0810 -0.2029  0.0180
17472TIP3    H173907   4.301   2.836  14.227 -1.1779 -0.5593  1.6578
17472TIP3    H273908   4.366   2.891  14.352  3.0533  0.4148 -0.7689
17473TIP3   OH273909   0.003   3.345   5.849  0.6930  0.0235  0.3650
17473TIP3    H173910  -0.040   3.305   5.924 -0.1140  1.7686  0.8860
17473TIP3    H273911  -0.003   3.440   5.865  1.5104  0.4111 -1.3426
17474TIP3   OH273912   0.086   3.148  12.997  0.1205  0.3635 -0.3898
17474TIP3    H173913   0.128   3.124  13.079  0.2643 -2.0455 -1.0912
17474TIP3    H273914   0.022   3.215  13.021  0.5230  0.0929  1.5873
17475TIP3   OH273915   5.678   3.994  15.506 -0.0356  0.3264  0.4183
17475TIP3    H173916   5.631   3.978  15.424  1.0501  0.9881 -0.3553
17475TIP3    H273917   5.748   3.929  15.506  1.4362  1.8344 -0.3873
17476TIP3   OH273918   3.007   3.717   5.238 -0.0491  0.2726  0.8294
17476TIP3    H173919   3.006   3.769   5.318  1.4106 -1.1478  1.8163
17476TIP3    H273920   3.096   3.685   5.231 -1.0025 -2.6204  0.6367
17477TIP3   OH273921   4.626   1.910  16.927  0.5120  0.0662 -0.0283
17477TIP3    H173922   4.573   1.899  16.848  1.7686  1.3953 -1.1096
17477TIP3    H273923   4.571   1.961  16.986 -0.9530 -2.0556  0.5473
17478TIP3   OH273924   1.217   3.367  11.550  0.2595  0.0366 -0.1506
17478TIP3    H173925   1.192   3.451  11.511  2.5015  0.4143 -0.9492
17478TIP3    H273926   1.304   3.384  11.587  0.2870 -1.6725  0.6392
17479TIP3   OH273927   6.190   3.227  16.249 -0.1183  0.6223 -0.1391
17479TIP3    H173928   6.166   3.214  16.157 -1.4585 -0.1371  0.2935
17479TIP3    H273929   6.166   3.145  16.292 -0.5528  1.3574  1.0852
17480TIP3   OH273930   5.168   4.297   2.798 -0.8461 -0.0475  0.2102
17480TIP3    H173931   5.092   4.238   2.795 -0.7450 -0.3283  2.0568
17480TIP3    H273932   5.156   4.355   2.722 -3.2765  0.3266  0.7829
17481TIP3   OH273933   3.193   1.186  14.646  0.3826 -0.8316 -0.3830
17481TIP3    H173934   3.194   1.228  14.560 -0.4229 -0.8737 -0.4259
17481TIP3    H273935   3.118   1.126  14.642  1.4845 -2.2818 -0.3178
17482TIP3   OH273936   0.411   2.851   5.373 -0.7502  0.2776 -0.4132
17482TIP3    H173937   0.334   2.815   5.328 -1.7787  1.0905  0.6461
17482TIP3    H273938   0.406   2.814   5.461 -1.1869  2.0357  0.3417
17483TIP3   OH273939   3.541   3.541  14.099 -0.2363 -0.0800 -0.4150
17483TIP3    H173940   3.559   3.451  14.127 -2.6265 -0.1232  1.2370
17483TIP3    H273941   3.501   3.531  14.013 -0.3428 -0.5868 -0.3092
17484TIP3   OH273942   1.157   4.646  13.507 -0.5341  0.3345 -0.3889
17484TIP3    H173943   1.161   4.607  13.420  0.9531 -0.9992  0.2358
17484TIP3    H273944   1.068   4.630  13.537 -0.5075 -0.9081 -0.9244
17485TIP3   OH273945   0.768   3.075   2.115  0.2494  0.3731 -1.0816
17485TIP3    H173946   0.673   3.088   2.109  0.0680 -1.0112 -1.7968
17485TIP3    H273947   0.782   2.989   2.074  1.6130 -0.2074  0.5059
17486TIP3   OH273948   0.901   4.485   1.427 -0.1964 -0.2888 -0.1896
17486TIP3    H173949   0.903   4.484   1.331 -2.6798  0.3161 -0.3213
17486TIP3    H273950   0.977   4.538   1.452  0.4867 -0.4383 -1.8158
17487TIP3   OH273951   5.038   1.243  16.150 -0.1112  0.1121 -0.1207
17487TIP3    H173952   4.975   1.172  16.138 -0.0845  0.1538 -0.5260
17487TIP3    H273953   5.123   1.199  16.156 -0.1738  0.0566  0.4206
17488TIP3   OH273954   4.962   4.368  16.507 -0.4640 -1.1336  0.4168
17488TIP3    H173955   4.913   4.320  16.440 -1.1168  1.0445 -0.7639
17488TIP3    H273956   4.895   4.410  16.561  0.0375  0.4328 -0.1171
17489TIP3   OH273957   5.195   5.184  15.203  0.4912  0.2985  0.9239
17489TIP3    H173958   5.207   5.270  15.163 -0.6113 -0.1923 -0.5426
17489TIP3    H273959   5.105   5.184  15.233  0.5686 -0.2636  1.1635
17490TIP3   OH273960   2.752   6.514   2.100  0.5509 -0.2784  0.1328
17490TIP3    H173961   2.811   6.440   2.114  0.3467 -1.0829 -2.7680
17490TIP3    H273962   2.692   6.485   2.032 -2.2347  1.1111  1.7891
17491TIP3   OH273963   1.962   3.002  13.256 -0.0026 -0.4159 -0.1271
17491TIP3    H173964   2.008   2.919  13.253 -2.1685 -1.6643 -0.8122
17491TIP3    H273965   2.031   3.068  13.265  1.7591 -2.2649  0.4937
17492TIP3   OH273966   1.691   1.242   1.625  0.5056 -0.1308  0.2041
17492TIP3    H173967   1.603   1.205   1.629  0.6783 -0.7230 -0.9290
17492TIP3    H273968   1.735   1.208   1.703  0.2183 -1.1514 -0.0685
17493TIP3   OH273969   3.928   6.474   5.713  0.1704 -0.3834  0.4181
17493TIP3    H173970   3.972   6.499   5.632  0.9497  1.1502  1.2925
17493TIP3    H273971   3.997   6.472   5.779 -0.9366  1.6009  1.7224
17494TIP3   OH273972   6.521   1.163  17.032  0.0917  0.2814  0.6273
17494TIP3    H173973   6.525   1.078  17.075 -3.6799 -0.3797 -0.0109
17494TIP3    H273974   6.486   1.222  17.098 -0.5018  0.5432  0.0886
17495TIP3   OH273975   4.896   2.012  12.473  1.1067  0.5769 -0.5240
17495TIP3    H173976   4.805   2.041  12.480  1.1761  0.6954 -0.0321
17495TIP3    H273977   4.913   1.966  12.556  1.5070  0.5903 -0.5938
17496TIP3   OH273978   5.195   2.644  15.976  0.6247  0.0157 -0.3121
17496TIP3    H173979   5.169   2.617  15.888  1.6055  0.4654 -0.7447
17496TIP3    H273980   5.122   2.616  16.032 -1.2542  2.0017 -1.5956
17497TIP3   OH273981   4.850   0.443  14.145  0.5653 -0.0084  0.1418
17497TIP3    H173982   4.796   0.522  14.140 -1.3505 -1.1922  0.9908
17497TIP3    H273983   4.801   0.377  14.097  2.8123 -0.4147 -1.7922
17498TIP3   OH273984   2.023   0.316  16.263  0.1872  0.3291 -0.3724
17498TIP3    H173985   2.028   0.223  16.240 -1.1207  0.1991 -0.2249
17498TIP3    H273986   2.039   0.317  16.358  0.3456  0.2789 -0.3975
17499TIP3   OH273987   1.269   3.434  16.952 -0.2308  0.1827  0.4429
17499TIP3    H173988   1.252   3.424  17.046 -1.0726  2.6803  0.6315
17499TIP3    H273989   1.316   3.517  16.945 -2.2065  1.2396 -1.5046
17500TIP3   OH273990   4.972   4.798   1.769  0.2893  0.5057  0.0137
17500TIP3    H173991   4.882   4.831   1.777  0.7390  1.9918 -0.7073
17500TIP3    H273992   4.995   4.813   1.677  1.5426  0.8750  0.3748
17501TIP3   OH273993   4.196   3.739   2.884  0.2051 -0.1644  0.8253
17501TIP3    H173994   4.144   3.803   2.836  1.1372 -0.7425 -1.0193
17501TIP3    H273995   4.133   3.674   2.914 -0.5886  0.9638  1.7326
17502TIP3   OH273996   0.796   0.986   0.135  0.4995  0.0167 -0.7091
17502TIP3    H173997   0.776   0.947   0.220  0.7907 -0.9025 -1.0487
17502TIP3    H273998   0.733   1.058   0.125 -0.5433 -0.8367 -0.3883
17503TIP3   OH273999   2.928   3.620   4.537  0.4956 -0.1569 -0.2060
17503TIP3    H174000   2.905   3.537   4.578 -3.1017 -0.0928 -1.7458
17503TIP3    H274001   2.947   3.597   4.446  0.3280  0.6056 -0.4406
17504TIP3   OH274002   2.644   5.013  17.037  0.3117  0.6263  0.2830
17504TIP3    H174003   2.624   4.929  16.995  2.5538  0.5023 -0.6457
17504TIP3    H274004   2.590   5.013  17.116  0.4886 -1.8561  0.4892
17505TIP3   OH274005   0.347   1.726   4.047 -0.1158 -0.7057  1.1081
17505TIP3    H174006   0.434   1.765   4.062 -0.7633  1.8627 -1.0205
17505TIP3    H274007   0.358   1.676   3.966 -0.2740 -1.6739  1.6784
17506TIP3   OH274008   6.187   6.464  11.355  0.1023  0.0564 -0.1188
17506TIP3    H174009   6.185   6.531  11.287  1.6688  3.4010  2.8200
17506TIP3    H274010   6.128   6.496  11.423  1.0956 -1.3477  1.5047
17507TIP3   OH274011   0.633   4.202  13.753  0.1430  0.6339 -0.1248
17507TIP3    H174012   0.715   4.225  13.709  0.4059  0.7108  0.4015
17507TIP3    H274013   0.619   4.110  13.730  0.0831  0.7733 -0.6704
17508TIP3   OH274014   0.257   3.467  15.873 -0.6560  0.1503 -0.7210
17508TIP3    H174015   0.202   3.506  15.805  1.4481 -1.8969 -3.8751
17508TIP3    H274016   0.255   3.373  15.854  1.5442 -0.3007  0.8580
17509TIP3   OH274017   1.570   3.782   4.291  0.2009 -0.3319 -0.5400
17509TIP3    H174018   1.620   3.863   4.305 -0.2847  0.0601 -1.0253
17509TIP3    H274019   1.616   3.739   4.219 -0.1932  0.0634 -1.0345
17510TIP3   OH274020   0.377   2.951  14.083  0.1899 -0.1874 -0.9203
17510TIP3    H174021   0.309   3.017  14.068 -0.1039 -0.0658  0.7878
17510TIP3    H274022   0.344   2.873  14.040 -0.8860 -0.0350 -0.3966
17511TIP3   OH274023   6.084   5.175   5.370 -0.5381 -0.3945 -0.5458
17511TIP3    H174024   6.095   5.238   5.441 -0.1533 -1.1961  0.1198
17511TIP3    H274025   6.156   5.114   5.380 -0.3034 -0.3536 -1.8232
17512TIP3   OH274026   3.536   2.112  16.091 -0.2372  0.0651  0.6239
17512TIP3    H174027   3.500   2.130  16.178 -0.3918  1.4898  0.2975
17512TIP3    H274028   3.593   2.037  16.104 -1.6948 -0.9290  1.5679
17513TIP3   OH274029   5.164   0.896  13.870 -0.1735  0.5029 -0.1337
17513TIP3    H174030   5.200   0.956  13.805 -1.6019  1.7837  0.2109
17513TIP3    H274031   5.221   0.818  13.864  2.2214  2.1318 -0.0535
17514TIP3   OH274032   3.634   6.541   1.762 -0.2056 -0.1518  0.4894
17514TIP3    H174033   3.570   6.528   1.692 -0.7528 -2.3336  1.3096
17514TIP3    H274034   3.583   6.534   1.843  0.4520  2.1043  1.1567
17515TIP3   OH274035   3.124   6.343   2.706 -0.1169  0.1100 -0.0732
17515TIP3    H174036   3.175   6.422   2.692 -0.3447 -0.2284 -4.1237
17515TIP3    H274037   3.166   6.300   2.781  1.8179  2.6189  0.4125
17516TIP3   OH274038   0.631   2.562   2.510  0.3790 -0.1956 -0.1279
17516TIP3    H174039   0.723   2.578   2.528  0.7805 -0.7705 -1.5778
17516TIP3    H274040   0.623   2.466   2.507 -0.4356 -0.1775  0.7552
17517TIP3   OH274041   5.115   6.347  11.240  0.8710  0.0038 -0.7590
17517TIP3    H174042   5.098   6.283  11.172  0.4897  0.4298 -1.0738
17517TIP3    H274043   5.085   6.305  11.321  0.2103 -0.0488 -1.0230
17518TIP3   OH274044   0.697   5.349  13.425  0.2040  0.5461 -0.2083
17518TIP3    H174045   0.654   5.427  13.392  0.3685  0.1335 -1.4594
17518TIP3    H274046   0.625   5.292  13.453 -0.1998 -0.3542 -2.7672
17519TIP3   OH274047   3.461   3.137   1.917 -0.1786  1.0444  0.0404
17519TIP3    H174048   3.371   3.106   1.926  0.3468 -1.1403 -1.4707
17519TIP3    H274049   3.473   3.147   1.822  1.1548  1.3510  0.2259
17520TIP3   OH274050   4.114   0.679   3.657  0.0590  0.3205  0.1572
17520TIP3    H174051   4.130   0.688   3.751  0.9773  1.5785 -0.0902
17520TIP3    H274052   4.028   0.637   3.651  0.7915 -1.5137  1.5538
17521TIP3   OH274053   2.983   2.642  14.349 -0.3600  0.1414 -0.2308
17521TIP3    H174054   2.956   2.692  14.426  0.5550 -1.9826  1.6106
17521TIP3    H274055   2.901   2.614  14.309 -0.8585  1.9336 -0.5150
17522TIP3   OH274056   6.008   2.380   2.169  0.8313 -0.3947 -0.3204
17522TIP3    H174057   5.957   2.460   2.157 -1.2319 -1.4994  0.5420
17522TIP3    H274058   6.068   2.378   2.095  0.5442  1.6631 -0.6467
17523TIP3   OH274059   4.903   2.398   3.907 -0.4002  0.3142 -0.0132
17523TIP3    H174060   4.820   2.350   3.909  0.2405 -0.8296  0.4644
17523TIP3    H274061   4.885   2.479   3.954 -1.2160  0.0296  0.1812
17524TIP3   OH274062   5.456   5.060   0.731  0.3862 -0.7777 -0.2453
17524TIP3    H174063   5.513   5.081   0.804  0.8123 -0.5329 -0.6421
17524TIP3    H274064   5.510   5.075   0.653  0.1651 -1.6982 -0.5952
17525TIP3   OH274065   6.298   3.914   0.921  0.0718  0.5919 -0.4606
17525TIP3    H174066   6.279   3.930   1.013  1.0380 -1.3265  0.1233
17525TIP3    H274067   6.255   3.831   0.901 -1.4937  1.7197 -2.2409
17526TIP3   OH274068   0.117   2.224   1.743  0.8038  0.1640  0.1651
17526TIP3    H174069   0.073   2.294   1.695 -0.3626 -0.0193  0.9360
17526TIP3    H274070   0.165   2.270   1.812  2.8379  0.4673 -1.3610
17527TIP3   OH274071   3.116   2.425  12.407  0.4666  0.2954  0.1029
17527TIP3    H174072   3.199   2.469  12.425  0.9719  0.8644 -3.0948
17527TIP3    H274073   3.058   2.495  12.377 -0.4745 -0.4481  0.1317
17528TIP3   OH274074   2.686   5.837  12.040  0.3648  0.0617 -0.7202
17528TIP3    H174075   2.687   5.932  12.051 -0.9421  0.2201 -1.6429
17528TIP3    H274076   2.671   5.824  11.946 -0.2601 -1.0314 -0.4970
17529TIP3   OH274077   0.778   6.037   0.633 -0.6098 -0.9550 -0.4617
17529TIP3    H174078   0.739   6.116   0.668  0.0703 -0.6842 -0.2907
17529TIP3    H274079   0.760   6.040   0.539  1.8090  0.8605 -0.9489
17530TIP3   OH274080   1.211   3.241   1.906 -0.0365  0.1860 -0.1378
17530TIP3    H174081   1.116   3.240   1.913 -0.0378 -1.5885 -0.0973
17530TIP3    H274082   1.240   3.302   1.975 -1.1207  0.9115 -0.2991
17531TIP3   OH274083   3.719   3.490   5.874 -0.4942 -0.5696 -0.1651
17531TIP3    H174084   3.711   3.584   5.889 -2.1674 -0.6534 -0.3859
17531TIP3    H274085   3.639   3.466   5.827 -0.3826 -2.2080  0.4199
17532TIP3   OH274086   0.199   0.128  15.413 -0.6877  0.2644  0.3181
17532TIP3    H174087   0.266   0.064  15.391  0.2420  0.9049  1.2139
17532TIP3    H274088   0.158   0.094  15.492 -2.5953 -0.9644 -1.1096
17533TIP3   OH274089   0.489   5.004  13.510  0.2248  0.3407  0.3970
17533TIP3    H174090   0.407   5.001  13.460  0.8668  0.0814 -0.6565
17533TIP3    H274091   0.491   5.092  13.548 -0.2114  0.5782 -0.1255
17534TIP3   OH274092   1.529   0.301   6.121  0.1353  0.4082  0.1512
17534TIP3    H174093   1.560   0.373   6.067 -0.2094 -0.0630 -0.6838
17534TIP3    H274094   1.469   0.342   6.183 -2.7619  0.4652 -2.4413
17535TIP3   OH274095   0.620   6.495   5.807 -0.4420 -0.3416 -0.0291
17535TIP3    H174096   0.608   6.521   5.899 -0.2877  0.3530 -0.1933
17535TIP3    H274097   0.691   6.553   5.776 -1.7274  0.7222 -1.0821
17536TIP3   OH274098   4.707   1.467   5.750 -0.1240  0.2269 -0.6445
17536TIP3    H174099   4.770   1.479   5.821  1.2790 -1.1608 -1.6116
17536TIP3    H274100   4.760   1.464   5.671 -0.9937 -3.7076 -1.2925
17537TIP3   OH274101   5.773   2.938   3.966 -1.2283 -0.0427 -0.2512
17537TIP3    H174102   5.786   2.995   3.890 -0.0436 -0.1003 -0.1094
17537TIP3    H274103   5.784   2.849   3.933  2.4666 -0.0005  0.4801
17538TIP3   OH274104   4.329   5.017  14.241  0.3638  0.4522  0.5442
17538TIP3    H174105   4.305   4.971  14.160  0.3848  2.2957 -0.5917
17538TIP3    H274106   4.265   4.988  14.305 -0.2835 -0.3076 -0.4145
17539TIP3   OH274107   3.359   4.775  15.662 -0.1744  0.2430  0.0247
17539TIP3    H174108   3.395   4.775  15.573 -0.2247 -1.4245 -0.0315
17539TIP3    H274109   3.272   4.813  15.652  0.2108  1.0445 -0.4404
17540TIP3   OH274110   5.737   0.607   0.790  0.1604 -0.0154 -0.1464
17540TIP3    H174111   5.766   0.598   0.699  0.5270  0.2144 -0.0520
17540TIP3    H274112   5.653   0.651   0.784  0.1269 -0.1103 -0.3832
17541TIP3   OH274113   0.693   6.780   5.003  0.4856  0.3722 -0.1328
17541TIP3    H174114   0.774   6.801   4.956  1.0570  0.0083  0.6574
17541TIP3    H274115   0.721   6.719   5.072 -0.3551  0.7449  0.5563
17542TIP3   OH274116   0.613   4.591  13.678  0.0854  0.2887  0.0047
17542TIP3    H174117   0.558   4.528  13.631 -0.2633  1.4169 -1.1706
17542TIP3    H274118   0.552   4.639  13.734  0.0592  0.7324 -0.3994
17543TIP3   OH274119   0.264   6.342   4.905 -0.4456 -0.2740  0.0959
17543TIP3    H174120   0.264   6.308   4.816 -0.1633 -1.8837  0.6650
17543TIP3    H274121   0.351   6.322   4.939 -0.9720 -0.8991  1.1480
17544TIP3   OH274122   1.219   2.976   3.344  0.6540 -0.0483  0.7340
17544TIP3    H174123   1.229   2.906   3.409 -1.9200  0.1610  1.4489
17544TIP3    H274124   1.183   3.049   3.393 -2.0742 -0.1133 -0.9565
17545TIP3   OH274125   4.005   5.744   3.813 -0.0205 -0.2581 -0.4382
17545TIP3    H174126   4.040   5.684   3.878  0.1509  0.6203  0.2864
17545TIP3    H274127   3.930   5.785   3.856 -3.0120 -3.1405 -2.3893
17546TIP3   OH274128   6.009   1.171  14.653 -0.3741  0.0762 -0.2479
17546TIP3    H174129   5.945   1.224  14.701 -0.3290 -0.4699  0.4294
17546TIP3    H274130   5.963   1.090  14.633 -0.2410  0.1163 -0.7311
17547TIP3   OH274131   3.266   4.958   3.808 -0.2130  0.6577  0.2890
17547TIP3    H174132   3.321   5.028   3.842 -1.1514  0.1636  3.0880
17547TIP3    H274133   3.234   4.991   3.724 -0.4606  3.4863  1.4001
17548TIP3   OH274134   5.995   4.986  14.844 -0.3773 -0.2134  0.2335
17548TIP3    H174135   6.042   5.063  14.812 -0.3338 -0.1823  0.3670
17548TIP3    H274136   6.057   4.944  14.905 -0.3081 -0.4892 -0.0264
17549TIP3   OH274137   1.017   1.146  13.832 -0.4517  0.4272  0.0794
17549TIP3    H174138   1.101   1.115  13.800 -1.2183 -0.7204 -0.9226
17549TIP3    H274139   0.988   1.079  13.894 -1.3360 -0.0124 -0.7806
17550TIP3   OH274140   1.335   5.537   5.340 -0.0730  0.1757 -0.4862
17550TIP3    H174141   1.324   5.538   5.435  1.3818 -1.9038 -0.2197
17550TIP3    H274142   1.248   5.520   5.305 -0.4770  0.1024  0.5279
17551TIP3   OH274143   6.004   0.950  10.490  0.2855 -0.1171  0.1306
17551TIP3    H174144   5.911   0.948  10.466  0.0837 -0.6579  0.9461
17551TIP3    H274145   6.041   0.873  10.447 -0.0853 -1.1125  1.5491
17552TIP3   OH274146   4.127   6.188   5.688  1.0187  0.5664 -0.1871
17552TIP3    H174147   4.142   6.114   5.748 -2.3185  0.5885  0.8575
17552TIP3    H274148   4.132   6.265   5.745  0.3580  0.8061 -0.4550
17553TIP3   OH274149   2.491   1.683   5.344 -0.7050 -0.6081  0.4137
17553TIP3    H174150   2.417   1.652   5.291 -1.6886  0.4940  1.0714
17553TIP3    H274151   2.556   1.613   5.339 -0.3688 -0.1978 -2.9280
17554TIP3   OH274152   1.474   1.880  14.163  0.2716 -0.6547 -0.0171
17554TIP3    H174153   1.554   1.884  14.215  0.1881 -0.2398  0.0875
17554TIP3    H274154   1.460   1.787  14.147 -0.1596 -0.8622  1.4160
17555TIP3   OH274155   2.668   2.592   4.885 -0.2693 -0.1415  0.5841
17555TIP3    H174156   2.640   2.534   4.814  2.9250  0.8528 -1.7588
17555TIP3    H274157   2.726   2.538   4.939 -0.1221 -0.0878  0.4835
17556TIP3   OH274158   5.283   2.407  13.256  0.0545  0.1449 -0.3811
17556TIP3    H174159   5.204   2.379  13.302 -0.4236  1.0809 -0.6249
17556TIP3    H274160   5.351   2.406  13.323 -0.5344  1.0538  0.2464
17557TIP3   OH274161   1.436   4.255   6.185  0.2044  0.5720 -0.2975
17557TIP3    H174162   1.509   4.231   6.243  0.4208 -0.8135 -1.1100
17557TIP3    H274163   1.460   4.218   6.100 -0.6072  1.6645 -1.0257
17558TIP3   OH274164   5.712   1.077  16.932 -0.1274 -0.1556 -0.2676
17558TIP3    H174165   5.669   1.160  16.955  0.3192  0.3209 -1.1437
17558TIP3    H274166   5.713   1.028  17.015  2.5640  1.9923  1.1462
17559TIP3   OH274167   3.985   3.604   5.715  0.0185 -0.1276 -0.6021
17559TIP3    H174168   3.996   3.566   5.628 -0.0771 -1.4353 -0.0597
17559TIP3    H274169   3.978   3.529   5.774  0.7908  0.7227  0.6363
17560TIP3   OH274170   4.632   3.626   5.625 -0.2762 -0.0404 -0.1782
17560TIP3    H174171   4.608   3.700   5.568  1.7530  0.7771 -0.0525
17560TIP3    H274172   4.696   3.663   5.686 -0.7396 -1.4483  1.2136
17561TIP3   OH274173   1.656   3.680  11.411 -0.1536 -0.0304  0.2736
17561TIP3    H174174   1.729   3.704  11.469  0.8087 -1.8825 -0.0787
17561TIP3    H274175   1.698   3.645  11.333 -1.3924 -1.3952  0.1647
17562TIP3   OH274176   3.055   0.736   5.367  0.4228  0.1278  0.0495
17562TIP3    H174177   3.147   0.749   5.386  0.5480 -1.8499  1.1208
17562TIP3    H274178   3.029   0.663   5.423 -1.4983 -0.1373 -1.0765
17563TIP3   OH274179   3.566   1.675   1.465  0.3816 -0.2009  0.3574
17563TIP3    H174180   3.544   1.583   1.482 -1.2266  0.4030  1.8522
17563TIP3    H274181   3.607   1.706   1.546  0.5781  0.4981  0.0006
17564TIP3   OH274182   0.756   1.074   3.366  0.0318  0.4690 -0.2353
17564TIP3    H174183   0.814   1.098   3.294  0.2415  0.9849  0.1009
17564TIP3    H274184   0.769   1.142   3.432  0.7914 -0.6638  0.8399
17565TIP3   OH274185   4.287   6.796  15.613 -0.2929  0.3494  0.3628
17565TIP3    H174186   4.306   6.856  15.685 -0.3931  0.0807  0.6176
17565TIP3    H274187   4.345   6.721  15.629  0.0348  0.4988 -0.1091
17566TIP3   OH274188   0.920   4.350  14.051 -0.1480 -0.6889 -0.0302
17566TIP3    H174189   0.957   4.411  14.115 -0.1489 -0.9600  0.2340
17566TIP3    H274190   0.867   4.405  13.993  0.2768 -0.3645 -0.1214
17567TIP3   OH274191   0.034   1.453  12.113 -0.0583 -0.0288  0.0319
17567TIP3    H174192   0.093   1.501  12.055  0.3719  0.4129  0.8077
17567TIP3    H274193  -0.037   1.424  12.057  1.2264 -1.1738 -1.0745
17568TIP3   OH274194   2.676   4.096   4.030  0.5270  0.4798 -0.1722
17568TIP3    H174195   2.742   4.028   4.044  1.5246  1.4287 -0.0617
17568TIP3    H274196   2.608   4.078   4.094 -0.7586 -2.1650 -2.0841
17569TIP3   OH274197   0.175   2.709   2.876 -0.3001  0.3282  0.4601
17569TIP3    H174198   0.242   2.745   2.817  0.3932 -0.3746  0.7950
17569TIP3    H274199   0.106   2.775   2.877 -0.4778  0.2269 -1.3855
17570TIP3   OH274200   5.405   2.309  17.087 -0.3764  0.0175  0.2969
17570TIP3    H174201   5.321   2.326  17.044 -0.8007 -2.0316  0.1837
17570TIP3    H274202   5.447   2.243  17.032  1.6994  1.5623 -0.0747
17571TIP3   OH274203   0.243   6.620   3.980  0.4478 -0.0730 -0.2379
17571TIP3    H174204   0.215   6.629   3.888 -1.1107  1.0416  0.3016
17571TIP3    H274205   0.162   6.625   4.030  1.4498  1.5538  1.3445
17572TIP3   OH274206   4.629   0.056   0.648  1.0607 -0.3358  0.1908
17572TIP3    H174207   4.663   0.089   0.732  1.4799 -0.5526  0.1127
17572TIP3    H274208   4.655  -0.037   0.647  1.3135 -0.2650 -0.3041
17573TIP3   OH274209   5.365   2.417  16.403  0.0393 -0.2212  0.0515
17573TIP3    H174210   5.414   2.468  16.338  0.2322 -1.3337 -0.6972
17573TIP3    H274211   5.359   2.475  16.479  0.3695  0.8645 -0.7224
17574TIP3   OH274212   1.983   5.667  11.893  0.0103 -0.2282  0.7193
17574TIP3    H174213   1.959   5.575  11.881 -0.8826 -0.0308  0.9290
17574TIP3    H274214   2.027   5.670  11.977  0.3482 -0.5228  0.5539
17575TIP3   OH274215   3.885   2.558  10.272  0.2422 -0.3276 -0.0983
17575TIP3    H174216   3.925   2.560  10.359  0.5050 -0.6942 -0.2085
17575TIP3    H274217   3.805   2.609  10.281  0.6288  0.2304  0.1805
17576TIP3   OH274218   2.942   4.402  17.151  0.2802 -0.2471 -0.2898
17576TIP3    H174219   2.881   4.419  17.079  0.5201 -0.7089 -0.6056
17576TIP3    H274220   2.889   4.410  17.230 -0.6286 -2.4114 -0.6140
17577TIP3   OH274221   5.059   6.033   0.122  0.1669 -0.2637  0.1042
17577TIP3    H174222   5.125   6.102   0.129  0.9364 -0.8446 -1.2830
17577TIP3    H274223   4.979   6.080   0.096  0.6419  0.1355 -0.6644
17578TIP3   OH274224   3.372   6.710  15.993 -0.4471 -0.2081 -0.1421
17578TIP3    H174225   3.404   6.793  15.959  0.3183 -0.3821  0.1319
17578TIP3    H274226   3.278   6.712  15.978 -0.3030  0.2884 -1.0371
17579TIP3   OH274227   0.595   6.228  12.880  0.4312 -0.1191 -0.2101
17579TIP3    H174228   0.624   6.295  12.942 -0.7131 -1.1361  1.5207
17579TIP3    H274229   0.507   6.256  12.854  0.2552 -0.5421 -0.0758
17580TIP3   OH274230   4.007   5.502  12.436 -0.6005 -0.2312 -0.0119
17580TIP3    H174231   4.072   5.566  12.464 -0.4971 -0.2504 -0.2079
17580TIP3    H274232   3.925   5.552  12.434 -0.7416 -0.3999  1.0166
17581TIP3   OH274233   1.249   6.018  13.604  0.3504 -0.5930 -0.3996
17581TIP3    H174234   1.282   6.040  13.691  0.2815 -1.2324 -0.2031
17581TIP3    H274235   1.326   6.019  13.548  0.2144  1.0947 -0.6114
17582TIP3   OH274236   1.169   2.453  11.457  0.3310  0.1944  0.2881
17582TIP3    H174237   1.152   2.512  11.531  1.6289  1.1945 -0.1764
17582TIP3    H274238   1.251   2.409  11.480  1.4958  1.5338 -1.1441
17583TIP3   OH274239   3.835   5.555   3.664  0.0696 -0.0131  0.3948
17583TIP3    H174240   3.868   5.640   3.693 -0.4951  0.6671 -0.8553
17583TIP3    H274241   3.803   5.571   3.575 -2.1392 -0.9853  0.9461
17584TIP3   OH274242   1.285   2.790   5.633 -0.1711 -0.4580  0.3054
17584TIP3    H174243   1.309   2.817   5.545 -0.9731 -0.5505  0.0515
17584TIP3    H274244   1.258   2.699   5.625  0.0441 -0.5613  0.7026
17585TIP3   OH274245   4.860   3.744   5.825  0.2231  0.2978  0.2091
17585TIP3    H174246   4.863   3.833   5.861 -1.7203  0.8138 -0.7890
17585TIP3    H274247   4.809   3.694   5.888  2.2806 -0.4766  1.3649
17586TIP3   OH274248   0.505   6.051  11.496  0.6852  0.0227  0.5998
17586TIP3    H174249   0.568   6.057  11.424 -2.3531 -1.6185 -2.4815
17586TIP3    H274250   0.504   5.958  11.519 -1.0674 -0.1425  0.0172
17587TIP3   OH274251   4.699   5.713   2.151 -0.1753  0.0405 -0.0152
17587TIP3    H174252   4.607   5.723   2.175  0.5696  0.2565  3.0891
17587TIP3    H274253   4.740   5.795   2.175  1.1356 -0.6477  0.1933
17588TIP3   OH274254   1.715   1.562  11.513 -0.6941 -0.1098 -0.2905
17588TIP3    H174255   1.766   1.624  11.461  0.6809 -1.9137 -1.1949
17588TIP3    H274256   1.716   1.599  11.601 -1.8371  2.2648 -1.1879
17589TIP3   OH274257   4.873   0.211  11.089  0.2002 -0.6102  0.2738
17589TIP3    H174258   4.878   0.116  11.089  0.0329 -0.6284 -0.4452
17589TIP3    H274259   4.780   0.230  11.074  0.3688 -0.3446 -0.4792
17590TIP3   OH274260   5.872   3.485   4.927  0.0607 -0.3101 -0.1146
17590TIP3    H174261   5.911   3.524   4.849  0.9922  0.2190  0.5846
17590TIP3    H274262   5.926   3.408   4.946  0.7068  0.3307  0.7629
17591TIP3   OH274263   1.516   3.096   3.241  0.2870 -0.3988  0.9282
17591TIP3    H174264   1.486   3.019   3.193  0.9626  0.8717 -1.7372
17591TIP3    H274265   1.611   3.094   3.233  0.2548  1.6760 -0.9761
17592TIP3   OH274266   4.838   0.954  11.526 -0.4954  0.1004  0.6301
17592TIP3    H174267   4.838   1.050  11.532 -3.4195  0.1022  2.1275
17592TIP3    H274268   4.894   0.926  11.599 -1.6930  0.6918  1.8209
17593TIP3   OH274269   6.569   2.570   2.144  0.4093 -0.3556 -0.0595
17593TIP3    H174270   6.651   2.523   2.160  0.0288 -1.0058  0.0332
17593TIP3    H274271   6.537   2.535   2.061  0.5749  0.4088 -0.4531
17594TIP3   OH274272   1.706   3.031   0.061 -0.4969 -0.8039  0.4526
17594TIP3    H174273   1.635   3.086   0.095 -0.8745 -1.5761  0.9336
17594TIP3    H274274   1.666   2.946   0.047  0.0978 -0.9719 -0.2592
17595TIP3   OH274275   1.520   2.370   3.288  0.4540 -0.2211 -0.1958
17595TIP3    H174276   1.446   2.430   3.275  0.1918 -0.5784 -0.3557
17595TIP3    H274277   1.488   2.285   3.259  1.1389 -0.2640 -0.8653
17596TIP3   OH274278   0.367   4.924   3.499  0.0868 -0.1349  0.4890
17596TIP3    H174279   0.299   4.964   3.444 -0.9114 -1.6136  0.5885
17596TIP3    H274280   0.448   4.965   3.470 -0.8000  1.4604  0.1491
17597TIP3   OH274281   1.173   3.666  12.577 -0.5137 -0.1819  0.7070
17597TIP3    H174282   1.213   3.686  12.492 -0.5622 -0.4244  0.6250
17597TIP3    H274283   1.201   3.577  12.596 -4.4742 -2.1869 -1.4513
17598TIP3   OH274284   5.855   4.799  16.600  0.5555 -0.6137 -0.4025
17598TIP3    H174285   5.927   4.823  16.542  1.4326  0.4015  1.0543
17598TIP3    H274286   5.782   4.779  16.541  0.6475  2.7220 -1.8404
17599TIP3   OH274287   5.398   4.799   4.750  0.2194 -0.1621 -0.0304
17599TIP3    H174288   5.429   4.784   4.660  1.8291 -1.6373  0.7159
17599TIP3    H274289   5.437   4.883   4.775  2.4189 -1.2474  0.3409
17600TIP3   OH274290   2.410   3.773   2.991  0.6370 -0.3409  0.0199
17600TIP3    H174291   2.319   3.742   2.995  0.2115  0.9500  1.4249
17600TIP3    H274292   2.412   3.833   2.917  0.3469 -0.4158 -0.0498
17601TIP3   OH274293   4.342   1.083  13.035  0.1026  0.8971  0.0142
17601TIP3    H174294   4.366   1.037  13.116  0.9744 -1.3598 -1.4317
17601TIP3    H274295   4.262   1.039  13.005  1.4401 -0.3803 -1.8614
17602TIP3   OH274296   0.239   2.235  12.044  0.2764 -0.6278 -0.5346
17602TIP3    H174297   0.280   2.235  11.958  1.1529 -1.8309 -0.1466
17602TIP3    H274298   0.166   2.296  12.037  1.8741  1.2630 -1.3846
17603TIP3   OH274299   3.371   0.621   1.359 -0.2760  0.2111  0.0229
17603TIP3    H174300   3.382   0.623   1.264  0.6380  0.3861  0.1226
17603TIP3    H274301   3.327   0.538   1.377 -3.4060  1.5448 -0.8086
17604TIP3   OH274302   2.628   4.833  12.666  0.8529  0.9571  0.3629
17604TIP3    H174303   2.633   4.924  12.697  1.6303  0.8638  0.5395
17604TIP3    H274304   2.602   4.783  12.743 -0.0232  1.0777  0.1565
17605TIP3   OH274305   3.481   2.540   1.769 -0.1762  0.4906 -0.6585
17605TIP3    H174306   3.446   2.514   1.854 -1.1698  2.7941 -0.2816
17605TIP3    H274307   3.404   2.555   1.714  0.2814  2.5151 -0.8205
17606TIP3   OH274308   5.515   0.244   2.874 -0.1072  0.3969  0.3716
17606TIP3    H174309   5.547   0.169   2.925 -0.6314  0.4457  0.7874
17606TIP3    H274310   5.523   0.217   2.783  0.0273 -0.0346  0.5101
17607TIP3   OH274311   5.827   6.214   1.480  0.2661  0.3211  0.2745
17607TIP3    H174312   5.873   6.145   1.432  0.8488 -0.6381  2.0710
17607TIP3    H274313   5.838   6.189   1.572 -0.6327  2.1386  0.9214
17608TIP3   OH274314   5.391   2.572   2.056  0.2931 -0.1932  0.1942
17608TIP3    H174315   5.407   2.500   1.996  1.2205  0.2112 -0.0734
17608TIP3    H274316   5.475   2.585   2.101 -0.4392 -0.6490  1.7667
17609TIP3   OH274317   0.156   5.051   2.027  0.1939 -0.5392  0.1799
17609TIP3    H174318   0.133   4.977   1.971  1.7739 -0.0991 -1.1112
17609TIP3    H274319   0.156   5.126   1.968  2.2529 -0.1238  0.6560
17610TIP3   OH274320   6.771   1.235   2.886 -0.1235 -0.4417  0.4410
17610TIP3    H174321   6.796   1.272   2.802 -0.8417 -0.7425  0.0903
17610TIP3    H274322   6.779   1.307   2.948  1.2158 -0.4254  0.2734
17611TIP3   OH274323   4.892   5.822   2.848 -0.0038  0.2907 -0.0558
17611TIP3    H174324   4.831   5.789   2.914 -0.0640  0.8104  0.1545
17611TIP3    H274325   4.975   5.780   2.869  0.2437  1.2534  1.0243
17612TIP3   OH274326   5.385   3.094  13.421  0.0642 -0.0456 -0.4748
17612TIP3    H174327   5.444   3.101  13.496  0.4976 -0.3930 -0.7770
17612TIP3    H274328   5.434   3.135  13.349  0.0863 -0.6377 -0.8069
17613TIP3   OH274329   6.182   3.517  11.773  0.4384 -0.0904  0.0198
17613TIP3    H174330   6.245   3.466  11.824  0.9122 -0.2330 -0.6888
17613TIP3    H274331   6.236   3.576  11.721 -0.1344  1.9347  1.6288
17614TIP3   OH274332   4.746   5.381   4.956  0.0156  0.0250  0.0140
17614TIP3    H174333   4.675   5.400   5.018  1.9097 -1.1262  2.7627
17614TIP3    H274334   4.701   5.346   4.879 -2.4578  0.2556  1.2226
17615TIP3   OH274335   0.584   2.372  12.187  0.9406 -0.0122 -0.1950
17615TIP3    H174336   0.513   2.330  12.237 -0.0702  2.1008  0.2690
17615TIP3    H274337   0.590   2.321  12.107 -0.2771 -0.9955  0.2983
17616TIP3   OH274338   2.744   0.358   0.733 -0.2707  0.3060 -0.6189
17616TIP3    H174339   2.773   0.340   0.644  0.5086  0.2954 -0.3757
17616TIP3    H274340   2.772   0.282   0.783 -1.8631 -0.2959 -0.5854
17617TIP3   OH274341   4.787   3.630   0.178  0.4217  0.1170  0.7478
17617TIP3    H174342   4.747   3.594   0.257 -0.3686 -1.2258 -0.2113
17617TIP3    H274343   4.740   3.712   0.163  0.0617  0.0074  1.2497
17618TIP3   OH274344   6.538   5.175  12.549 -0.5182 -0.1384 -0.4320
17618TIP3    H174345   6.620   5.173  12.598 -0.2505  0.4234 -0.8466
17618TIP3    H274346   6.500   5.087  12.562 -0.0938 -0.2430  0.1544
17619TIP3   OH274347   0.240   2.610   3.144  0.4150  0.4835 -0.0665
17619TIP3    H174348   0.153   2.614   3.184 -0.1053 -0.0190 -1.1158
17619TIP3    H274349   0.299   2.646   3.211 -0.6274  1.0804  0.5474
17620TIP3   OH274350   2.468   4.851  12.435  0.1431 -0.6441 -0.3378
17620TIP3    H174351   2.513   4.934  12.421 -2.4621  1.3289  2.0762
17620TIP3    H274352   2.511   4.812  12.511 -0.1558 -0.3376 -0.0115
17621TIP3   OH274353   3.651   0.161   4.992  0.0797  0.2093 -0.0929
17621TIP3    H174354   3.682   0.144   4.903 -0.9027  2.4917 -0.9575
17621TIP3    H274355   3.730   0.187   5.041  0.3628  0.6878 -0.7938
17622TIP3   OH274356   0.869   3.057   2.696  0.3440  0.0486  0.7595
17622TIP3    H174357   0.924   3.079   2.621 -0.1707  0.9278  0.6281
17622TIP3    H274358   0.869   2.962   2.699 -0.8813 -0.0760 -1.3140
17623TIP3   OH274359   2.305   2.586   1.858  0.0214 -0.1466  0.4542
17623TIP3    H174360   2.266   2.665   1.819 -0.7710 -0.5881  0.3341
17623TIP3    H274361   2.230   2.533   1.884  0.5554 -0.9643  0.3324
17624TIP3   OH274362   5.197   0.407  15.926  0.1141  0.7396  0.0180
17624TIP3    H174363   5.239   0.493  15.938  0.6667  0.5040 -0.1639
17624TIP3    H274364   5.259   0.359  15.871  0.3656 -0.1826  1.0775
17625TIP3   OH274365   4.331   2.034   1.690 -0.7254  0.3072 -0.1526
17625TIP3    H174366   4.336   2.093   1.766  0.3791 -1.6725  1.4084
17625TIP3    H274367   4.248   1.988   1.701 -0.4274 -0.1956  0.0703
17626TIP3   OH274368   4.611   6.740  16.528 -0.2236  0.6687 -0.0631
17626TIP3    H174369   4.584   6.757  16.437  0.3535  0.1892 -0.3326
17626TIP3    H274370   4.618   6.644  16.533  0.2094  0.7193  0.3497
17627TIP3   OH274371   3.395   1.119  11.710 -0.4588 -0.0887 -0.2034
17627TIP3    H174372   3.452   1.085  11.779  0.3094  1.2198 -0.1653
17627TIP3    H274373   3.446   1.188  11.669 -1.6105  0.3704 -0.8964
17628TIP3   OH274374   6.671   1.206   4.335 -0.1492 -0.3166  0.5364
17628TIP3    H174375   6.762   1.184   4.315 -0.5188 -1.4627  0.0039
17628TIP3    H274376   6.653   1.285   4.286  0.8206  0.4429  1.3633
17629TIP3   OH274377   0.293   6.177  11.612  0.3907 -0.0299 -0.2657
17629TIP3    H174378   0.373   6.138  11.576 -0.1703 -0.9681 -0.5340
17629TIP3    H274379   0.247   6.103  11.652 -0.4130  0.4802 -0.2341
17630TIP3   OH274380   4.632   3.904   1.897 -0.7160 -0.0232  0.7306
17630TIP3    H174381   4.549   3.896   1.944 -0.3601 -2.8566  1.0770
17630TIP3    H274382   4.608   3.897   1.805 -1.0058  0.9500  0.7256
17631TIP3   OH274383   1.419   2.425   4.338  0.0838 -0.4308  0.2449
17631TIP3    H174384   1.356   2.358   4.311  0.1561 -0.8872  1.1735
17631TIP3    H274385   1.388   2.456   4.423  1.2734 -0.9010  0.8802
17632TIP3   OH274386   4.320   4.650  12.423 -0.0853 -0.1036 -0.0975
17632TIP3    H174387   4.276   4.576  12.382 -2.1712 -0.5112  2.6729
17632TIP3    H274388   4.250   4.709  12.448  1.3753  1.7218 -0.0783
17633TIP3   OH274389   0.077   5.670  12.165  0.0138  0.7268 -0.4641
17633TIP3    H174390   0.128   5.750  12.175 -0.9049  1.1703  0.9206
17633TIP3    H274391   0.007   5.694  12.105 -0.5380  1.1268  0.3189
17634TIP3   OH274392   4.235   4.402  16.890 -0.5351  0.8988  0.6260
17634TIP3    H174393   4.322   4.379  16.923 -0.4619 -1.0666 -0.7431
17634TIP3    H274394   4.252   4.452  16.810 -0.6023 -0.2884 -0.1611
17635TIP3   OH274395   0.056   2.967   1.550  0.1745 -0.3393 -0.2969
17635TIP3    H174396  -0.006   2.907   1.508  0.0826  1.9619 -3.9211
17635TIP3    H274397   0.006   3.047   1.562  1.5365  0.5060 -0.1222
17636TIP3   OH274398   2.748   2.613  11.135 -0.4443  0.3982  0.1125
17636TIP3    H174399   2.784   2.559  11.065  1.8513  0.5356  1.0686
17636TIP3    H274400   2.700   2.552  11.191  0.3169 -0.2914  0.0327
17637TIP3   OH274401   4.722   6.323   0.445  0.1949 -0.4770  0.4000
17637TIP3    H174402   4.797   6.320   0.386  1.0747 -0.9226  1.5147
17637TIP3    H274403   4.755   6.288   0.528 -0.9353  0.4120  1.2494
17638TIP3   OH274404   1.686   2.294  14.251  0.2990  0.2753  0.1727
17638TIP3    H174405   1.661   2.376  14.209  0.1503  0.4289  0.5659
17638TIP3    H274406   1.685   2.312  14.344 -2.9606 -1.0017  0.5116
17639TIP3   OH274407   2.879   4.227  12.197  0.4448  0.1497  0.6065
17639TIP3    H174408   2.928   4.230  12.115  0.3292 -1.8786  0.4074
17639TIP3    H274409   2.822   4.304  12.194  1.7720  1.1398 -0.3232
17640TIP3   OH274410   0.599   5.988  12.547  0.5477 -0.1784 -0.0296
17640TIP3    H174411   0.521   5.939  12.574  1.3150 -0.5315  1.5980
17640TIP3    H274412   0.569   6.038  12.470 -0.8479 -1.4967 -0.3986
17641TIP3   OH274413   6.711   1.746  16.648 -0.2320  0.2834  0.4899
17641TIP3    H174414   6.740   1.771  16.560 -0.5935  1.9776  0.8091
17641TIP3    H274415   6.790   1.750  16.702 -0.1033 -0.2675  0.3491
17642TIP3   OH274416   6.725   2.501  13.284  0.1433  0.3267  0.1499
17642TIP3    H174417   6.674   2.449  13.346 -0.1396  1.1453  0.6236
17642TIP3    H274418   6.767   2.437  13.227  2.3392 -0.6464  2.6311
17643TIP3   OH274419   4.679   2.096   1.061  0.3630  0.8218 -0.7236
17643TIP3    H174420   4.740   2.045   1.114 -1.9508 -0.3279  0.9863
17643TIP3    H274421   4.605   2.114   1.119 -1.7004  0.7327 -3.1358
17644TIP3   OH274422   3.355   1.784  16.826 -0.4376 -0.2640  0.0449
17644TIP3    H174423   3.350   1.705  16.879  0.9817 -2.3885 -2.6921
17644TIP3    H274424   3.275   1.831  16.846 -1.3377 -2.3657  1.8450
17645TIP3   OH274425   2.427   6.788  15.651  0.3070 -0.1901  0.7997
17645TIP3    H174426   2.394   6.773  15.739  0.7881 -1.2829  0.8192
17645TIP3    H274427   2.522   6.777  15.659  0.6074  1.8324  0.5482
17646TIP3   OH274428   4.471   2.489  11.344 -0.0451 -0.4388  0.5874
17646TIP3    H174429   4.561   2.522  11.340 -0.7409  1.6078  0.1668
17646TIP3    H274430   4.439   2.515  11.431 -0.6550  0.1918  0.1958
17647TIP3   OH274431   5.583   0.681   5.306  0.0527  0.8756 -0.1559
17647TIP3    H174432   5.655   0.735   5.273  1.0961 -0.9491 -1.0038
17647TIP3    H274433   5.625   0.599   5.332 -1.8904 -0.8464 -2.1546
17648TIP3   OH274434   6.342   0.139  12.462  0.4390  0.5509  0.4198
17648TIP3    H174435   6.373   0.066  12.514  0.5930  0.0546 -0.3465
17648TIP3    H274436   6.353   0.110  12.371 -2.6274  0.1551  0.0490
17649TIP3   OH274437   5.522   0.105  16.215 -0.0160 -0.7022 -0.4017
17649TIP3    H174438   5.436   0.147  16.222  0.5354  0.4283 -0.1431
17649TIP3    H274439   5.581   0.164  16.262  1.2223 -0.5289 -2.0759
17650TIP3   OH274440   6.709   4.196   2.166  0.2010 -0.3178  0.0213
17650TIP3    H174441   6.804   4.206   2.171  0.0113  1.3221  1.5773
17650TIP3    H274442   6.695   4.102   2.170  1.7441 -0.5521  1.3879
17651TIP3   OH274443   1.147   5.049  16.209  0.2586  0.0696  0.1980
17651TIP3    H174444   1.057   5.018  16.201  0.2156  0.2911 -0.1914
17651TIP3    H274445   1.160   5.107  16.133  0.4569  0.7056  0.7026
17652TIP3   OH274446   3.609   4.710   3.727 -0.4817 -0.1316  0.4047
17652TIP3    H174447   3.522   4.698   3.690 -0.4041  0.8700 -0.1311
17652TIP3    H274448   3.668   4.699   3.653 -0.1619 -0.6195  0.7297
17653TIP3   OH274449   6.095   2.399  10.932  0.4596 -0.1456 -0.2113
17653TIP3    H174450   6.043   2.415  10.853 -0.7989  0.7585  0.7410
17653TIP3    H274451   6.040   2.342  10.986  0.9476 -0.1080  0.3447
17654TIP3   OH274452   1.264   6.337  14.016 -0.2158  0.0721 -0.6636
17654TIP3    H174453   1.343   6.311  14.064  0.3481  1.2653 -0.9036
17654TIP3    H274454   1.225   6.407  14.069 -0.8398 -0.1601 -0.8043
17655TIP3   OH274455   2.244   2.226   1.560 -0.2003  0.4231 -0.3048
17655TIP3    H174456   2.213   2.219   1.650  0.6474  0.6383  0.0142
17655TIP3    H274457   2.215   2.313   1.531 -2.2724 -0.4355 -0.9661
17656TIP3   OH274458   2.394   0.559   2.550  0.5113  0.5184 -0.1013
17656TIP3    H174459   2.397   0.624   2.620 -0.5449 -0.7570  1.1713
17656TIP3    H274460   2.390   0.611   2.470  0.4307  2.0081  0.8341
17657TIP3   OH274461   3.153   3.853   3.465  0.1761  0.1207  0.1930
17657TIP3    H174462   3.080   3.860   3.527  1.0904  0.2485  1.2916
17657TIP3    H274463   3.126   3.907   3.391 -0.8482  0.1668  0.5746
17658TIP3   OH274464   5.575   4.614  11.231  0.4009  0.0421 -0.2923
17658TIP3    H174465   5.499   4.656  11.272  0.4448  0.4926 -0.6645
17658TIP3    H274466   5.540   4.572  11.153  0.1958 -1.3861  0.5224
17659TIP3   OH274467   4.261   6.391   6.178 -0.4659  0.3197 -0.1182
17659TIP3    H174468   4.332   6.331   6.157 -0.5676  0.3511 -0.5557
17659TIP3    H274469   4.301   6.454   6.238  0.2501  1.1179 -1.3894
17660TIP3   OH274470   3.898   6.254  10.952 -0.3151 -0.3843 -0.0074
17660TIP3    H174471   3.817   6.303  10.939  0.0515  0.2194 -0.0350
17660TIP3    H274472   3.966   6.310  10.915 -0.1117 -1.7667 -1.9252
17661TIP3   OH274473   1.599   3.072  12.182 -0.0666  0.4771  0.4419
17661TIP3    H174474   1.671   3.034  12.232  0.5517 -0.4964 -1.1370
17661TIP3    H274475   1.525   3.013  12.198  0.1755  0.0737  0.0690
17662TIP3   OH274476   3.654   3.263   1.076 -0.2238  0.1229 -0.8175
17662TIP3    H174477   3.716   3.229   1.012  0.1759  0.3350 -0.5514
17662TIP3    H274478   3.671   3.212   1.155 -1.3559 -0.7925 -1.1292
17663TIP3   OH274479   1.246   3.386   4.674 -0.1990 -0.1519 -0.0521
17663TIP3    H174480   1.204   3.346   4.750 -2.5119  0.5424 -0.8740
17663TIP3    H274481   1.325   3.428   4.709 -0.6926 -0.6608  1.7800
17664TIP3   OH274482   3.605   5.442   3.054 -0.7511 -1.0425  0.0619
17664TIP3    H174483   3.613   5.349   3.033 -1.3919 -0.9980 -0.4308
17664TIP3    H274484   3.691   5.467   3.087 -0.2603 -1.5763 -0.7624
17665TIP3   OH274485   5.300   0.832   2.582  0.3620  0.2191  0.1405
17665TIP3    H174486   5.381   0.790   2.552  0.5366  0.0587  0.8231
17665TIP3    H274487   5.234   0.806   2.517  0.8630  0.3805 -0.4350
17666TIP3   OH274488   3.634   4.163   2.311  0.3994  0.2194 -0.2695
17666TIP3    H174489   3.706   4.136   2.255 -1.3919 -0.5250 -2.3481
17666TIP3    H274490   3.647   4.257   2.324  2.3220 -0.0898  0.3824
17667TIP3   OH274491   2.261   5.760   2.265  0.5177 -0.8589  0.3502
17667TIP3    H174492   2.216   5.774   2.181 -0.9649  0.2390  1.2614
17667TIP3    H274493   2.230   5.675   2.295 -2.6061  0.6076  1.8094
17668TIP3   OH274494   5.924   2.310   1.820  0.0302 -0.9930  0.3680
17668TIP3    H174495   5.932   2.219   1.792  0.2784 -1.7069  2.5090
17668TIP3    H274496   5.836   2.316   1.856  1.0306 -1.3976  3.1862
17669TIP3   OH274497   1.621   4.059   2.243 -0.2489  0.3749 -0.4807
17669TIP3    H174498   1.702   4.040   2.196 -0.0210 -0.4550  0.2144
17669TIP3    H274499   1.570   4.114   2.184  0.8011  0.8622 -0.9489
17670TIP3   OH274500   4.503   4.249   3.226  0.1520  0.3438 -0.2572
17670TIP3    H174501   4.506   4.208   3.312 -1.6483  0.2350 -0.2172
17670TIP3    H274502   4.522   4.341   3.241  0.5066  0.2049  0.1523
17671TIP3   OH274503   5.032   6.655  16.242  0.2456  0.4722  0.0560
17671TIP3    H174504   5.086   6.637  16.318 -0.1643 -1.1833 -0.0002
17671TIP3    H274505   5.090   6.700  16.181  1.2686 -0.3600  0.3926
17672TIP3   OH274506   1.359   2.755  15.662 -0.2740 -0.0868  0.4778
17672TIP3    H174507   1.291   2.757  15.730 -0.1159  0.6152  0.6292
17672TIP3    H274508   1.359   2.665  15.630 -0.9358 -0.2157  0.8219
17673TIP3   OH274509   4.795   5.268   3.523  0.0161 -0.2622 -0.1001
17673TIP3    H174510   4.834   5.214   3.455  0.7316 -1.6213  1.3072
17673TIP3    H274511   4.754   5.205   3.583 -0.8531  0.8900  0.5666
17674TIP3   OH274512   3.715   0.191  12.147  0.4909 -0.1330  1.1191
17674TIP3    H174513   3.782   0.243  12.192 -0.6183  0.5310  2.0559
17674TIP3    H274514   3.648   0.176  12.213  0.4216 -2.1678  0.6706
17675TIP3   OH274515   5.563   5.021   0.468  0.8464  0.3881  0.2056
17675TIP3    H174516   5.534   5.040   0.379  0.7001  0.6210  0.3029
17675TIP3    H274517   5.627   4.950   0.458  2.3725  1.7722 -0.3132
17676TIP3   OH274518   4.593   4.875  11.366  0.1487 -0.7601 -0.9556
17676TIP3    H174519   4.503   4.849  11.347 -1.6771  3.0169  1.3171
17676TIP3    H274520   4.605   4.856  11.459  0.3155  1.8093 -0.3640
17677TIP3   OH274521   1.715   4.609  13.820 -0.3001 -0.3221 -0.1103
17677TIP3    H174522   1.788   4.584  13.876 -1.9535 -0.3488  2.1707
17677TIP3    H274523   1.690   4.527  13.775 -0.6769 -1.0003  1.2742
17678TIP3   OH274524   4.441   4.062   4.535 -0.5534  0.5065 -0.1407
17678TIP3    H174525   4.512   4.031   4.478 -0.8987  0.0733 -0.3382
17678TIP3    H274526   4.362   4.022   4.498 -0.6550 -0.7148  1.3329
17679TIP3   OH274527   4.343   4.004  12.444  0.3217 -0.1549  0.5444
17679TIP3    H174528   4.304   4.058  12.375  0.2174 -0.9772 -0.0459
17679TIP3    H274529   4.333   3.914  12.414 -1.4016 -0.6732  2.4843
17680TIP3   OH274530   6.432   0.064  14.907 -0.1699 -0.3143 -0.1738
17680TIP3    H174531   6.450   0.090  14.997  3.9388  0.0583 -0.8971
17680TIP3    H274532   6.434  -0.031  14.907  1.4909 -0.2992 -0.0710
17681TIP3   OH274533   6.547   0.961  11.739  0.2954  0.3803 -0.1694
17681TIP3    H174534   6.460   0.997  11.755  0.7901  1.9171 -0.7550
17681TIP3    H274535   6.594   0.975  11.821 -0.0274 -0.5992  0.2033
17682TIP3   OH274536   2.709   1.534  10.862 -0.3814 -0.7665  0.3224
17682TIP3    H174537   2.747   1.474  10.927  0.7577  0.1831  0.5432
17682TIP3    H274538   2.763   1.522  10.784 -1.1010 -1.1253 -0.1332
17683TIP3   OH274539   0.668   2.346   2.247  1.0619 -0.3622 -0.1878
17683TIP3    H174540   0.586   2.383   2.279  1.5196  0.7250 -0.1984
17683TIP3    H274541   0.718   2.326   2.326  0.8314 -0.9197 -0.1828
17684TIP3   OH274542   0.087   5.241   0.041  0.0948  0.1315  0.2269
17684TIP3    H174543   0.083   5.189   0.121 -0.7550  0.7463  0.5894
17684TIP3    H274544   0.179   5.267   0.034  0.2275 -0.1730  0.8338
17685TIP3   OH274545   2.874   6.632  12.352  0.3204  0.6012  0.4209
17685TIP3    H174546   2.876   6.638  12.257  1.5276  0.5787  0.4345
17685TIP3    H274547   2.781   6.636  12.374 -0.1497 -1.4441 -0.8893
17686TIP3   OH274548   3.310   3.052   2.285  0.0270 -0.2790 -0.3610
17686TIP3    H174549   3.323   2.957   2.279  0.1786 -0.1538 -3.0111
17686TIP3    H274550   3.239   3.071   2.224  0.4173  1.3997 -0.3535
17687TIP3   OH274551   2.244   3.303  10.968  0.1323  0.3116 -0.2109
17687TIP3    H174552   2.258   3.212  10.994  0.8904  0.4789 -0.0092
17687TIP3    H274553   2.329   3.333  10.936  0.2791  1.3831  1.0782
17688TIP3   OH274554   0.744   5.711   2.745  0.1402  0.0097 -0.5890
17688TIP3    H174555   0.750   5.754   2.659  0.8402  1.0414 -0.0510
17688TIP3    H274556   0.794   5.630   2.734 -0.2131 -0.1265 -1.2982
17689TIP3   OH274557   2.824   1.850   4.830  0.4214 -0.0522 -0.1400
17689TIP3    H174558   2.856   1.902   4.904 -0.3015  0.7719 -0.3845
17689TIP3    H274559   2.738   1.889   4.809  0.2386 -0.8213 -0.8617
17690TIP3   OH274560   3.981   5.652   3.296  0.0330 -0.1857  0.9924
17690TIP3    H174561   4.018   5.563   3.296 -0.1123 -0.2489  0.8037
17690TIP3    H274562   3.978   5.677   3.388  0.3646 -0.2548  1.0257
17691TIP3   OH274563   1.475   1.729   5.983 -0.3725  0.2450 -0.0293
17691TIP3    H174564   1.389   1.756   5.950 -0.4247 -1.2601 -1.2050
17691TIP3    H274565   1.533   1.801   5.958 -1.0385  0.6397 -0.4783
17692TIP3   OH274566   1.721   1.188   0.903  0.4756 -0.8208 -0.0059
17692TIP3    H174567   1.726   1.130   0.827  0.9063 -1.1284  0.2528
17692TIP3    H274568   1.694   1.131   0.975 -2.4759 -0.1017 -0.3817
17693TIP3   OH274569   4.835   3.982   5.907 -0.1560  0.6550  0.1910
17693TIP3    H174570   4.881   4.062   5.880 -0.4105  1.5495  2.1759
17693TIP3    H274571   4.743   4.008   5.908 -0.1890  0.5742  1.4475
17694TIP3   OH274572   4.472   5.785  11.299  0.4498  0.4490 -0.4740
17694TIP3    H174573   4.490   5.717  11.235  0.0381 -1.0935  0.9803
17694TIP3    H274574   4.404   5.748  11.356 -0.1408  2.2674  0.0834
17695TIP3   OH274575   4.696   4.373   1.318 -0.4835 -0.2063  0.0836
17695TIP3    H174576   4.646   4.307   1.269 -1.2504  0.1993  0.3007
17695TIP3    H274577   4.647   4.454   1.304  0.4034  0.3042 -0.1145
17696TIP3   OH274578   1.863   5.473   4.503 -0.6136 -0.2980 -0.2333
17696TIP3    H174579   1.945   5.508   4.538 -1.4326  1.9114 -0.3786
17696TIP3    H274580   1.852   5.390   4.548  1.0558 -0.0325  0.7509
17697TIP3   OH274581   0.738   4.681   1.676 -0.2079  0.4997  0.5747
17697TIP3    H174582   0.768   4.604   1.628 -1.9297 -1.8873  2.9635
17697TIP3    H274583   0.802   4.749   1.656  2.2550 -1.9657 -0.5877
17698TIP3   OH274584   5.124   2.644   2.128 -0.1855  0.3464 -0.1419
17698TIP3    H174585   5.108   2.738   2.115  2.6789  0.9557  0.2262
17698TIP3    H274586   5.193   2.623   2.065  0.3112 -1.1393  0.8665
17699TIP3   OH274587   0.789   3.245  14.634  0.0906 -0.2897  0.6580
17699TIP3    H174588   0.814   3.276  14.547 -1.4441  0.9318  0.6073
17699TIP3    H274589   0.872   3.234  14.680  1.0611 -2.3335 -1.3551
17700TIP3   OH274590   4.064   3.707  11.442 -0.0725 -0.1959  0.3350
17700TIP3    H174591   4.071   3.751  11.527  1.1693  1.5978 -0.6109
17700TIP3    H274592   4.131   3.639  11.444  0.6952  0.5463  0.4345
17701TIP3   OH274593   6.295   2.968   5.440 -0.0426 -0.1501  0.1855
17701TIP3    H174594   6.300   3.033   5.369  0.6413 -0.0993  0.2760
17701TIP3    H274595   6.315   2.884   5.397  0.7097 -0.0749  0.3704
17702TIP3   OH274596   2.315   3.587  15.155 -0.2457  0.1191 -0.0929
17702TIP3    H174597   2.392   3.623  15.200 -1.9851  1.3360  2.1218
17702TIP3    H274598   2.276   3.527  15.219 -1.4780 -0.0195 -0.9404
17703TIP3   OH274599   5.575   2.024   6.443  0.0067  0.5301 -0.0584
17703TIP3    H174600   5.538   1.940   6.470  2.0421 -0.3784  0.1100
17703TIP3    H274601   5.520   2.090   6.486 -0.8666 -0.7451  0.8502
17704TIP3   OH274602   5.513   0.097   3.910  0.2088 -0.2669  0.0605
17704TIP3    H174603   5.550   0.011   3.887  0.2475 -0.2098 -0.0944
17704TIP3    H274604   5.419   0.080   3.917  0.2945 -0.4685  0.7298
17705TIP3   OH274605   4.589   0.340   1.780  0.3553  0.1293  0.8041
17705TIP3    H174606   4.563   0.289   1.857  1.8930  0.1024  1.3452
17705TIP3    H274607   4.683   0.323   1.771  0.4975  1.3194 -0.1831
17706TIP3   OH274608   4.685   6.798  11.236 -0.2207 -0.0528  0.2490
17706TIP3    H174609   4.642   6.747  11.305 -0.7739  1.0800  0.7694
17706TIP3    H274610   4.774   6.813  11.270  0.4067 -1.7579 -0.4993
17707TIP3   OH274611   2.832   4.196  11.715  0.3585  0.5013 -0.7355
17707TIP3    H174612   2.878   4.180  11.632  0.7767  0.7004 -0.5475
17707TIP3    H274613   2.790   4.281  11.704  0.2713  0.4484 -0.8070
17708TIP3   OH274614   4.675   4.932  16.045  0.5619 -0.3707 -0.5426
17708TIP3    H174615   4.743   4.999  16.056 -0.1975  0.3408 -0.1187
17708TIP3    H274616   4.674   4.884  16.128 -0.1224  0.2561 -0.1824
17709TIP3   OH274617   3.649   2.111   4.430 -0.8120 -0.0483 -0.5596
17709TIP3    H174618   3.626   2.196   4.392  2.8548  1.2191 -0.3648
17709TIP3    H274619   3.725   2.082   4.380  1.9877 -0.0538  3.2894
17710TIP3   OH274620   4.620   5.200  15.738 -0.2215  1.0485  0.1220
17710TIP3    H174621   4.648   5.276  15.788 -0.7603  0.9554  0.5638
17710TIP3    H274622   4.544   5.166  15.785  0.9004 -0.6526  0.8005
17711TIP3   OH274623   2.057   6.194   0.773 -0.3930 -0.6229 -0.2544
17711TIP3    H174624   2.088   6.204   0.683  1.4191 -0.2460  0.3725
17711TIP3    H274625   2.018   6.106   0.775 -0.8124 -0.4930 -1.4749
17712TIP3   OH274626   5.301   0.543   1.934 -0.0710 -0.4530  0.5285
17712TIP3    H174627   5.388   0.576   1.954  0.1600  0.3698 -1.6829
17712TIP3    H274628   5.248   0.568   2.010  1.3570 -0.0540  1.4259
17713TIP3   OH274629   6.685   1.970   2.368  0.1643 -0.5549  0.2214
17713TIP3    H174630   6.592   1.986   2.383  0.3575  0.7190  0.2049
17713TIP3    H274631   6.692   1.950   2.274  0.0355  0.5621 -0.0411
17714TIP3   OH274632   0.457   2.557   4.876 -1.3426  0.2085  0.1112
17714TIP3    H174633   0.408   2.595   4.949 -2.5387  1.5037 -1.2927
17714TIP3    H274634   0.449   2.462   4.888 -2.5975  0.4033  0.9731
17715TIP3   OH274635   4.547   2.237   2.836  0.0911  0.2883  0.0842
17715TIP3    H174636   4.519   2.180   2.765 -0.2553 -0.0036  0.4474
17715TIP3    H274637   4.638   2.211   2.854  1.3189  2.4641 -2.3165
17716TIP3   OH274638   6.012   1.387  13.331  0.4297 -0.0680 -0.1238
17716TIP3    H174639   6.052   1.408  13.246  0.8096 -0.2449  0.0070
17716TIP3    H274640   5.923   1.421  13.324  0.9107  1.2958 -0.0491
17717TIP3   OH274641   1.746   2.252   5.194 -0.8864  0.1945 -0.3695
17717TIP3    H174642   1.698   2.180   5.235  0.0001  0.4426  1.2105
17717TIP3    H274643   1.705   2.263   5.109 -1.3654 -1.8587 -0.4604
17718TIP3   OH274644   4.082   2.140   4.037  0.4179 -0.0386  0.5472
17718TIP3    H174645   4.098   2.048   4.017  0.4468  0.0470  0.1475
17718TIP3    H274646   4.164   2.170   4.076  1.3418  0.4097 -1.5416
17719TIP3   OH274647   1.192   2.535   3.021 -0.2047  0.0079  0.5832
17719TIP3    H174648   1.270   2.555   2.969 -0.4671  0.9188  0.5161
17719TIP3    H274649   1.203   2.443   3.046  0.3815 -0.1807 -0.2963
17720TIP3   OH274650   2.747   6.055   3.553  0.4180 -0.1121  0.2232
17720TIP3    H174651   2.657   6.081   3.536 -0.1702 -0.5328  2.3577
17720TIP3    H274652   2.798   6.135   3.542 -0.3719  0.3730  0.0530
17721TIP3   OH274653   4.855   3.622   4.912 -0.0384  0.0223 -0.5532
17721TIP3    H174654   4.877   3.715   4.910 -0.8042  0.2602  0.5382
17721TIP3    H274655   4.819   3.609   5.000 -0.3917 -1.1989 -0.8659
17722TIP3   OH274656   6.488   2.739   0.004 -0.2522 -0.9121  0.3326
17722TIP3    H174657   6.571   2.745   0.052 -0.7219 -1.1678  1.2118
17722TIP3    H274658   6.501   2.793  -0.074 -0.3300  1.7183  2.0065
17723TIP3   OH274659   0.848   0.925  13.319  0.5278  0.8390  0.3235
17723TIP3    H174660   0.806   0.912  13.405  0.0326  0.8985  0.0948
17723TIP3    H274661   0.876   0.837  13.293 -0.6545  0.5634 -0.1206
17724TIP3   OH274662   2.417   0.381   2.816  0.0828 -0.8709 -0.3394
17724TIP3    H174663   2.344   0.428   2.775 -0.7669 -1.4950  0.4220
17724TIP3    H274664   2.462   0.338   2.743  1.5729  1.9449 -1.2310
17725TIP3   OH274665   6.008   2.105  14.053  0.0423  0.0123  0.1922
17725TIP3    H174666   6.052   2.027  14.022  0.7989  1.3650 -2.4226
17725TIP3    H274667   6.000   2.093  14.148  1.3730 -2.5553  0.0379
17726TIP3   OH274668   2.913   6.612  14.914  0.0326  0.1448 -0.4710
17726TIP3    H174669   2.932   6.542  14.852 -1.0393  1.0259 -1.8640
17726TIP3    H274670   2.934   6.692  14.866  0.3042  0.8287  0.7429
17727TIP3   OH274671   0.794   4.466  12.750  0.2848  0.1436  0.1428
17727TIP3    H174672   0.710   4.502  12.779 -0.4082  0.4106 -2.0008
17727TIP3    H274673   0.815   4.516  12.670  2.2057 -0.3143  0.3190
17728TIP3   OH274674   4.042   3.963  16.255  0.5351  0.6555  0.0815
17728TIP3    H174675   4.058   4.057  16.247  0.6727  0.5552 -0.8878
17728TIP3    H274676   4.044   3.946  16.350  1.2268  1.4957  0.2216
17729TIP3   OH274677   2.340   2.872  14.423 -0.2750  0.4499  0.1630
17729TIP3    H174678   2.269   2.825  14.378 -0.5469  0.9624  0.0510
17729TIP3    H274679   2.321   2.860  14.516 -1.6985  2.2961  0.1724
17730TIP3   OH274680   6.634   3.927   1.574 -0.7945 -0.1048 -0.2971
17730TIP3    H174681   6.716   3.952   1.530 -0.2191 -0.9335  0.2731
17730TIP3    H274682   6.622   3.835   1.551 -2.3530  0.3691 -1.5581
17731TIP3   OH274683   5.769   4.954  11.689 -0.0938  0.1338  0.5105
17731TIP3    H174684   5.703   4.918  11.749  0.3949  1.0549  1.6421
17731TIP3    H274685   5.727   5.030  11.649  0.2676  0.7352  1.2497
17732TIP3   OH274686   5.536   2.014  14.687 -0.6119  0.0936 -0.3182
17732TIP3    H174687   5.557   1.966  14.607  0.5057  0.1751 -0.0951
17732TIP3    H274688   5.588   1.971  14.755  0.2613  1.4565 -0.0755
17733TIP3   OH274689   5.827   2.549   0.285  0.3053 -0.3616  0.4214
17733TIP3    H174690   5.807   2.555   0.192 -0.0016 -0.3523  0.4880
17733TIP3    H274691   5.750   2.585   0.329  0.0423 -1.2770  0.7174
17734TIP3   OH274692   5.018   1.730   2.796 -0.1237  0.2045  0.3862
17734TIP3    H174693   5.075   1.796   2.836  2.1817 -1.1791 -0.3877
17734TIP3    H274694   5.079   1.667   2.757 -2.1621  0.1395 -3.1146
17735TIP3   OH274695   1.130   0.166   0.858  0.3693  0.1891 -0.2773
17735TIP3    H174696   1.153   0.259   0.858  0.7512  0.0956 -0.7079
17735TIP3    H274697   1.073   0.155   0.781  1.1714 -0.1350 -0.8372
17736TIP3   OH274698   6.021   6.194  16.074  0.0089  0.0575  0.4008
17736TIP3    H174699   6.091   6.243  16.118  1.3544 -1.4235 -0.0072
17736TIP3    H274700   5.998   6.124  16.135 -2.3517  1.4544  1.2579
17737TIP3   OH274701   3.048   5.347  12.838  0.2119  0.5539 -0.3227
17737TIP3    H174702   2.997   5.399  12.901 -0.5108 -0.9449  0.4016
17737TIP3    H274703   3.078   5.271  12.889 -0.3373 -0.6733 -1.7447
17738TIP3   OH274704   1.236   5.245  10.860 -0.5098 -0.2494  0.4748
17738TIP3    H174705   1.204   5.267  10.948 -2.2621  1.3841 -0.5070
17738TIP3    H274706   1.197   5.160  10.841  1.2722 -1.4593  1.8843
17739TIP3   OH274707   0.913   0.027  12.132  0.4345  0.4292  0.3793
17739TIP3    H174708   0.826  -0.008  12.152  0.9234 -0.2093  1.4276
17739TIP3    H274709   0.895   0.103  12.077 -0.8248  0.6705  1.0765
17740TIP3   OH274710   5.314   4.391   5.299  0.3802 -0.0054 -0.0458
17740TIP3    H174711   5.243   4.329   5.283  0.7935 -0.4041 -0.3616
17740TIP3    H274712   5.394   4.340   5.287  0.7227  0.1515  1.4332
17741TIP3   OH274713   5.129   4.107   3.212 -0.4173  0.1233  0.2412
17741TIP3    H174714   5.151   4.168   3.142  0.5904  0.3714  0.7608
17741TIP3    H274715   5.077   4.039   3.169 -0.8592  0.9084 -0.5005
17742TIP3   OH274716   4.916   4.964  12.503  0.1449  0.5678  0.1629
17742TIP3    H174717   4.943   4.875  12.523  2.6095  1.2973  0.4292
17742TIP3    H274718   4.839   4.954  12.448 -1.6593 -1.6378  2.8441
17743TIP3   OH274719   4.805   5.388   4.114  0.2342 -0.2473 -0.4315
17743TIP3    H174720   4.764   5.466   4.076 -1.4297 -0.2089  1.3156
17743TIP3    H274721   4.835   5.417   4.200  1.0225 -1.1670 -0.3828
17744TIP3   OH274722   2.774   5.211   2.407 -0.4789  0.0050  0.1432
17744TIP3    H174723   2.752   5.235   2.497  0.4538  0.8455  0.1603
17744TIP3    H274724   2.703   5.247   2.354 -0.2805  0.7928  0.4059
17745TIP3   OH274725   6.508   1.134   1.967  0.1718  0.0078 -0.0510
17745TIP3    H174726   6.495   1.219   2.009  0.3462 -0.9444  2.0707
17745TIP3    H274727   6.421   1.094   1.966  0.3531 -0.4126  0.4355
17746TIP3   OH274728   5.574   5.351  15.148  0.0119 -0.4070 -0.0427
17746TIP3    H174729   5.534   5.339  15.062 -0.4357 -3.3953  0.4580
17746TIP3    H274730   5.532   5.285  15.203  1.5461  0.2373  2.0383
17747TIP3   OH274731   2.082   6.644   2.910 -0.6097  0.2048  0.1379
17747TIP3    H174732   1.998   6.601   2.924 -0.3400  0.0253  1.2865
17747TIP3    H274733   2.117   6.603   2.832 -1.2645 -0.2270  0.0616
17748TIP3   OH274734   1.083   3.799  14.334 -0.0647 -0.1765  0.2604
17748TIP3    H174735   1.037   3.816  14.252  2.7453 -0.6871 -1.5815
17748TIP3    H274736   1.098   3.886  14.372 -0.2870  0.1715 -0.4343
17749TIP3   OH274737   5.437   4.784   1.179  0.0345  0.1536  0.5174
17749TIP3    H174738   5.454   4.759   1.270 -1.1016 -0.8269  0.4831
17749TIP3    H274739   5.405   4.704   1.137  2.0614  0.1435 -1.1960
17750TIP3   OH274740   0.577   1.576   4.799 -0.5222  0.2963 -0.2060
17750TIP3    H174741   0.639   1.642   4.767  0.9660 -0.4760  0.9148
17750TIP3    H274742   0.629   1.522   4.858 -1.3442 -2.5848 -1.8795
17751TIP3   OH274743   5.803   4.004  11.990 -0.6027 -0.2041 -0.1158
17751TIP3    H174744   5.827   4.087  11.949 -1.1110 -0.3130 -0.6562
17751TIP3    H274745   5.726   3.975  11.940 -0.3018 -1.0969 -0.0684
17752TIP3   OH274746   6.391   2.442   5.879 -0.4486 -0.1431  0.2391
17752TIP3    H174747   6.452   2.400   5.940 -1.8967 -2.0727  0.4417
17752TIP3    H274748   6.307   2.401   5.897 -0.7739 -1.6998 -3.7801
17753TIP3   OH274749   2.071   6.246   1.489  0.1058  0.1288 -0.7981
17753TIP3    H174750   2.139   6.184   1.516 -0.2591  0.3799  0.7647
17753TIP3    H274751   2.119   6.325   1.464  0.4347  0.1235 -0.2118
17754TIP3   OH274752   1.407   5.107  12.696  0.6343 -0.1858  0.4274
17754TIP3    H174753   1.340   5.107  12.764  1.5231  1.6594  1.3933
17754TIP3    H274754   1.366   5.064  12.622 -2.0931  1.8767  0.5601
17755TIP3   OH274755   6.062   5.729  16.923 -0.0367  0.0008  0.0530
17755TIP3    H174756   6.151   5.748  16.893  0.2711  0.2918  1.1218
17755TIP3    H274757   6.034   5.810  16.966 -0.6356 -0.2635  0.1673
17756TIP3   OH274758   0.538   3.524   2.779 -0.1459  0.4748 -0.0241
17756TIP3    H174759   0.481   3.591   2.816 -1.2522  0.5378 -1.7333
17756TIP3    H274760   0.480   3.473   2.721  1.2892 -0.1716 -0.9377
17757TIP3   OH274761   1.682   4.639  15.659 -0.4879  0.2839 -0.4324
17757TIP3    H174762   1.642   4.684  15.585 -0.6229  1.3584  0.2699
17757TIP3    H274763   1.609   4.598  15.705 -0.4870  0.1975 -0.5076
17758TIP3   OH274764   3.741   2.053  13.396 -0.2471  0.3720  0.3061
17758TIP3    H174765   3.820   2.103  13.416  0.9533 -1.4610  0.3164
17758TIP3    H274766   3.736   2.053  13.301 -0.5755  0.9714  0.3178
17759TIP3   OH274767   4.597   2.610   0.199  0.1153  0.1347 -1.0527
17759TIP3    H174768   4.674   2.642   0.245 -1.1127 -0.4153  1.5300
17759TIP3    H274769   4.631   2.544   0.138  1.5468 -2.0095  1.8240
17760TIP3   OH274770   4.891   0.109   5.641 -0.4117  0.0972 -0.0664
17760TIP3    H174771   4.905   0.143   5.730  2.6655  1.6689 -0.9959
17760TIP3    H274772   4.871   0.016   5.653  1.3033 -0.0523  2.2630
17761TIP3   OH274773   0.651   4.970   1.471  0.7293  0.5557 -0.2559
17761TIP3    H174774   0.644   4.943   1.563 -0.5883  0.7857 -0.2698
17761TIP3    H274775   0.585   4.919   1.426 -0.0559  1.9143 -0.7179
17762TIP3   OH274776   6.454   6.043   1.509  0.2226  0.2666  0.0776
17762TIP3    H174777   6.447   6.126   1.556 -0.5935 -0.7027  1.7804
17762TIP3    H274778   6.378   6.041   1.452 -0.5923  0.0623  1.1387
17763TIP3   OH274779   4.392   2.779   5.045 -0.3789 -0.8097  0.0570
17763TIP3    H174780   4.468   2.825   5.081 -1.7828  1.2373  0.6260
17763TIP3    H274781   4.378   2.705   5.104 -0.6705  0.6051  1.8509
17764TIP3   OH274782   1.164   3.147   0.073 -0.3412 -0.0590  0.5966
17764TIP3    H174783   1.110   3.157  -0.006 -0.2160 -1.0281  0.3690
17764TIP3    H274784   1.128   3.069   0.116  1.8138 -1.7100 -0.3808
17765TIP3   OH274785   0.593   5.643   0.194 -0.0382 -0.1958 -0.0069
17765TIP3    H174786   0.629   5.732   0.197 -0.5003 -0.0187  0.5468
17765TIP3    H274787   0.664   5.587   0.223  0.5421 -0.1134 -1.1954
17766TIP3   OH274788   5.565   4.715   0.019 -0.1197 -0.2150 -0.1694
17766TIP3    H174789   5.652   4.685  -0.008 -1.2722 -2.6674 -1.4213
17766TIP3    H274790   5.531   4.645   0.075 -0.4546  1.7660  2.3231
17767TIP3   OH274791   0.862   5.302  13.750 -0.1471 -0.0620  0.1017
17767TIP3    H174792   0.877   5.271  13.661  1.5312  0.0762  0.2963
17767TIP3    H274793   0.798   5.372  13.741  1.8468  1.6874 -1.3761
17768TIP3   OH274794   5.911   2.123  13.164 -0.1435  0.0039 -0.1401
17768TIP3    H174795   5.870   2.206  13.142  0.7780  0.0322 -1.9609
17768TIP3    H274796   5.969   2.105  13.090  0.3446 -1.8214  0.6358
17769TIP3   OH274797   3.816   2.821   5.388 -1.1277 -0.1570 -0.6120
17769TIP3    H174798   3.826   2.807   5.294  0.5622  0.1236 -0.5016
17769TIP3    H274799   3.762   2.748   5.418 -1.2036 -0.5642 -1.7007
17770TIP3   OH274800   2.502   5.658   2.448  0.4234 -0.5668  0.0873
17770TIP3    H174801   2.483   5.748   2.474  2.3920  0.6861 -2.3569
17770TIP3    H274802   2.497   5.659   2.352 -2.3718 -3.8515 -0.0320
17771TIP3   OH274803   5.909   0.715  11.659 -0.1113 -0.2889 -0.6569
17771TIP3    H174804   5.822   0.749  11.680 -1.0467 -2.1997 -1.2774
17771TIP3    H274805   5.898   0.669  11.576  1.6195 -0.1153 -1.0117
17772TIP3   OH274806   2.875   1.731   4.293  0.1198 -0.3121  0.2277
17772TIP3    H174807   2.820   1.748   4.216  1.6629  0.4977 -0.7335
17772TIP3    H274808   2.872   1.635   4.304 -0.4370 -0.3967 -0.5726
17773TIP3   OH274809   3.366   0.634  12.868 -0.4489 -0.0728  0.6906
17773TIP3    H174810   3.401   0.659  12.953  1.2250 -0.4420  0.1374
17773TIP3    H274811   3.342   0.717  12.827 -1.2210  0.1107  1.4677
17774TIP3   OH274812   5.496   6.738  13.671  0.2309  0.0894 -0.3950
17774TIP3    H174813   5.589   6.734  13.693  0.5948  3.2845 -0.8032
17774TIP3    H274814   5.462   6.810  13.724 -2.2315 -1.4290  0.2389
17775TIP3   OH274815   5.003   0.579  10.341 -0.1146  0.3160 -0.0583
17775TIP3    H174816   4.921   0.530  10.336 -0.7509  1.3590 -0.2106
17775TIP3    H274817   5.000   0.623  10.426  0.8530 -0.5808  0.4581
17776TIP3   OH274818   5.309   2.197  12.593 -0.1463 -0.1764 -0.1953
17776TIP3    H174819   5.368   2.122  12.583 -0.8060 -0.5220 -1.7468
17776TIP3    H274820   5.258   2.199  12.512 -0.1131  2.0057 -0.2225
17777TIP3   OH274821   6.541   0.196  15.169 -0.1515 -0.2346  0.0244
17777TIP3    H174822   6.517   0.215  15.259 -1.3060  0.7103 -0.4469
17777TIP3    H274823   6.626   0.152  15.175 -0.0729  0.0693  1.5353
17778TIP3   OH274824   4.684   3.314   4.673 -0.1037  0.4504 -0.0400
17778TIP3    H174825   4.698   3.230   4.629 -4.1583  0.1917 -1.1454
17778TIP3    H274826   4.695   3.380   4.605 -2.3732  0.3432 -0.5611
17779TIP3   OH274827   4.486   5.591   2.578 -0.3726 -0.3994  0.3957
17779TIP3    H174828   4.463   5.680   2.553 -0.1707 -0.7349 -1.0558
17779TIP3    H274829   4.478   5.540   2.498  0.6020 -1.4790  0.9411
17780TIP3   OH274830   5.711   0.778   4.265  0.3224 -0.3440  0.4472
17780TIP3    H174831   5.748   0.837   4.199 -0.9134  0.4965  0.4739
17780TIP3    H274832   5.646   0.830   4.311  0.7099 -1.1048  1.9371
17781TIP3   OH274833   4.153   6.128   6.337  0.0258 -0.1651  0.2537
17781TIP3    H174834   4.215   6.081   6.394 -0.2355  0.6736  1.2495
17781TIP3    H274835   4.079   6.068   6.328  1.1452 -1.3832 -1.3372
17782TIP3   OH274836   3.036   2.712   4.272 -0.3550  0.0539 -0.0849
17782TIP3    H174837   3.089   2.650   4.222 -0.3757 -2.0301  2.2612
17782TIP3    H274838   3.023   2.786   4.213  1.9094 -1.0175 -2.1083
17783TIP3   OH274839   5.718   3.036  12.692  0.0546 -0.2359 -0.4552
17783TIP3    H174840   5.729   2.954  12.645  1.5987 -0.0464 -0.4720
17783TIP3    H274841   5.766   3.101  12.640  1.9327 -0.0447  1.3891
17784TIP3   OH274842   2.314   3.765  15.969 -0.1078  0.3776  0.0396
17784TIP3    H174843   2.249   3.696  15.986  0.7913 -0.5717 -0.2709
17784TIP3    H274844   2.327   3.763  15.874  0.8749  0.0721  0.1649
17785TIP3   OH274845   5.654   3.432   2.790 -0.0712  0.2347  0.4593
17785TIP3    H174846   5.725   3.369   2.794 -1.1933 -1.0196  2.1120
17785TIP3    H274847   5.618   3.422   2.702 -0.9510 -2.3635  1.0105
17786TIP3   OH274848   2.809   6.161   1.936  0.4001  0.3897 -0.5582
17786TIP3    H174849   2.859   6.214   1.875  2.5829 -1.4677 -0.5254
17786TIP3    H274850   2.858   6.165   2.018 -0.6453  0.1416  0.1034
17787TIP3   OH274851   2.152   5.221   1.260  0.4004  0.2559 -0.3402
17787TIP3    H174852   2.128   5.145   1.312  2.7044 -0.9993 -0.9794
17787TIP3    H274853   2.069   5.264   1.240 -1.2241 -3.1379 -1.5758
17788TIP3   OH274854   6.698   3.103  16.488 -0.5126 -0.2872 -0.1857
17788TIP3    H174855   6.677   3.190  16.521  0.3584  0.1447 -0.7251
17788TIP3    H274856   6.720   3.118  16.396  2.0343 -0.6911  0.2984
17789TIP3   OH274857   5.301   1.898  14.844  0.5823 -0.1400  0.3302
17789TIP3    H174858   5.369   1.955  14.808  0.3854 -1.9787 -3.5233
17789TIP3    H274859   5.346   1.816  14.864 -0.0420 -0.5171  0.2271
17790TIP3   OH274860   4.179   4.147  16.699 -0.0117 -0.0009 -0.0767
17790TIP3    H174861   4.228   4.215  16.745  0.3072  2.3466 -3.4742
17790TIP3    H274862   4.096   4.141  16.746  0.2423  2.2881  0.8182
17791TIP3   OH274863   6.390   5.983  11.416  0.4243 -0.7413  0.0092
17791TIP3    H174864   6.299   5.970  11.390 -0.1895 -1.3087  2.2147
17791TIP3    H274865   6.418   6.062  11.370 -0.8462 -1.1120 -1.4754
17792TIP3   OH274866   1.764   2.247   4.881  0.0207  1.3348 -0.1787
17792TIP3    H174867   1.686   2.301   4.890 -1.3074 -0.3996 -0.7271
17792TIP3    H274868   1.731   2.158   4.871  2.1497  0.2263  1.8036
17793TIP3   OH274869   0.529   2.462   3.335  1.2501  0.2962  0.4861
17793TIP3    H174870   0.550   2.554   3.350 -2.1748  1.0900  1.1676
17793TIP3    H274871   0.478   2.435   3.412  0.2781 -1.4842 -0.6949
17794TIP3   OH274872   3.212   3.928   1.163  0.0501  0.3680 -0.2575
17794TIP3    H174873   3.185   4.020   1.163  0.3079  0.4518  0.5432
17794TIP3    H274874   3.171   3.891   1.241  0.8202  0.0701  0.0128
17795TIP3   OH274875   2.212   4.386   4.688 -0.0133  0.1791  0.2432
17795TIP3    H174876   2.294   4.394   4.736 -0.5993 -0.2763  1.3758
17795TIP3    H274877   2.147   4.428   4.745 -0.3551  1.8327 -1.2799
17796TIP3   OH274878   4.484   0.482   2.658  0.4768 -0.2606 -0.1404
17796TIP3    H174879   4.496   0.531   2.577 -2.3367  0.3639 -0.2837
17796TIP3    H274880   4.514   0.541   2.727  1.3308 -0.1425 -0.6042
17797TIP3   OH274881   1.579   6.037  15.169 -0.2666 -0.1478 -0.2820
17797TIP3    H174882   1.580   5.978  15.093 -0.1639  0.8675 -1.0955
17797TIP3    H274883   1.653   6.096  15.154  1.2913 -1.4186  1.8521
17798TIP3   OH274884   1.490   1.873  11.017  0.0503 -0.6156 -0.3331
17798TIP3    H174885   1.476   1.800  11.078  0.1648 -0.8119 -0.5431
17798TIP3    H274886   1.493   1.832  10.931 -1.8686 -0.1515 -0.6505
17799TIP3   OH274887   5.645   3.453   3.636  0.5837  0.2408  0.2046
17799TIP3    H174888   5.676   3.491   3.718  2.0031 -0.7202  0.1513
17799TIP3    H274889   5.589   3.380   3.662  2.5602 -1.2953  0.4070
17800TIP3   OH274890   5.347   4.871   5.225 -0.3409 -0.3719  0.0703
17800TIP3    H174891   5.396   4.788   5.225 -1.1648 -0.9662  2.6046
17800TIP3    H274892   5.256   4.844   5.238 -0.6605  0.9052  0.6139
17801TIP3   OH274893   0.640   2.768   3.742 -0.4853 -0.0572  0.1034
17801TIP3    H174894   0.728   2.783   3.706 -1.1341  0.0356 -1.5205
17801TIP3    H274895   0.638   2.674   3.761  0.6021  0.2565  2.0277
17802TIP3   OH274896   2.927   2.370   3.348  0.1841 -0.2984 -0.2985
17802TIP3    H174897   2.944   2.463   3.364 -0.2221 -0.4674  1.3135
17802TIP3    H274898   2.959   2.326   3.427  0.4440 -1.5395 -1.0764
17803TIP3   OH274899   2.028   3.365  11.328 -0.5170  0.3790  0.1443
17803TIP3    H174900   2.029   3.296  11.394 -0.4734 -0.0792 -0.3247
17803TIP3    H274901   1.937   3.368  11.297 -0.2766 -0.3062 -0.6817
17804TIP3   OH274902   0.548   3.768   0.873 -0.2371 -0.1599  0.5109
17804TIP3    H174903   0.519   3.709   0.804 -1.0567 -0.4330  1.0684
17804TIP3    H274904   0.640   3.785   0.853 -0.1122 -1.2540  0.0777
17805TIP3   OH274905   5.693   1.830   5.391 -0.6207  0.0382  0.4360
17805TIP3    H174906   5.656   1.776   5.321  0.2916  0.2093 -0.1959
17805TIP3    H274907   5.730   1.905   5.345  0.9205 -0.3521  0.9879
17806TIP3   OH274908   0.583   1.029   3.143  0.2027 -0.3733 -0.2487
17806TIP3    H174909   0.641   1.057   3.214 -0.4878  0.9879 -0.1912
17806TIP3    H274910   0.522   0.968   3.184  0.3673 -0.2906  0.1210
17807TIP3   OH274911   2.552   2.223   2.350  0.6789 -0.2346 -0.3196
17807TIP3    H174912   2.527   2.230   2.442  0.8526 -0.1419 -0.2789
17807TIP3    H274913   2.619   2.290   2.338  0.3057  0.0966 -0.6351
17808TIP3   OH274914   0.819   2.201  11.784  0.4699  0.4027  0.0435
17808TIP3    H174915   0.873   2.204  11.863 -0.2482 -0.7815  0.6073
17808TIP3    H274916   0.740   2.249  11.808  0.3746  0.2938 -0.0565
17809TIP3   OH274917   4.145   2.422  10.190 -0.3444 -0.8297 -0.5569
17809TIP3    H174918   4.064   2.467  10.213 -0.0442 -1.1198  1.1449
17809TIP3    H274919   4.126   2.329  10.203  0.5299 -0.8393  0.7741
17810TIP3   OH274920   4.153   3.390  12.821 -0.7547 -0.6467 -0.1636
17810TIP3    H174921   4.198   3.369  12.739  1.3716  2.3530  0.0832
17810TIP3    H274922   4.093   3.461  12.798  0.5545  0.8982  0.9615
17811TIP3   OH274923   6.784   1.309  13.126 -0.1692 -0.8710  0.4658
17811TIP3    H174924   6.840   1.232  13.117  1.2170 -0.0368  1.5058
17811TIP3    H274925   6.736   1.313  13.043  0.6574 -2.1273 -0.1124
17812TIP3   OH274926   1.602   4.022  15.142 -0.2445 -0.1781 -0.3056
17812TIP3    H174927   1.569   3.988  15.059 -0.8627 -1.5823  0.4744
17812TIP3    H274928   1.595   4.117  15.133 -0.5352 -0.3052 -1.7532
17813TIP3   OH274929   5.049   6.540  10.686  0.4110 -0.2470 -0.1590
17813TIP3    H174930   5.111   6.488  10.635 -0.6799  0.6577 -2.6136
17813TIP3    H274931   4.985   6.477  10.719  1.1244 -0.8594  0.0710
17814TIP3   OH274932   2.040   0.937  14.956 -0.1993  0.4131 -0.2740
17814TIP3    H174933   1.986   0.930  14.877  0.9178 -0.8471 -0.9584
17814TIP3    H274934   2.130   0.938  14.924  0.2869 -0.4258  0.9848
17815TIP3   OH274935   1.846   5.379  14.788  0.5871  0.3642  0.3322
17815TIP3    H174936   1.768   5.370  14.842  0.5423  2.3464  0.6479
17815TIP3    H274937   1.907   5.313  14.822 -1.1553 -1.7412 -0.4206
17816TIP3   OH274938   4.387   1.210  14.418 -0.4011  0.4317  0.0953
17816TIP3    H174939   4.329   1.162  14.359  1.7570 -1.7052 -0.4625
17816TIP3    H274940   4.356   1.186  14.506 -1.9572  1.4876 -0.1231
17817TIP3   OH274941   5.831   6.495   2.351  0.6027 -0.1622 -0.0101
17817TIP3    H174942   5.793   6.582   2.353  1.6967  0.3181  0.7984
17817TIP3    H274943   5.919   6.508   2.314  1.3474 -0.6636  1.5058
17818TIP3   OH274944   1.524   2.585   2.582  0.3302 -0.2747 -0.5070
17818TIP3    H174945   1.504   2.503   2.537  0.1452  0.0483 -1.0308
17818TIP3    H274946   1.620   2.592   2.577  0.2381  0.4216 -2.1033
17819TIP3   OH274947   2.293   5.249   3.595 -0.5373 -0.6367  0.1614
17819TIP3    H174948   2.378   5.287   3.619 -0.3437 -1.1395  0.2849
17819TIP3    H274949   2.310   5.155   3.590 -1.4405 -0.9158  1.7060
17820TIP3   OH274950   3.406   5.860  12.532  0.2249  0.4102 -0.0874
17820TIP3    H174951   3.487   5.837  12.485  0.7789  0.9207  0.5975
17820TIP3    H274952   3.343   5.793  12.505  0.2902  1.1190 -2.1536
17821TIP3   OH274953   4.563   0.761  16.179  0.0687 -0.2919 -0.6704
17821TIP3    H174954   4.633   0.732  16.120 -1.7910  0.2498 -3.2541
17821TIP3    H274955   4.597   0.842  16.218  1.5963 -1.0192 -0.3778
17822TIP3   OH274956   5.878   5.225   5.983  0.1663  0.9661 -0.2303
17822TIP3    H174957   5.807   5.239   5.921 -0.1062 -0.5517 -0.2940
17822TIP3    H274958   5.958   5.231   5.931  0.0431  1.7241 -0.3376
17823TIP3   OH274959   1.814   4.566   2.688 -0.2573  0.3129 -0.4764
17823TIP3    H174960   1.812   4.654   2.649  1.0179 -0.1119 -1.5883
17823TIP3    H274961   1.751   4.516   2.638  0.2068  0.1887 -0.9508
17824TIP3   OH274962   4.409   1.517  13.257  0.5343  0.2774 -0.6401
17824TIP3    H174963   4.501   1.500  13.236  0.5988  0.2747 -0.3590
17824TIP3    H274964   4.409   1.534  13.351  0.1155 -0.6923 -0.4545
17825TIP3   OH274965   1.465   4.356  11.387  0.3274  0.5806 -0.2216
17825TIP3    H174966   1.457   4.375  11.294  1.5957 -0.5562 -0.5966
17825TIP3    H274967   1.397   4.291  11.404  1.9162 -1.4183 -1.0720
17826TIP3   OH274968   5.386   2.415  14.150 -0.8566 -0.3367 -0.4406
17826TIP3    H174969   5.335   2.411  14.069 -2.3154 -0.4248  0.4408
17826TIP3    H274970   5.450   2.345  14.141  0.0830  0.6679 -2.1811
17827TIP3   OH274971   3.182   2.548  15.874  0.2178  0.3708 -0.1045
17827TIP3    H174972   3.124   2.599  15.931  0.0566 -0.7950  0.8262
17827TIP3    H274973   3.268   2.554  15.916  0.7183  1.7319 -1.2426
17828TIP3   OH274974   1.907   1.363   0.676  0.4487  0.3190  0.1750
17828TIP3    H174975   1.889   1.433   0.738  0.0709  1.1176 -0.7974
17828TIP3    H274976   1.942   1.292   0.729  0.4379  1.0864  1.2448
17829TIP3   OH274977   2.893   5.795   1.106 -0.5178 -0.9582 -0.3018
17829TIP3    H174978   2.822   5.848   1.143  0.3608 -0.6376  0.9902
17829TIP3    H274979   2.865   5.778   1.016 -2.9141 -2.0463  0.5541
17830TIP3   OH274980   0.665   4.883   6.025  0.6531 -0.4370  0.5040
17830TIP3    H174981   0.621   4.917   6.104  0.9033 -0.0532  0.4818
17830TIP3    H274982   0.655   4.788   6.031  1.6909 -0.5005  1.6231
17831TIP3   OH274983   1.120   3.892  13.996  0.3046 -0.4054 -0.4129
17831TIP3    H174984   1.130   3.985  14.017  2.3330 -0.7818  0.4598
17831TIP3    H274985   1.157   3.883  13.908  0.1918 -0.4020 -0.4603
17832TIP3   OH274986   4.965   5.919  13.264  0.3942  0.1362 -0.4023
17832TIP3    H174987   4.936   6.001  13.305 -0.8645  0.4705 -1.8712
17832TIP3    H274988   5.060   5.928  13.258  0.3180  1.3163 -0.1547
17833TIP3   OH274989   5.196   2.789  16.306 -0.4273 -0.2376 -0.2717
17833TIP3    H174990   5.156   2.860  16.357 -1.8548 -0.6731 -0.7124
17833TIP3    H274991   5.213   2.828  16.221  1.7524  0.4279  0.4166
17834TIP3   OH274992   5.567   3.796   1.543  0.1163 -0.9589 -0.0288
17834TIP3    H174993   5.635   3.819   1.480 -1.0772  2.0973 -0.3764
17834TIP3    H274994   5.515   3.728   1.499 -0.0277  0.3185 -1.9578
17835TIP3   OH274995   1.292   2.508   0.036  0.6793 -0.2374 -0.2791
17835TIP3    H174996   1.289   2.413   0.042  0.2802 -0.3353 -1.7469
17835TIP3    H274997   1.342   2.526  -0.044  0.2262  0.7765 -0.3544
17836TIP3   OH274998   3.553   6.463   4.219  0.7012 -0.0932  0.1387
17836TIP3    H174999   3.580   6.522   4.290  0.8503  0.0380 -0.0251
17836TIP3    H275000   3.503   6.519   4.159 -0.6825 -0.5152  0.8618
17837TIP3   OH275001   0.214   2.120   5.365 -0.5941  0.2318  1.0587
17837TIP3    H175002   0.256   2.203   5.341 -0.3924 -0.3600 -0.8651
17837TIP3    H275003   0.231   2.110   5.459  0.5209  1.7188  1.0465
17838TIP3   OH275004   1.584   3.531   2.143 -0.2315  0.1237  0.0114
17838TIP3    H175005   1.601   3.620   2.174 -0.9279  0.5771 -0.8495
17838TIP3    H275006   1.516   3.498   2.203  1.2800 -0.5278  1.4589
17839TIP3   OH275007   5.575   1.710   0.290  0.3231  0.1447  0.3256
17839TIP3    H175008   5.572   1.801   0.317 -0.1405 -0.1772  1.3986
17839TIP3    H275009   5.485   1.679   0.298  0.1799 -0.0070 -1.4945
17840TIP3   OH275010   1.935   5.176  11.669 -0.6259 -0.0916 -0.5669
17840TIP3    H175011   2.010   5.170  11.609  0.0841  0.9137  0.2020
17840TIP3    H275012   1.911   5.269  11.669 -1.0883 -0.2018  0.1402
17841TIP3   OH275013   0.119   4.691   1.452 -0.8306 -0.7562 -0.1998
17841TIP3    H175014   0.064   4.657   1.523 -0.2647  0.3879  0.8297
17841TIP3    H275015   0.200   4.641   1.458 -0.8000 -0.6908 -0.0621
17842TIP3   OH275016   2.775   3.559  13.475 -0.3660 -0.0875  0.4096
17842TIP3    H175017   2.751   3.499  13.545 -1.4025 -2.3733 -1.7324
17842TIP3    H275018   2.856   3.601  13.504 -1.4107  0.0243  3.4419
17843TIP3   OH275019   3.227   2.716  11.937 -0.1768 -0.1061  0.0961
17843TIP3    H175020   3.192   2.749  11.855 -0.1275 -1.3422 -0.4396
17843TIP3    H275021   3.259   2.629  11.917  0.2968 -0.2413  1.3170
17844TIP3   OH275022   4.152   5.246  12.493  0.0894 -0.2686  0.1462
17844TIP3    H175023   4.091   5.317  12.471 -0.9953 -1.2557 -0.1355
17844TIP3    H275024   4.237   5.289  12.500 -0.5870  1.1126  0.2921
17845TIP3   OH275025   3.072   4.323  15.110  0.0424  0.2549  0.7833
17845TIP3    H175026   3.107   4.325  15.020  0.2273  1.4150  0.8589
17845TIP3    H275027   2.994   4.268  15.104 -1.4399  2.3350 -0.6750
17846TIP3   OH275028   4.604   5.560  16.393 -0.3161  0.0097 -0.2977
17846TIP3    H175029   4.530   5.576  16.450  0.0753  1.4748 -0.1608
17846TIP3    H275030   4.603   5.633  16.330  2.1275  1.2405  0.9452
17847TIP3   OH275031   5.607   3.733   5.385  0.0690 -0.4576  0.0375
17847TIP3    H175032   5.655   3.761   5.463  0.1961 -0.7175  0.0568
17847TIP3    H275033   5.668   3.746   5.313  1.1994 -3.2257  0.3553
17848TIP3   OH275034   3.597   3.654   6.467 -0.5431 -0.3819  0.2468
17848TIP3    H175035   3.508   3.631   6.495  0.1569 -1.3842  1.7708
17848TIP3    H275036   3.653   3.587   6.506  0.8493 -0.0243 -1.0612
17849TIP3   OH275037   1.010   4.906  11.794 -0.0574 -0.2783  0.3668
17849TIP3    H175038   0.933   4.858  11.826  0.7084 -1.6600  0.1957
17849TIP3    H275039   1.069   4.909  11.868  1.3940 -2.7975 -0.5855
17850TIP3   OH275040   6.442   6.524  15.653 -0.3387 -0.3595  0.4688
17850TIP3    H175041   6.360   6.552  15.693  0.6956  4.5741 -0.2178
17850TIP3    H275042   6.418   6.490  15.567 -1.7153 -0.8999  1.0418
17851TIP3   OH275043   3.887   0.302  15.035 -0.1939  0.2466 -0.5366
17851TIP3    H175044   3.980   0.324  15.034 -0.1107  0.1371  1.4273
17851TIP3    H275045   3.849   0.358  15.103 -1.9216  1.5020 -2.4026
17852TIP3   OH275046   0.843   2.598   2.864 -0.0816 -0.2694 -0.6005
17852TIP3    H175047   0.822   2.690   2.876  0.2102 -0.3363  0.5365
17852TIP3    H275048   0.808   2.554   2.942  2.5761 -0.6319  0.5300
17853TIP3   OH275049   4.306   6.498   3.660 -0.3468 -0.2064 -0.3043
17853TIP3    H175050   4.236   6.515   3.723 -1.3784  2.3962 -1.9558
17853TIP3    H275051   4.274   6.424   3.608 -0.8490 -0.4519  0.3486
17854TIP3   OH275052   2.619   6.734  12.431  0.0827 -0.0921  0.0802
17854TIP3    H175053   2.534   6.707  12.466 -0.6362  0.2854 -1.3241
17854TIP3    H275054   2.656   6.789  12.501 -0.7877 -0.3133  0.7389
17855TIP3   OH275055   2.358   2.213   3.063 -0.3720  0.2689  0.2673
17855TIP3    H175056   2.279   2.203   3.010  1.0156 -1.2349 -1.6943
17855TIP3    H275057   2.380   2.306   3.057 -1.0702  0.3902 -0.5945
17856TIP3   OH275058   5.905   4.091   0.309 -0.0491  0.4926  0.4448
17856TIP3    H175059   5.892   4.133   0.224  2.3108 -0.6073 -0.5470
17856TIP3    H275060   5.821   4.049   0.327 -0.4954  0.3635 -1.6126
17857TIP3   OH275061   3.650   1.588   1.170 -0.0885  0.2435 -0.3974
17857TIP3    H175062   3.584   1.560   1.107 -0.5338  0.8677 -0.2133
17857TIP3    H275063   3.718   1.521   1.164 -0.9993 -0.7202 -0.1711
17858TIP3   OH275064   3.147   2.215  15.323  0.3511 -0.0932  0.7293
17858TIP3    H175065   3.092   2.136  15.330  0.7908 -0.5860 -0.9756
17858TIP3    H275066   3.091   2.286  15.355  0.0505 -1.1097  2.5976
17859TIP3   OH275067   1.504   6.183  14.097 -0.1909 -0.1902  0.5652
17859TIP3    H175068   1.558   6.241  14.151  1.2322 -0.9840  0.0273
17859TIP3    H275069   1.564   6.147  14.032 -1.3004 -1.3586  0.1444
17860TIP3   OH275070   2.397   5.749  11.957  0.5555 -0.6574  0.5150
17860TIP3    H175071   2.436   5.679  12.010 -1.1444 -0.6250  1.9232
17860TIP3    H275072   2.394   5.824  12.015 -1.6576 -0.7074  0.5678
17861TIP3   OH275073   1.478   4.900   3.551  0.2161  0.1870  0.0516
17861TIP3    H175074   1.506   4.991   3.564  0.1365  0.4036 -1.1886
17861TIP3    H275075   1.559   4.851   3.544  0.2595  0.1674  0.6142
17862TIP3   OH275076   3.213   4.297   0.604  0.3420  0.1081  0.4595
17862TIP3    H175077   3.197   4.253   0.688 -0.0568  2.0762  1.4762
17862TIP3    H275078   3.156   4.374   0.607  1.4970  1.0562 -0.9533
17863TIP3   OH275079   2.410   0.687   0.824  1.1773  0.2960  0.5207
17863TIP3    H175080   2.393   0.775   0.789  2.1829  1.0188  1.7324
17863TIP3    H275081   2.329   0.663   0.869  1.5756  1.5534  2.0048
17864TIP3   OH275082   6.603   2.262  11.590  0.4782  0.5478  0.0013
17864TIP3    H175083   6.531   2.294  11.644  0.1290 -1.4321  0.7693
17864TIP3    H275084   6.671   2.328  11.600  1.1976 -0.5902  4.4857
17865TIP3   OH275085   3.551   1.008  16.408 -0.0915 -0.1082  0.1705
17865TIP3    H175086   3.494   1.081  16.430 -0.8943 -0.5806 -0.2854
17865TIP3    H275087   3.563   1.016  16.313  0.6496  0.0090  0.2632
17866TIP3   OH275088   0.425   3.191   0.478  0.2683  0.1173  0.2108
17866TIP3    H175089   0.377   3.116   0.515  1.0226 -0.1399  0.6969
17866TIP3    H275090   0.358   3.243   0.434 -0.9371  1.1578  3.0619
17867TIP3   OH275091   4.560   5.297   1.395  0.7978  0.1064 -0.2693
17867TIP3    H175092   4.619   5.222   1.385  0.3022 -0.2829 -0.3476
17867TIP3    H275093   4.531   5.293   1.486 -0.2090 -0.5525 -0.6057
17868TIP3   OH275094   6.173   4.443   2.770  0.5518 -0.3801  0.3679
17868TIP3    H175095   6.179   4.348   2.783  1.1341 -0.5336 -0.8458
17868TIP3    H275096   6.081   4.463   2.786  0.6581 -0.9471  1.8069
17869TIP3   OH275097   1.200   2.682  13.307 -0.0929  0.5017  0.0025
17869TIP3    H175098   1.234   2.593  13.308  1.0403  0.9092 -0.7754
17869TIP3    H275099   1.138   2.685  13.380 -0.8767 -1.1978 -0.5550
17870TIP3   OH275100   6.302   6.686   3.354 -0.1908 -0.5027 -0.0127
17870TIP3    H175101   6.336   6.673   3.443 -1.5816  0.7805  0.7386
17870TIP3    H275102   6.239   6.758   3.362  2.2551  2.2044 -2.7011
17871TIP3   OH275103   3.579   6.300  13.839 -0.5344  0.2554 -0.7285
17871TIP3    H175104   3.674   6.295  13.852 -0.6500 -1.7778 -0.3292
17871TIP3    H275105   3.543   6.302  13.927 -0.8718  3.1042 -0.8330
17872TIP3   OH275106   5.709   0.632  15.421  0.2970  0.6916 -0.2258
17872TIP3    H175107   5.786   0.611  15.368  1.1546  0.9237  0.8854
17872TIP3    H275108   5.665   0.703  15.373  0.4120  0.1301 -1.1857
17873TIP3   OH275109   4.433   5.076   3.310  0.2032  0.3813 -0.0160
17873TIP3    H175110   4.516   5.046   3.272 -0.6489 -1.0624 -0.8650
17873TIP3    H275111   4.413   5.157   3.263  1.3305  0.9913  0.5169
17874TIP3   OH275112   4.294   3.964   5.176  0.7456 -0.3596 -0.6589
17874TIP3    H175113   4.206   3.974   5.140  0.2944  0.7347  0.6472
17874TIP3    H275114   4.352   3.977   5.101 -0.1899 -1.2747 -1.5723
17875TIP3   OH275115   2.008   2.624  11.651 -0.2159 -0.2574  0.0829
17875TIP3    H175116   2.005   2.696  11.714 -1.1501 -0.9167  0.8245
17875TIP3    H275117   1.949   2.652  11.580  2.1723  1.2709 -1.4489
17876TIP3   OH275118   2.837   1.730  13.750  0.2099 -0.1770 -0.0350
17876TIP3    H175119   2.808   1.696  13.834  1.2737 -0.1411  0.3636
17876TIP3    H275120   2.883   1.811  13.772 -1.8296  1.3109 -0.9110
17877TIP3   OH275121   5.430   6.679   3.377 -0.2550  0.4707  0.0795
17877TIP3    H175122   5.415   6.762   3.421  2.9412  1.4993 -0.5067
17877TIP3    H275123   5.521   6.657   3.397 -0.3803 -1.8226 -1.4719
17878TIP3   OH275124   5.192   6.760   5.748  0.1745  0.1596 -0.1975
17878TIP3    H175125   5.156   6.754   5.660 -0.0604  0.4923 -0.1283
17878TIP3    H275126   5.286   6.769   5.736  0.4538 -2.2813 -0.3455
17879TIP3   OH275127   6.116   6.203  14.042 -0.2888  0.2295 -0.2432
17879TIP3    H175128   6.104   6.236  14.131  0.3099  1.5075 -0.6216
17879TIP3    H275129   6.207   6.174  14.039 -0.5450 -0.6247 -0.2023
17880TIP3   OH275130   4.653   1.643   0.540  0.2125  0.0270 -0.0096
17880TIP3    H175131   4.693   1.728   0.559  0.4225 -0.1203  0.2202
17880TIP3    H275132   4.582   1.635   0.604 -0.6821  0.6262 -0.9172
17881TIP3   OH275133   6.816   1.512  10.946  0.5214 -0.2975 -0.2923
17881TIP3    H175134   6.802   1.420  10.926 -0.4901 -0.0285 -0.8931
17881TIP3    H275135   6.872   1.544  10.876 -1.4786  0.1962 -1.7538
17882TIP3   OH275136   5.936   3.506  14.600 -0.2143  0.5064 -0.2582
17882TIP3    H175137   6.022   3.519  14.559 -0.1744  1.1303  0.0046
17882TIP3    H275138   5.955   3.484  14.691 -0.2591 -2.2944 -0.8375
17883TIP3   OH275139   6.788   6.391  15.143 -0.3303  0.2037 -0.1499
17883TIP3    H175140   6.853   6.461  15.140 -1.8573  1.6823 -1.9156
17883TIP3    H275141   6.743   6.397  15.058 -1.7410 -1.7363  0.3849
17884TIP3   OH275142   6.524   4.370   4.761  0.5683  0.3828  0.0370
17884TIP3    H175143   6.462   4.400   4.694 -0.0155  0.3464  0.5506
17884TIP3    H275144   6.610   4.392   4.725  0.2461  0.7614 -0.5319
17885TIP3   OH275145   4.753   5.563  15.303  0.0918  0.2308 -0.1177
17885TIP3    H175146   4.674   5.521  15.340 -0.3078  1.5243  0.5445
17885TIP3    H275147   4.732   5.576  15.211 -0.3535  0.2982 -0.0091
17886TIP3   OH275148   3.498   4.791  14.721 -0.1240  0.6740 -0.0344
17886TIP3    H175149   3.481   4.759  14.632  1.6220 -0.2579 -0.0795
17886TIP3    H275150   3.421   4.844  14.742 -0.0593  1.9741 -2.5747
17887TIP3   OH275151   4.270   5.475  11.110 -0.1566  0.1853  0.3771
17887TIP3    H175152   4.240   5.463  11.200  0.8514  0.7107  0.8005
17887TIP3    H275153   4.262   5.389  11.070  1.9146 -0.7395  1.7629
17888TIP3   OH275154   5.868   5.749  14.891 -0.0370 -0.2617 -0.6144
17888TIP3    H175155   5.907   5.785  14.970  0.5074  0.3074 -1.1235
17888TIP3    H275156   5.816   5.674  14.921 -1.9945  1.4752  0.6015
17889TIP3   OH275157   1.592   4.063   4.839 -0.1715 -0.2763 -0.7386
17889TIP3    H175158   1.604   4.142   4.788 -0.3605  0.1282 -0.1679
17889TIP3    H275159   1.662   4.005   4.811  1.5331  1.0214  0.6290
17890TIP3   OH275160   0.647   5.916   0.103  0.0793  0.2652  0.1730
17890TIP3    H175161   0.740   5.931   0.084 -0.8031  1.6835 -3.9994
17890TIP3    H275162   0.611   6.003   0.120 -0.7852 -0.0406 -0.0325
17891TIP3   OH275163   2.357   2.401   3.384  0.4849  0.0612 -0.1955
17891TIP3    H175164   2.436   2.452   3.366  0.0269  1.6068  1.8445
17891TIP3    H275165   2.285   2.454   3.351  0.1362 -0.2603  0.0312
17892TIP3   OH275166   4.727   3.366  15.133  0.1348 -0.5684 -0.2619
17892TIP3    H175167   4.677   3.367  15.051  0.4374 -2.1468 -0.4999
17892TIP3    H275168   4.769   3.452  15.136 -1.1964  0.1534 -0.9096
17893TIP3   OH275169   5.233   3.693   0.857 -0.0500  0.3829 -0.3655
17893TIP3    H175170   5.250   3.678   0.950  0.9076  1.5933 -0.3221
17893TIP3    H275171   5.151   3.647   0.840 -1.2013  1.6062  1.5066
17894TIP3   OH275172   4.901   6.252  12.524  0.5510  0.2191 -0.0418
17894TIP3    H175173   4.826   6.301  12.559 -0.7497 -1.3038 -0.5865
17894TIP3    H275174   4.919   6.185  12.589  1.7562  0.8392  0.2906
17895TIP3   OH275175   6.064   0.340  13.687  0.3906 -0.1565 -0.7379
17895TIP3    H175176   5.995   0.318  13.625 -0.8717  1.6117 -0.0567
17895TIP3    H275177   6.111   0.258  13.701 -1.0694 -1.2364 -1.8421
17896TIP3   OH275178   4.218   1.112  14.200  0.4587  0.1073 -0.0281
17896TIP3    H175179   4.162   1.074  14.131 -0.4949  1.5937 -0.1224
17896TIP3    H275180   4.235   1.201  14.170 -0.6037  1.0479  1.9714
17897TIP3   OH275181   1.541   5.906   5.943  0.3670  0.3019  0.1746
17897TIP3    H175182   1.509   5.992   5.918 -2.1416 -0.8664 -1.0078
17897TIP3    H275183   1.547   5.910   6.039  0.5550  1.8243  0.1278
17898TIP3   OH275184   4.958   2.150   6.782 -0.2093  0.7450  0.4273
17898TIP3    H175185   4.871   2.189   6.772 -1.0539 -1.3960 -1.3381
17898TIP3    H275186   5.017   2.225   6.784 -1.9464  2.2086 -0.0090
17899TIP3   OH275187   1.755   5.382  15.672  0.2029 -0.2829  0.1695
17899TIP3    H175188   1.691   5.335  15.620  0.6018 -1.1676  0.4563
17899TIP3    H275189   1.727   5.473  15.669  2.3715  0.6072 -5.0833
17900TIP3   OH275190   0.112   5.244   1.833 -0.0917 -0.4255  0.2643
17900TIP3    H175191   0.085   5.174   1.774  1.3924 -0.9709  0.2095
17900TIP3    H275192   0.148   5.312   1.775 -0.0018 -0.3193  0.4432
17901TIP3   OH275193   6.576   4.848  12.018 -0.2183 -0.1556  0.1084
17901TIP3    H175194   6.595   4.928  12.068 -1.2601  0.2801 -0.1561
17901TIP3    H275195   6.482   4.835  12.030 -0.0157 -1.4954  0.3505
17902TIP3   OH275196   2.053   1.091   0.993 -0.2034 -0.2207  0.0521
17902TIP3    H175197   2.140   1.127   1.014  0.5828 -1.4616 -0.9867
17902TIP3    H275198   1.993   1.146   1.044  1.1807  0.5994  0.8915
17903TIP3   OH275199   2.353   6.212  13.089  0.6853 -0.1158 -0.5227
17903TIP3    H175200   2.442   6.184  13.066 -0.4267 -2.7254 -2.0273
17903TIP3    H275201   2.310   6.132  13.120 -2.1093  0.2510 -3.0158
17904TIP3   OH275202   5.035   6.474  12.239  0.1935  0.5618  0.5535
17904TIP3    H175203   4.957   6.423  12.262  0.1785  1.5536  2.9412
17904TIP3    H275204   5.013   6.564  12.265  0.4124  1.8505 -3.0505
17905TIP3   OH275205   4.266   0.913  11.116  0.1255 -0.4301  0.0184
17905TIP3    H175206   4.197   0.948  11.060 -1.2166  1.1727  2.4722
17905TIP3    H275207   4.222   0.846  11.169  0.6976 -0.1821  0.8363
17906TIP3   OH275208   4.932   0.248   2.048 -0.6366 -0.0454  0.6580
17906TIP3    H175209   4.958   0.289   1.965 -1.8958  0.3352  0.4266
17906TIP3    H275210   4.920   0.156   2.025 -1.0428  0.0700  0.3970
17907TIP3   OH275211   2.629   0.155  16.532  0.1409  0.6593  0.2093
17907TIP3    H175212   2.560   0.110  16.580 -0.7387  0.5674 -1.0758
17907TIP3    H275213   2.692   0.087  16.510 -0.5446  0.2765 -0.6203
17908TIP3   OH275214   0.479   6.580   0.266 -0.3132  0.1779 -0.1923
17908TIP3    H175215   0.477   6.632   0.346 -2.1715 -1.1301  0.6640
17908TIP3    H275216   0.417   6.623   0.207 -2.8338 -1.6495  0.9778
17909TIP3   OH275217   6.797   0.235   0.477  0.2493  0.4739 -0.1703
17909TIP3    H175218   6.791   0.158   0.420 -1.5529  1.1242 -0.9227
17909TIP3    H275219   6.860   0.210   0.545 -1.3191 -2.1909  0.4398
17910TIP3   OH275220   0.796   2.192   2.072  0.5726 -0.5179 -0.1663
17910TIP3    H175221   0.882   2.191   2.114 -0.3110 -1.7393  1.7542
17910TIP3    H275222   0.747   2.259   2.120  0.5326  0.4553 -1.5098
17911TIP3   OH275223   4.045   2.959  16.568 -0.3137  0.1478  0.2440
17911TIP3    H175224   3.995   3.025  16.616 -1.4193 -0.3319 -0.2380
17911TIP3    H275225   4.107   2.925  16.633  0.1206  1.4708  0.5636
17912TIP3   OH275226   1.453   2.273  16.458  0.3313 -0.0000 -0.1325
17912TIP3    H175227   1.391   2.274  16.385  0.3844 -1.6055 -0.2358
17912TIP3    H275228   1.519   2.339  16.434  1.4001 -1.7648 -2.5293
17913TIP3   OH275229   6.656   5.781  17.072  0.0862 -0.0814 -0.2350
17913TIP3    H175230   6.719   5.824  17.130  0.0110 -0.6621  0.3003
17913TIP3    H275231   6.662   5.828  16.990  0.8517  0.1933 -0.0299
17914TIP3   OH275232   2.282   4.362   2.587 -0.0843 -0.1675  0.4465
17914TIP3    H175233   2.337   4.296   2.545  0.8531  0.4699  0.6487
17914TIP3    H275234   2.341   4.435   2.605 -0.8992  0.3512  1.0973
17915TIP3   OH275235   0.889   0.322   4.206  0.3030  0.5182 -0.1066
17915TIP3    H175236   0.823   0.304   4.139 -1.4590  1.4353  1.2888
17915TIP3    H275237   0.846   0.299   4.289  1.3103  2.1887  0.9455
17916TIP3   OH275238   5.585   4.583  15.176  0.2183 -0.3355 -0.0366
17916TIP3    H175239   5.538   4.610  15.096 -0.9205  0.4204  0.8562
17916TIP3    H275240   5.538   4.506  15.206  0.7452 -0.7139 -0.1787
17917TIP3   OH275241   5.029   0.576  11.671  0.5061 -0.4120 -0.6364
17917TIP3    H175242   4.984   0.593  11.754  1.5214  2.4645 -0.5578
17917TIP3    H275243   4.993   0.642  11.612  3.0508  0.5917 -1.1584
17918TIP3   OH275244   2.455   3.078   0.456 -0.1885 -0.3239  0.1481
17918TIP3    H175245   2.456   3.037   0.370  1.1792 -1.2588  0.5567
17918TIP3    H275246   2.450   3.004   0.517 -0.7874  0.3065  0.8816
17919TIP3   OH275247   1.810   3.603   5.415 -0.4910  0.0132 -0.0143
17919TIP3    H175248   1.822   3.609   5.320 -1.0312  0.0567 -0.0802
17919TIP3    H275249   1.815   3.510   5.434 -0.9580 -0.0438 -0.1629
17920TIP3   OH275250   2.992   4.489  12.749  0.1919  0.0960  0.0543
17920TIP3    H175251   2.905   4.517  12.777  0.4226  0.6248  0.2656
17920TIP3    H275252   2.988   4.394  12.748  0.3869 -0.0161  2.6853
17921TIP3   OH275253   1.768   3.694   3.746  0.3722 -0.4503 -0.4286
17921TIP3    H175254   1.726   3.651   3.672  2.7674 -1.8258 -1.0597
17921TIP3    H275255   1.705   3.684   3.818 -1.6892  0.2882 -2.0016
17922TIP3   OH275256   1.867   4.505  14.409 -0.0308  0.0697 -0.5983
17922TIP3    H175257   1.926   4.435  14.436  0.3240 -0.2526 -2.1359
17922TIP3    H275258   1.783   4.461  14.394  0.1860 -0.0222 -1.5428
17923TIP3   OH275259   0.799   0.209   3.673  0.0965 -0.0004 -0.0714
17923TIP3    H175260   0.825   0.183   3.585  0.3124 -0.8670  0.2317
17923TIP3    H275261   0.789   0.126   3.720 -1.1738  0.4012  0.3983
17924TIP3   OH275262   0.302   2.882   1.663  0.2729  0.6642  0.1357
17924TIP3    H175263   0.345   2.960   1.697 -0.9950 -0.0643  3.8673
17924TIP3    H275264   0.211   2.907   1.649  0.0036  0.0581  0.7267
17925TIP3   OH275265   4.901   6.284  15.899 -0.6014  0.9418 -0.1715
17925TIP3    H175266   4.819   6.325  15.926 -0.0597  0.3923  2.5825
17925TIP3    H275267   4.967   6.323  15.955  0.5054 -0.9511 -0.0594
17926TIP3   OH275268   5.289   3.130  10.849  0.3806 -0.5192 -0.3751
17926TIP3    H175269   5.244   3.102  10.929  0.0188  1.0911  0.0196
17926TIP3    H275270   5.276   3.225  10.846  0.2450 -0.5578 -2.4403
17927TIP3   OH275271   6.461   5.092  14.810 -0.5858 -0.0322 -0.3343
17927TIP3    H175272   6.537   5.149  14.823 -0.2727 -0.3640 -0.6616
17927TIP3    H275273   6.495   5.019  14.758 -1.2620  0.1181 -1.0120
17928TIP3   OH275274   0.040   5.998   3.276 -0.6262 -0.4106  0.0634
17928TIP3    H175275   0.072   6.039   3.195  0.1267 -0.0848  0.5197
17928TIP3    H275276   0.105   6.021   3.342 -0.8825 -1.2433  0.6204
17929TIP3   OH275277   5.300   6.579  14.204  0.2694 -0.4790  0.5411
17929TIP3    H175278   5.360   6.593  14.131  0.7313  0.0393  1.0153
17929TIP3    H275279   5.341   6.622  14.279 -1.4534  1.3735  0.5116
17930TIP3   OH275280   5.443   4.201   1.121 -0.2554 -0.0094 -0.2681
17930TIP3    H175281   5.444   4.124   1.177 -1.1498  0.1620 -0.0040
17930TIP3    H275282   5.512   4.184   1.056 -0.9441 -1.3837 -0.6859
17931TIP3   OH275283   0.652   4.454   1.921  0.4829  0.2799  0.3871
17931TIP3    H175284   0.711   4.444   1.846  0.5108 -0.3094  0.4836
17931TIP3    H275285   0.687   4.395   1.987 -0.4425 -0.3858  0.3074
17932TIP3   OH275286   1.603   0.213  13.053 -0.1901  0.1097 -0.2523
17932TIP3    H175287   1.542   0.206  13.126 -0.5832  0.4227 -0.5449
17932TIP3    H275288   1.689   0.197  13.092 -0.4712 -0.4613  0.1378
17933TIP3   OH275289   2.563   3.948  15.384  0.2711  0.2230  0.0869
17933TIP3    H175290   2.565   4.024  15.326 -0.3411  0.7357  0.7210
17933TIP3    H275291   2.511   3.977  15.459 -3.3911 -1.9760 -1.3181
17934TIP3   OH275292   3.400   3.244  14.073  0.2162 -0.4927 -0.1110
17934TIP3    H175293   3.476   3.270  14.021  1.0934 -2.1933  0.2573
17934TIP3    H275294   3.419   3.154  14.100 -0.0147  0.4098  3.5057
17935TIP3   OH275295   1.445   5.666  11.874 -0.2570 -0.2203  0.0054
17935TIP3    H175296   1.422   5.748  11.829 -0.5125 -0.2259  0.1220
17935TIP3    H275297   1.382   5.602  11.839  0.6094 -0.6212 -0.8746
17936TIP3   OH275298   4.526   1.267   5.771  0.1368 -0.3178 -0.3186
17936TIP3    H175299   4.541   1.254   5.678 -0.8654 -0.1590 -0.5056
17936TIP3    H275300   4.578   1.344   5.794  0.4345 -0.3955 -0.7179
17937TIP3   OH275301   1.595   2.397   1.168 -0.0158  0.2685 -0.0013
17937TIP3    H175302   1.502   2.376   1.163  0.4818 -1.8217 -2.1926
17937TIP3    H275303   1.623   2.365   1.253 -0.4087 -3.7147 -1.1857
17938TIP3   OH275304   0.471   6.322   0.570 -0.1449  0.6884 -1.1000
17938TIP3    H175305   0.464   6.242   0.518  0.3313 -1.2784  1.6260
17938TIP3    H275306   0.380   6.346   0.590 -0.2823 -0.4685 -0.2003
17939TIP3   OH275307   5.725   2.462  12.563 -0.0270 -0.2052 -0.3561
17939TIP3    H175308   5.774   2.516  12.626  0.0259  0.0343 -0.5979
17939TIP3    H275309   5.686   2.393  12.616 -1.8001  1.2158  0.3139
17940TIP3   OH275310   5.184   4.155   4.868  0.0089  0.0860  0.2289
17940TIP3    H175311   5.214   4.238   4.906  2.4136  0.1783 -1.6252
17940TIP3    H275312   5.255   4.093   4.886 -1.4811 -1.4634  1.0390
17941TIP3   OH275313   0.718   6.117   1.323  0.1507  0.2031  0.5129
17941TIP3    H175314   0.758   6.195   1.284 -1.6350  0.8507 -0.1187
17941TIP3    H275315   0.625   6.139   1.332 -0.4190 -1.8802  0.2416
17942TIP3   OH275316   4.160   6.202  16.929 -0.2425 -0.1406  0.0946
17942TIP3    H175317   4.084   6.240  16.884 -2.1003 -1.7847  1.6813
17942TIP3    H275318   4.166   6.250  17.011 -0.1328 -0.6172  0.3678
17943TIP3   OH275319   2.021   4.570  12.845  0.4217 -0.4625 -0.3683
17943TIP3    H175320   2.099   4.602  12.800  0.6643 -0.5165  0.0145
17943TIP3    H275321   1.957   4.557  12.775 -0.0127  1.7670 -0.4519
17944TIP3   OH275322   2.170   6.715  11.041 -0.0540  0.4918  0.0833
17944TIP3    H175323   2.172   6.770  10.963  2.1177  0.3770  0.0128
17944TIP3    H275324   2.255   6.727  11.082 -0.6656 -0.4667  1.7378
17945TIP3   OH275325   5.728   0.006  13.792 -0.4658  0.0803  0.3292
17945TIP3    H175326   5.824   0.004  13.790 -0.4840 -1.1448 -2.0471
17945TIP3    H275327   5.707   0.030  13.883  2.0557 -2.3386  1.7076
17946TIP3   OH275328   1.441   4.609   3.878  0.1618 -0.2283  0.3743
17946TIP3    H175329   1.359   4.641   3.913 -1.1139 -1.7884 -1.0216
17946TIP3    H275330   1.476   4.551   3.946 -1.5198 -2.0310 -0.2071
17947TIP3   OH275331   4.287   1.894  17.075  0.0619 -0.4083 -0.7641
17947TIP3    H175332   4.289   1.894  16.980 -0.7447  0.8361 -0.8089
17947TIP3    H275333   4.202   1.856  17.097 -0.3180  0.5056 -0.5965
17948TIP3   OH275334   0.836   5.517  12.619 -0.3927  0.4697  0.1928
17948TIP3    H175335   0.828   5.610  12.599  0.6863  0.5452 -0.0002
17948TIP3    H275336   0.930   5.505  12.635 -0.0134 -1.0950 -2.5606
17949TIP3   OH275337   4.469   2.898   4.737  0.2775 -0.0176 -0.1871
17949TIP3    H175338   4.482   2.826   4.675 -0.0933 -1.7049  1.5836
17949TIP3    H275339   4.375   2.916   4.734  0.2219 -0.2572  0.0122
17950TIP3   OH275340   0.162   2.223   1.412 -0.0715 -0.3155 -0.0761
17950TIP3    H175341   0.223   2.213   1.338  0.1926 -1.4119  0.2808
17950TIP3    H275342   0.200   2.293   1.465 -0.3260  0.5706 -1.0212
17951TIP3   OH275343   5.050   0.951   3.267 -0.1325  0.1115  0.0586
17951TIP3    H175344   5.010   1.002   3.197 -0.5188 -0.1877  0.0548
17951TIP3    H275345   4.976   0.915   3.316  0.1337  1.0367  1.1647
17952TIP3   OH275346   6.059   3.002   0.997 -0.2433 -0.3004  0.1548
17952TIP3    H175347   6.038   2.967   0.910 -0.6354  0.6894 -0.1613
17952TIP3    H275348   6.155   3.005   0.999 -0.2386  0.6950 -0.6833
17953TIP3   OH275349   1.477   4.085  12.235  0.4204  0.7257  0.5870
17953TIP3    H175350   1.515   4.000  12.211 -0.0026  0.4885  0.7509
17953TIP3    H275351   1.388   4.064  12.263  0.3784  1.1998  0.8107
17954TIP3   OH275352   2.952   2.190  13.771 -0.6348 -0.0752  0.0559
17954TIP3    H175353   3.011   2.143  13.713 -1.4712 -0.3729 -0.5746
17954TIP3    H275354   2.890   2.233  13.713 -0.3502  1.1806  0.6603
17955TIP3   OH275355   2.221   2.009  14.671 -0.0982  0.0849 -0.4944
17955TIP3    H175356   2.291   1.945  14.685 -0.3772 -0.5123 -1.6764
17955TIP3    H275357   2.176   2.014  14.756  0.7914 -0.2303  0.0037
17956TIP3   OH275358   2.790   1.979  11.822 -0.1746 -0.5104 -0.2777
17956TIP3    H175359   2.840   1.901  11.845 -0.5172 -0.1703  1.8001
17956TIP3    H275360   2.698   1.951  11.827 -0.2834 -0.1765 -0.3910
17957TIP3   OH275361   3.334   2.222   0.690  0.5928 -0.4011  0.1732
17957TIP3    H175362   3.329   2.185   0.778 -1.2667  0.3170  0.4169
17957TIP3    H275363   3.425   2.211   0.664  1.4173  0.2497  2.5720
17958TIP3   OH275364   4.096   1.477   5.591 -0.1583  0.4485 -0.4069
17958TIP3    H175365   4.015   1.432   5.617  0.1776  0.6036  1.0071
17958TIP3    H275366   4.164   1.433   5.642  0.6235  0.5016 -1.3811
17959TIP3   OH275367   1.547   0.881  16.035 -0.8985  0.4419  0.0690
17959TIP3    H175368   1.527   0.950  15.972  1.6444 -0.5180 -1.9929
17959TIP3    H275369   1.518   0.800  15.993  0.3316 -0.1616  0.3163
17960TIP3   OH275370   2.365   5.034  10.123  0.3776 -0.4396  0.4939
17960TIP3    H175371   2.433   5.071  10.066  1.1100 -2.1218  0.2284
17960TIP3    H275372   2.411   5.010  10.203  0.0597 -1.3907  0.3981
17961TIP3   OH275373   1.642   1.777  10.540 -0.2074  0.1837 -0.2834
17961TIP3    H175374   1.695   1.805  10.465 -2.2064  0.5514 -1.6559
17961TIP3    H275375   1.580   1.849  10.553 -0.1398 -0.0511  1.5018
17962TIP3   OH275376   2.575   3.799  13.036  0.1574 -0.4428  0.4066
17962TIP3    H175377   2.577   3.788  13.131 -0.4470  2.3439  0.8344
17962TIP3    H275378   2.665   3.783  13.007  0.6839  0.1460  1.6591
17963TIP3   OH275379   1.518   2.567  13.466  0.0919 -0.2989  0.1461
17963TIP3    H175380   1.555   2.564  13.377 -0.2101  0.9516 -0.0466
17963TIP3    H275381   1.430   2.532  13.456 -0.1975  0.5016 -0.2054
17964TIP3   OH275382   2.370   5.477  12.454  0.0182 -0.1821 -0.5372
17964TIP3    H175383   2.390   5.400  12.401  0.3907 -0.4432 -0.0173
17964TIP3    H275384   2.452   5.526  12.459  0.0791 -0.3320  0.0745
17965TIP3   OH275385   0.084   1.537   6.300  0.2283 -0.8162  0.7274
17965TIP3    H175386   0.119   1.486   6.227  1.1702  0.3567  0.3066
17965TIP3    H275387   0.001   1.496   6.322 -0.2864 -0.9584 -1.3065
17966TIP3   OH275388   0.231   5.913  11.732  0.3340 -0.5468  0.6006
17966TIP3    H175389   0.143   5.937  11.763  0.6365  0.6601  0.5748
17966TIP3    H275390   0.251   5.831  11.777 -0.8770 -0.9385  0.4715
17967TIP3   OH275391   3.391   2.219   5.462 -0.5211 -0.3550  0.3754
17967TIP3    H175392   3.404   2.143   5.519  1.9039 -0.0816  0.3137
17967TIP3    H275393   3.398   2.184   5.373  0.7707 -0.0735  0.3483
17968TIP3   OH275394   3.893   4.127   0.499  0.5054  0.2386 -0.5160
17968TIP3    H175395   3.877   4.121   0.593  0.6598 -0.4964 -0.5319
17968TIP3    H275396   3.811   4.101   0.458  1.2280 -2.1872 -0.5851
17969TIP3   OH275397   1.382   0.540  11.275  0.0733 -0.5463 -0.2872
17969TIP3    H175398   1.303   0.593  11.286  0.1541 -0.2160 -1.2036
17969TIP3    H275399   1.368   0.463  11.330  0.0690  0.5509  1.3148
17970TIP3   OH275400   6.063   5.385   2.332  0.3295  0.0034  0.1688
17970TIP3    H175401   6.130   5.393   2.265 -0.5310 -0.8017 -0.8170
17970TIP3    H275402   6.102   5.329   2.399 -0.1852 -2.5945 -1.5657
17971TIP3   OH275403   2.171   3.072  14.535  0.0836  0.6895  0.4671
17971TIP3    H175404   2.141   2.987  14.501  2.2402 -0.3064  0.8576
17971TIP3    H275405   2.267   3.067  14.530  0.2963  2.7416  1.4330
17972TIP3   OH275406   1.896   3.404  16.527  0.3065 -0.1276 -0.4039
17972TIP3    H175407   1.942   3.337  16.578 -0.2653 -1.1912 -1.2390
17972TIP3    H275408   1.806   3.372  16.520 -0.0625  0.9073 -0.5426
17973TIP3   OH275409   2.116   2.705   3.873 -0.0352  0.3166  0.0853
17973TIP3    H175410   2.104   2.799   3.888 -1.5430  0.1522  0.0922
17973TIP3    H275411   2.130   2.698   3.778  0.5616  0.5877  0.1519
17974TIP3   OH275412   4.445   5.577   1.030 -0.2127  0.0747  0.0135
17974TIP3    H175413   4.506   5.575   1.105 -0.3443  0.5499  0.1375
17974TIP3    H275414   4.500   5.599   0.955 -0.0794 -0.4066 -0.0318
17975TIP3   OH275415   5.950   3.484  11.630  0.1324  0.5355  0.2292
17975TIP3    H175416   5.984   3.440  11.552  0.0891 -1.2927  1.1868
17975TIP3    H275417   6.028   3.509  11.679  0.2005  2.7733 -0.9038
17976TIP3   OH275418   5.253   5.306   1.368 -0.2586  0.5263 -0.6467
17976TIP3    H175419   5.259   5.393   1.327  1.1040  1.4507  1.3639
17976TIP3    H275420   5.227   5.248   1.296 -2.8851  2.8118 -1.7208
17977TIP3   OH275421   4.248   2.636  14.582 -0.4531  0.4028 -0.3928
17977TIP3    H175422   4.176   2.612  14.641 -1.6009  2.6418 -0.7663
17977TIP3    H275423   4.278   2.553  14.546 -2.5708 -0.6701  0.1171
17978TIP3   OH275424   5.987   6.740   4.278  0.0056 -0.5016  0.2733
17978TIP3    H175425   6.049   6.812   4.269 -0.0759 -0.3793  0.7218
17978TIP3    H275426   6.042   6.662   4.288  0.1285 -0.6981 -1.4852
17979TIP3   OH275427   0.970   5.115   2.074  0.1817 -0.5688  0.1375
17979TIP3    H175428   0.889   5.113   2.125 -0.0995 -0.6704 -0.3087
17979TIP3    H275429   1.028   5.171   2.125 -1.0668  1.7959 -0.8686
17980TIP3   OH275430   0.073   3.423  12.261 -0.3910  0.2190 -0.1284
17980TIP3    H175431   0.033   3.407  12.347 -0.0186 -0.4165 -0.0735
17980TIP3    H275432   0.053   3.515  12.243  0.5029  0.7035  1.1616
17981TIP3   OH275433   0.205   3.543   3.322 -0.1244 -0.0965  0.2519
17981TIP3    H175434   0.252   3.471   3.281 -0.0819 -0.3815  0.7906
17981TIP3    H275435   0.153   3.582   3.252 -0.4787 -0.9156  0.0504
17982TIP3   OH275436   3.973   5.431  15.306  0.7240  0.1641  0.2663
17982TIP3    H175437   3.996   5.352  15.257  0.5144 -0.1454  0.6669
17982TIP3    H275438   4.050   5.449  15.360 -0.2765 -1.4390  2.3496
17983TIP3   OH275439   4.154   3.676  16.394  0.4458 -0.0449  0.2775
17983TIP3    H175440   4.195   3.712  16.472 -0.7531  0.9642  0.4807
17983TIP3    H275441   4.172   3.740  16.325  1.7713 -1.0820 -0.3913
17984TIP3   OH275442   6.466   3.730   0.665 -0.3164 -0.6718 -0.3058
17984TIP3    H175443   6.508   3.768   0.742 -0.4855 -1.5968  0.2500
17984TIP3    H275444   6.537   3.687   0.618 -0.1046  0.4020 -0.9963
17985TIP3   OH275445   4.030   2.826   2.593  0.5336 -0.0342 -0.0119
17985TIP3    H175446   4.059   2.739   2.566  1.4976  0.4735 -0.6533
17985TIP3    H275447   3.983   2.811   2.675 -2.3101 -1.6115 -1.7758
17986TIP3   OH275448   5.064   0.292  14.157  0.4014  0.2866  0.2575
17986TIP3    H175449   4.984   0.344  14.152  0.2262  0.0699  0.7443
17986TIP3    H275450   5.045   0.215  14.103 -1.0992 -1.5472  3.1554
17987TIP3   OH275451   6.503   0.520   1.851 -0.2431 -0.0985 -0.3862
17987TIP3    H175452   6.491   0.508   1.945 -1.3683  0.3615 -0.4493
17987TIP3    H275453   6.480   0.612   1.836  0.3819 -0.0451 -1.0411
17988TIP3   OH275454   0.635   0.592  13.023  0.0859  0.0652 -0.4388
17988TIP3    H175455   0.619   0.667  12.966 -0.1428  1.2843  1.1470
17988TIP3    H275456   0.660   0.631  13.107  1.2862 -1.6621  0.0663
17989TIP3   OH275457   3.908   5.013  13.241  0.0089 -0.1575  0.2632
17989TIP3    H175458   3.888   5.089  13.295  1.5477 -0.2804  1.0724
17989TIP3    H275459   3.881   4.938  13.294 -0.7727 -0.2111 -0.1991
17990TIP3   OH275460   5.208   3.399  16.065  0.2433  0.0255 -0.2148
17990TIP3    H175461   5.230   3.308  16.042 -0.5800  0.4748 -3.2296
17990TIP3    H275462   5.263   3.452  16.007 -1.4388  1.3307 -0.7042
17991TIP3   OH275463   2.021   3.916  13.279  0.5171  0.0975 -0.1974
17991TIP3    H175464   2.058   3.999  13.310  1.5447 -0.9206  1.4501
17991TIP3    H275465   1.950   3.896  13.339  1.0388 -0.7808  0.1490
17992TIP3   OH275466   3.497   6.611  11.034 -0.1260 -0.0427 -0.9096
17992TIP3    H175467   3.480   6.546  10.966 -0.6429  0.0175 -0.8437
17992TIP3    H275468   3.420   6.667  11.032 -0.0689  0.0532 -0.3818
17993TIP3   OH275469   4.855   2.788  13.139 -0.0132 -0.3464 -0.0395
17993TIP3    H175470   4.904   2.714  13.177  0.8196  0.3341  0.2414
17993TIP3    H275471   4.848   2.766  13.046 -0.8910 -1.3847  0.2515
17994TIP3   OH275472   3.318   1.974   5.604 -0.2306 -0.1724  0.8025
17994TIP3    H175473   3.242   1.961   5.548 -0.7603  2.1218  0.8739
17994TIP3    H275474   3.288   2.038   5.669  1.4248 -0.1002  1.5298
17995TIP3   OH275475   5.342   2.238   4.949 -0.3104  0.3804  0.4276
17995TIP3    H175476   5.325   2.310   4.888 -1.0407  0.1872  0.3947
17995TIP3    H275477   5.437   2.223   4.943 -0.3690  0.3711 -0.6452
17996TIP3   OH275478   2.519   2.991   0.203 -0.1511  0.5569  0.4571
17996TIP3    H175479   2.436   2.966   0.163 -1.3984  1.6997  2.2158
17996TIP3    H275480   2.560   3.050   0.139 -0.9102  0.3793 -0.2082
17997TIP3   OH275481   1.237   5.585   3.874 -0.2980  0.1147 -0.6025
17997TIP3    H175482   1.232   5.613   3.783  0.2664  0.0313 -0.6638
17997TIP3    H275483   1.297   5.510   3.873  0.8867  1.0103  0.0308
17998TIP3   OH275484   6.324   5.394  15.415  0.3617  0.5421  0.3342
17998TIP3    H175485   6.277   5.477  15.418 -1.0520 -0.2505  1.0286
17998TIP3    H275486   6.388   5.405  15.344 -1.9755  1.0797 -1.8193
17999TIP3   OH275487   3.763   1.308   0.374  0.7092 -0.3845 -0.0558
17999TIP3    H175488   3.747   1.217   0.348 -0.8855  0.5254 -2.6201
17999TIP3    H275489   3.825   1.341   0.310  1.2166  0.3796  0.8032
18000TIP3   OH275490   1.212   2.805   2.044 -0.1309 -0.1945  0.5728
18000TIP3    H175491   1.268   2.738   2.005 -1.1700 -1.6105  1.4192
18000TIP3    H275492   1.188   2.862   1.970  1.6984 -0.0462  0.0537
18001TIP3   OH275493   2.101   1.696  11.667 -0.2767 -0.5279  0.5279
18001TIP3    H175494   2.058   1.613  11.651 -1.0828 -0.4026  1.8904
18001TIP3    H275495   2.134   1.690  11.757 -1.4032  1.0305  1.1055
18002TIP3   OH275496   4.514   0.634   4.640  0.2104  0.7700 -0.1522
18002TIP3    H175497   4.600   0.669   4.615  1.1838 -2.0596 -1.0958
18002TIP3    H275498   4.451   0.686   4.589  1.5657  1.0449 -1.6199
18003TIP3   OH275499   5.927   1.112   2.478 -0.4293  0.5340 -0.6986
18003TIP3    H175500   5.866   1.127   2.550  1.2349  1.9841  0.5119
18003TIP3    H275501   6.002   1.070   2.520  0.3181  0.8404 -1.7075
18004TIP3   OH275502   4.354   6.190  12.390 -0.0484 -0.3704 -0.4539
18004TIP3    H175503   4.285   6.124  12.385 -0.5404  0.1564 -0.8076
18004TIP3    H275504   4.429   6.151  12.345 -0.9008 -0.0147 -2.2458
18005TIP3   OH275505   1.929   2.957  11.434 -0.0946 -0.9182  0.1372
18005TIP3    H175506   1.896   2.999  11.355 -0.7057 -0.5676  0.5667
18005TIP3    H275507   1.908   3.019  11.504 -1.4946 -2.1344  0.8644
18006TIP3   OH275508   6.030   5.935   3.368  0.0085 -0.4355  0.5861
18006TIP3    H175509   5.966   6.001   3.343 -0.8467 -1.1121  0.9553
18006TIP3    H275510   6.110   5.960   3.321 -0.3269  0.7922  0.6362
18007TIP3   OH275511   3.681   4.969   5.750 -0.5155  0.3676  0.1510
18007TIP3    H175512   3.680   4.978   5.845  0.0587 -0.3239  0.2266
18007TIP3    H275513   3.716   4.881   5.734 -0.9136  0.3479 -0.6894
18008TIP3   OH275514   0.343   1.534  14.822 -0.0029 -0.0361  0.0249
18008TIP3    H175515   0.427   1.575  14.802  0.6785 -0.9142  0.9968
18008TIP3    H275516   0.311   1.503  14.738  0.4650  0.6178 -0.4113
18009TIP3   OH275517   4.056   0.341  11.189 -0.0402 -0.3127 -0.2641
18009TIP3    H175518   4.080   0.401  11.118 -0.4253 -0.4297 -0.4981
18009TIP3    H275519   4.043   0.397  11.265 -0.2363 -0.1159 -0.4413
18010TIP3   OH275520   4.163   1.866   1.822 -0.2568 -0.0186  0.3289
18010TIP3    H175521   4.152   1.798   1.755 -0.5865 -0.4883  0.8491
18010TIP3    H275522   4.234   1.834   1.877 -0.9897 -0.3684  1.0864
18011TIP3   OH275523   1.164   5.858  12.476  0.1342  0.2283 -0.4002
18011TIP3    H175524   1.186   5.766  12.482 -2.2238 -0.3660  0.3187
18011TIP3    H275525   1.111   5.876  12.554 -1.4319  1.5471 -1.6845
18012TIP3   OH275526   0.775   2.509   4.656 -0.5096  0.1511 -0.0272
18012TIP3    H175527   0.824   2.429   4.637  0.7480  0.7996  0.3696
18012TIP3    H275528   0.822   2.549   4.729 -2.5053  0.0872  1.3570
18013TIP3   OH275529   2.707   2.648  11.599  0.4466 -0.3215  0.5135
18013TIP3    H175530   2.616   2.646  11.628  0.4318 -1.0457  0.4500
18013TIP3    H275531   2.744   2.566  11.631  0.8919 -0.3465 -0.0389
18014TIP3   OH275532   2.527   6.733   4.541  0.8260  0.0683 -0.1762
18014TIP3    H175533   2.613   6.747   4.581  1.4502  0.9295 -1.7152
18014TIP3    H275534   2.474   6.806   4.573 -0.1853 -1.7905  2.7745
18015TIP3   OH275535   1.278   0.897   1.327 -0.2293  0.4378  0.0742
18015TIP3    H175536   1.265   0.991   1.337 -0.6730  0.4033 -0.1542
18015TIP3    H275537   1.219   0.858   1.392 -1.2534  0.2813 -0.9137
18016TIP3   OH275538   4.721   3.431  13.090  0.2578 -0.1943 -0.0217
18016TIP3    H175539   4.806   3.392  13.068 -0.3035 -1.1819 -0.5528
18016TIP3    H275540   4.719   3.513  13.040  0.7592 -0.3330 -0.2813
18017TIP3   OH275541   2.759   0.464  11.721  0.2215 -0.4918  0.0556
18017TIP3    H175542   2.732   0.387  11.671 -1.5629 -0.5118  0.9426
18017TIP3    H275543   2.834   0.499  11.674  1.2196 -2.8734 -0.2521
18018TIP3   OH275544   3.620   2.122  10.922  0.3552  0.3781  0.1180
18018TIP3    H175545   3.654   2.089  11.005  0.5149  1.7497  0.6192
18018TIP3    H275546   3.537   2.075  10.909 -0.5046  1.3054  1.9052
18019TIP3   OH275547   0.952   5.110   0.559 -0.2737  0.4310  0.1902
18019TIP3    H175548   0.987   5.187   0.513 -0.9396  1.7905  1.8496
18019TIP3    H275549   1.019   5.043   0.547  0.3699  1.2741 -1.2494
18020TIP3   OH275550   0.287   3.534   5.707 -0.4575 -1.0228 -0.3616
18020TIP3    H175551   0.347   3.600   5.671 -1.7583 -0.5163 -1.7100
18020TIP3    H275552   0.258   3.572   5.790 -0.5443 -0.2721 -0.7211
18021TIP3   OH275553   3.679   0.755  10.734  0.4654  0.0491 -0.2441
18021TIP3    H175554   3.687   0.660  10.719 -1.1246 -0.1101 -0.2438
18021TIP3    H275555   3.714   0.795  10.655  0.9998 -0.5315 -0.3108
18022TIP3   OH275556   0.814   5.542   2.033 -0.5295  0.3328  0.0928
18022TIP3    H175557   0.785   5.459   1.996  0.8795  0.2887 -0.9899
18022TIP3    H275558   0.815   5.603   1.959 -1.3108  1.2741  0.8220
18023TIP3   OH275559   0.525   6.320   2.043  0.0763 -0.3016  0.2374
18023TIP3    H175560   0.476   6.376   2.104  0.9235  0.6002  0.1205
18023TIP3    H275561   0.474   6.323   1.962  1.5306  2.6917 -0.6946
18024TIP3   OH275562   0.359   1.751   6.228 -0.3330  0.5304  0.2353
18024TIP3    H175563   0.425   1.806   6.186  0.7837 -1.6319 -0.9693
18024TIP3    H275564   0.409   1.683   6.273 -1.6919  0.0948  1.1493
18025TIP3   OH275565   4.996   5.948  11.346 -0.4352  0.1151 -0.1090
18025TIP3    H175566   5.038   5.992  11.273  0.6908  2.2457  1.7160
18025TIP3    H275567   4.903   5.949  11.325 -0.2423  1.7183 -1.0020
18026TIP3   OH275568   0.650   1.730   3.156 -0.4143  0.3150  0.4301
18026TIP3    H175569   0.668   1.812   3.202  0.0304 -0.4232  1.6275
18026TIP3    H275570   0.669   1.749   3.065  1.1728  1.1190  0.8932
18027TIP3   OH275571   0.463   3.991   2.669 -0.4706 -0.4397 -0.0093
18027TIP3    H175572   0.540   4.020   2.621 -1.2264  1.7756 -0.0249
18027TIP3    H275573   0.490   3.991   2.760 -0.3462  0.0426 -0.0419
18028TIP3   OH275574   2.002   1.868   0.568 -0.5291  0.1045  0.0849
18028TIP3    H175575   1.947   1.806   0.616 -0.6086  0.4607  0.4540
18028TIP3    H275576   2.010   1.830   0.480 -0.9860 -0.1780  0.1644
18029TIP3   OH275577   4.297   0.967   1.044 -0.2510 -0.0085 -0.2171
18029TIP3    H175578   4.281   0.910   0.969  0.1109 -0.3672 -0.0253
18029TIP3    H275579   4.263   0.919   1.119 -1.4905  0.7567 -0.2525
18030TIP3   OH275580   1.636   2.649   4.335 -0.0326 -0.1342 -0.2063
18030TIP3    H175581   1.659   2.685   4.249 -0.1984 -1.0013 -0.6253
18030TIP3    H275582   1.614   2.557   4.318 -0.2996 -0.2592  0.7283
18031TIP3   OH275583   6.625   2.867  12.260 -0.0520 -0.7293  0.2821
18031TIP3    H175584   6.592   2.915  12.184  1.1289 -1.3538 -0.6600
18031TIP3    H275585   6.578   2.905  12.334 -3.6355 -2.2367 -1.0079
18032TIP3   OH275586   5.656   6.202  16.619 -0.2175 -0.3495  0.0496
18032TIP3    H175587   5.661   6.287  16.576  0.1831 -0.1787  0.4256
18032TIP3    H275588   5.671   6.221  16.711 -0.0824 -0.8343  0.1319
18033TIP3   OH275589   4.739   4.087   3.141  0.2496  0.0483 -0.5971
18033TIP3    H175590   4.655   4.124   3.169  1.0809  2.9068 -1.5047
18033TIP3    H275591   4.795   4.094   3.218 -0.2825 -1.9152  0.0269
18034TIP3   OH275592   3.069   5.639  12.671  0.3972  0.4573 -0.1504
18034TIP3    H175593   2.999   5.579  12.699  1.5749 -1.3021 -0.7923
18034TIP3    H275594   3.101   5.677  12.753  0.8403 -1.2348  0.5179
18035TIP3   OH275595   6.271   3.845   3.323  0.2006  0.1731 -0.2900
18035TIP3    H175596   6.200   3.856   3.386  0.2629 -0.1891 -0.1491
18035TIP3    H275597   6.231   3.860   3.238 -0.4651 -1.6980 -0.3603
18036TIP3   OH275598   2.742   1.498   5.634  0.0287 -0.3502  0.5305
18036TIP3    H175599   2.754   1.452   5.718 -0.6776  0.3635  1.0389
18036TIP3    H275600   2.776   1.586   5.651  0.0927 -0.2710 -0.0130
18037TIP3   OH275601   2.876   4.978   1.146 -0.4570 -0.3611 -0.2397
18037TIP3    H175602   2.785   4.985   1.173  0.2455  0.2937  2.2023
18037TIP3    H275603   2.903   4.891   1.174  0.2941  0.3345  1.2925
18038TIP3   OH275604   2.554   5.443  13.519  0.4820  0.1404  0.2608
18038TIP3    H175605   2.524   5.370  13.464  0.3257  0.7637 -0.5013
18038TIP3    H275606   2.476   5.497  13.532  0.9072  0.9528 -0.4418
18039TIP3   OH275607   1.927   3.732   4.131 -0.4419 -0.0444 -0.1897
18039TIP3    H175608   1.969   3.652   4.164 -3.2317 -1.4910  0.1153
18039TIP3    H275609   1.924   3.790   4.207 -0.1879 -0.4158  0.1110
18040TIP3   OH275610   3.533   0.994  15.887  0.0908  0.4104 -0.6969
18040TIP3    H175611   3.590   1.067  15.865  0.6559  0.6572  1.4026
18040TIP3    H275612   3.593   0.921  15.903 -0.4386 -0.4185 -2.2654
18041TIP3   OH275613   3.849   6.585  11.966 -0.7229 -0.0970  0.0686
18041TIP3    H175614   3.914   6.653  11.981 -1.6560  0.7212  0.5478
18041TIP3    H275615   3.873   6.515  12.028  0.0363 -0.0712 -0.1853
18042TIP3   OH275616   1.604   0.394   2.890 -0.4601  0.0512  0.2458
18042TIP3    H175617   1.639   0.406   2.978 -0.0702  1.2535 -0.0634
18042TIP3    H275618   1.550   0.471   2.874 -0.1231  0.0995 -0.7622
18043TIP3   OH275619   5.863   5.241  16.588  0.0092 -0.2663 -0.5704
18043TIP3    H175620   5.776   5.273  16.566  0.2950 -0.0286 -1.3744
18043TIP3    H275621   5.848   5.161  16.637 -0.6786  0.2359  0.0630
18044TIP3   OH275622   6.085   6.451   3.631  0.0921  0.2230 -0.2384
18044TIP3    H175623   6.102   6.543   3.650 -1.1571  0.7817 -1.6251
18044TIP3    H275624   6.140   6.431   3.555 -0.0549 -0.0167 -0.2846
18045TIP3   OH275625   0.912   3.547   4.670 -0.2456 -0.5095 -0.6211
18045TIP3    H175626   0.968   3.484   4.716  1.8407  1.4533 -0.2846
18045TIP3    H275627   0.857   3.584   4.739  0.1438 -0.3253 -0.4089
18046TIP3   OH275628   2.341   6.137  12.451  0.2402  0.0640 -0.0012
18046TIP3    H175629   2.397   6.177  12.385  0.5236  0.7800  0.6556
18046TIP3    H275630   2.335   6.202  12.521  0.0321 -0.7109  0.7283
18047TIP3   OH275631   0.881   4.572  15.397 -0.4413 -0.3872  0.6197
18047TIP3    H175632   0.802   4.617  15.427  0.2670  1.8610 -0.6353
18047TIP3    H275633   0.944   4.642  15.381  1.9135 -2.1036  1.7122
18048TIP3   OH275634   6.101   4.762  12.860 -0.4736  0.1467 -0.1275
18048TIP3    H175635   6.108   4.748  12.955 -0.6603 -1.4538 -0.3179
18048TIP3    H275636   6.124   4.854  12.848  2.9639 -0.4131  1.0920
18049TIP3   OH275637   4.226   6.246   2.990 -0.2234  0.3457 -0.2895
18049TIP3    H175638   4.208   6.339   3.008  0.0835  0.1396  1.2576
18049TIP3    H275639   4.302   6.247   2.932  0.4870  1.0637  0.6275
18050TIP3   OH275640   1.012   6.428  14.660 -0.0693 -0.4152 -0.5638
18050TIP3    H175641   1.022   6.520  14.684  0.3000 -0.8230  0.9549
18050TIP3    H275642   1.082   6.383  14.708 -0.7202 -1.5774 -0.6728
18051TIP3   OH275643   4.623   4.324   0.207  0.2140 -0.1467 -0.3915
18051TIP3    H175644   4.599   4.409   0.243 -1.7067  0.1525 -2.1548
18051TIP3    H275645   4.705   4.341   0.159  0.2907  0.5078 -0.0402
18052TIP3   OH275646   3.496   5.538  16.406  0.3453 -0.5614  0.5536
18052TIP3    H175647   3.459   5.500  16.486 -0.8992  0.5802  0.5449
18052TIP3    H275648   3.425   5.533  16.342  0.2674  1.3618  0.4312
18053TIP3   OH275649   0.708   4.971  11.899  0.4693  0.0033  0.1615
18053TIP3    H175650   0.632   4.918  11.879  0.4132  0.0722  0.1922
18053TIP3    H275651   0.673   5.058  11.919  0.5097 -0.1170  0.7637
18054TIP3   OH275652   5.977   3.899  15.410  0.4525  0.5382 -0.4431
18054TIP3    H175653   6.046   3.836  15.424 -0.2355 -0.1184  0.0639
18054TIP3    H275654   5.983   3.922  15.317  1.6896  0.9239 -0.2821
18055TIP3   OH275655   5.847   0.279   4.558  0.2028 -0.6854 -0.0155
18055TIP3    H175656   5.828   0.335   4.633  1.2437 -0.7252  0.2956
18055TIP3    H275657   5.773   0.291   4.498  0.7472  1.5985 -0.3005
18056TIP3   OH275658   4.345   6.417  11.047  0.1585 -0.4055 -0.1381
18056TIP3    H175659   4.428   6.374  11.069 -0.0752 -0.3950  0.8240
18056TIP3    H275660   4.342   6.416  10.951  0.8268 -1.2514 -0.1662
18057TIP3   OH275661   5.661   2.771  11.820 -0.4220 -0.0197 -0.0912
18057TIP3    H175662   5.645   2.860  11.789  2.3471  0.8376  0.6524
18057TIP3    H275663   5.738   2.779  11.876 -0.7305 -2.7359  0.8464
18058TIP3   OH275664   4.815   3.509  12.702 -0.3882 -0.1243 -0.7784
18058TIP3    H175665   4.842   3.547  12.618  1.8422  2.3584  0.9062
18058TIP3    H275666   4.880   3.441  12.719 -0.0608  0.2690 -0.4606
18059TIP3   OH275667   6.819   6.686  17.074  0.1185 -0.5376 -0.4796
18059TIP3    H175668   6.873   6.734  17.012  0.8608 -2.7499 -1.6666
18059TIP3    H275669   6.881   6.643  17.133 -0.3550 -1.8711 -0.9011
18060TIP3   OH275670   0.502   0.854  17.194 -0.1353  0.3677  0.5273
18060TIP3    H175671   0.533   0.940  17.165 -2.9519  1.6647  1.0309
18060TIP3    H275672   0.413   0.870  17.227 -1.1078 -2.8884 -0.1297
18061TIP3   OH275673   1.731   5.192   6.476 -0.1397  0.3430 -0.1458
18061TIP3    H175674   1.799   5.224   6.535  0.9713  0.2596 -1.3233
18061TIP3    H275675   1.693   5.116   6.521  0.0416  0.8337  0.8499
18062TIP3   OH275676   6.198   5.017   2.489  0.3781  0.2130 -0.5036
18062TIP3    H175677   6.233   5.103   2.511 -0.4246  1.0304 -2.2241
18062TIP3    H275678   6.230   4.999   2.401  1.9060 -2.0459  0.4276
18063TIP3   OH275679   1.502   6.294  11.450 -0.7935 -0.1508 -0.1732
18063TIP3    H175680   1.472   6.379  11.419 -0.7538  0.5340  1.5885
18063TIP3    H275681   1.586   6.311  11.491 -0.2772 -1.2329 -0.7429
18064TIP3   OH275682   6.174   3.122  17.106 -0.0051  0.4762 -0.0658
18064TIP3    H175683   6.175   3.059  17.034 -1.6640 -0.0074  0.2846
18064TIP3    H275684   6.103   3.183  17.083 -0.1587  0.6663  0.8588
18065TIP3   OH275685   6.230   4.890   1.699  0.0739 -0.1003 -0.0007
18065TIP3    H175686   6.310   4.891   1.751 -0.2996 -0.0056  0.5836
18065TIP3    H275687   6.258   4.861   1.613  0.6809 -0.4030  0.2904
18066TIP3   OH275688   2.576   5.962   3.779 -0.0884 -0.5408  0.0079
18066TIP3    H175689   2.492   6.008   3.767 -0.0090 -0.2295  0.5887
18066TIP3    H275690   2.626   5.982   3.700 -0.5821 -0.7751 -0.3685
18067TIP3   OH275691   6.387   4.361   6.003  0.5130 -0.3436 -0.1639
18067TIP3    H175692   6.414   4.359   5.911 -0.0609  0.7185 -0.3779
18067TIP3    H275693   6.381   4.269   6.029  1.6415 -0.6432 -0.8939
18068TIP3   OH275694   3.990   2.216   2.625  0.6628  0.2991  0.1576
18068TIP3    H175695   3.907   2.238   2.583  0.6145  0.3468  0.2766
18068TIP3    H275696   3.970   2.140   2.680  0.4345  0.9821  1.0405
18069TIP3   OH275697   5.477   5.821  10.403 -0.2849 -0.0603 -0.0607
18069TIP3    H175698   5.415   5.892  10.414 -0.7763 -0.6775  1.4272
18069TIP3    H275699   5.563   5.864  10.401 -0.6487  0.6588 -0.3437
18070TIP3   OH275700   3.159   4.096   5.741  0.0285  0.0804 -0.0294
18070TIP3    H175701   3.152   4.012   5.695  0.2629  0.1519 -0.1904
18070TIP3    H275702   3.074   4.104   5.786 -0.7940  0.7118 -1.6183
18071TIP3   OH275703   0.929   1.334   2.968  0.2815 -0.3320  0.4460
18071TIP3    H175704   0.867   1.365   3.034 -1.1308 -1.5458 -0.2570
18071TIP3    H275705   0.878   1.331   2.887  1.0465 -2.0518 -0.0176
18072TIP3   OH275706   6.419   3.275  15.830 -0.7354 -0.2480 -0.3099
18072TIP3    H175707   6.453   3.250  15.744 -0.3330 -0.1501 -0.1828
18072TIP3    H275708   6.485   3.336  15.865 -2.4519  2.3796 -1.3105
18073TIP3   OH275709   6.365   2.922   3.251 -0.0854  0.1894 -0.3124
18073TIP3    H175710   6.405   2.934   3.165  1.4365  0.1209  0.3637
18073TIP3    H275711   6.426   2.963   3.312 -1.1416  0.2367  0.7484
18074TIP3   OH275712   2.685   5.721   3.465  0.2631  0.9805 -0.7374
18074TIP3    H175713   2.739   5.793   3.496 -0.4426  0.1272  2.9354
18074TIP3    H275714   2.599   5.736   3.504  0.2334 -2.0039  0.6919
18075TIP3   OH275715   3.567   5.674  13.922 -0.1816  0.1678 -0.5225
18075TIP3    H175716   3.580   5.648  13.831 -1.6683 -0.1362 -0.6833
18075TIP3    H275717   3.539   5.765  13.916 -0.3027  0.1403 -0.3812
18076TIP3   OH275718   2.969   2.195   1.243  0.1046  0.2992  0.4727
18076TIP3    H175719   2.888   2.235   1.211  1.7904  2.6830 -1.1712
18076TIP3    H275720   2.995   2.136   1.172 -0.4942 -1.0457  1.3228
18077TIP3   OH275721   3.457   2.661  14.545  0.2857  0.5065 -0.5907
18077TIP3    H175722   3.391   2.686  14.610  0.6049  1.3516 -0.5715
18077TIP3    H275723   3.407   2.645  14.465  0.0111  0.7763 -0.4764
18078TIP3   OH275724   6.667   3.513  11.580 -0.1746  0.6835  0.6399
18078TIP3    H175725   6.634   3.481  11.664  0.0020  2.7682  1.5740
18078TIP3    H275726   6.648   3.607  11.581  1.0764  1.0118 -1.0621
18079TIP3   OH275727   0.287   5.810   4.392 -0.2464 -0.7113 -0.2897
18079TIP3    H175728   0.249   5.725   4.416 -1.8896  0.7594  2.8516
18079TIP3    H275729   0.233   5.839   4.318 -1.2527 -1.3775  0.1525
18080TIP3   OH275730   1.549   1.205   0.485  0.8144  0.8145 -0.1904
18080TIP3    H175731   1.539   1.150   0.563  0.4428  1.7419  0.4393
18080TIP3    H275732   1.627   1.171   0.441  1.9054  1.1720  1.3795
18081TIP3   OH275733   5.828   1.855  12.878  0.3470  0.0326  0.1733
18081TIP3    H175734   5.901   1.849  12.939  1.1397 -0.5465 -0.8006
18081TIP3    H275735   5.845   1.934  12.827 -0.9500  1.1953  1.4679
18082TIP3   OH275736   4.233   5.996   4.952 -0.1722 -0.2076  0.6436
18082TIP3    H175737   4.267   6.018   5.038  0.8097 -0.5267  0.3481
18082TIP3    H275738   4.151   6.046   4.945 -0.1170  0.0398  1.6385
18083TIP3   OH275739   6.700   5.721  12.840  0.1711  0.0385  0.1024
18083TIP3    H175740   6.684   5.792  12.901  0.7576 -0.2637  0.6111
18083TIP3    H275741   6.753   5.658  12.889 -0.4403 -0.8062 -0.3007
18084TIP3   OH275742   5.925   4.844  15.342 -0.0384  0.3281  0.3490
18084TIP3    H175743   5.996   4.849  15.279 -0.1398  0.4839  0.2455
18084TIP3    H275744   5.930   4.755  15.377 -0.1822  0.1339 -0.1131
18085TIP3   OH275745   4.813   3.317   2.969  0.2011 -0.1187 -0.4239
18085TIP3    H175746   4.810   3.412   2.962 -1.0282 -0.1657 -0.6849
18085TIP3    H275747   4.757   3.285   2.898 -1.5640 -0.9383  1.2357
18086TIP3   OH275748   2.051   2.994  15.232  0.4360  0.1747  0.1299
18086TIP3    H175749   2.137   3.004  15.192  1.1637  3.6511  2.1804
18086TIP3    H275750   2.064   3.017  15.324 -2.3762 -1.0448  0.9601
18087TIP3   OH275751   6.420   5.322   2.721  0.0531  0.8318  0.1256
18087TIP3    H175752   6.476   5.364   2.786 -1.1100 -1.0718  2.5098
18087TIP3    H275753   6.479   5.265   2.671  0.5552  0.1711  1.4365
18088TIP3   OH275754   1.301   3.810  16.402 -0.9719  0.3466  0.2135
18088TIP3    H175755   1.382   3.771  16.370 -0.2269 -0.6044  2.9821
18088TIP3    H275756   1.269   3.863  16.329  1.5689 -0.0932 -1.3263
18089TIP3   OH275757   2.024   6.768   2.577 -0.0674 -0.0539 -0.3508
18089TIP3    H175758   2.063   6.681   2.569 -0.6902 -0.3424 -0.3005
18089TIP3    H275759   1.931   6.752   2.588 -0.6116  0.6877 -3.1731
18090TIP3   OH275760   6.152   5.505   5.643  0.0643  0.1618  0.5488
18090TIP3    H175761   6.119   5.432   5.695  0.2297  0.2286  0.7488
18090TIP3    H275762   6.108   5.582   5.679  1.6109  0.4734  1.8930
18091TIP3   OH275763   4.040   1.545  14.789 -0.0923 -0.3650 -0.2532
18091TIP3    H175764   4.054   1.476  14.724 -0.1385 -0.2766 -0.3569
18091TIP3    H275765   3.976   1.604  14.749  0.8032  0.3627 -0.6543
18092TIP3   OH275766   5.926   6.687  12.379 -0.1325 -0.1412  0.6036
18092TIP3    H175767   5.959   6.719  12.295  2.6894 -0.9177  1.3196
18092TIP3    H275768   5.968   6.742  12.444 -2.2255  0.4018  1.5950
18093TIP3   OH275769   2.058   2.834  14.326  0.1191  0.7513  0.2675
18093TIP3    H175770   2.028   2.791  14.406  0.1967 -2.1706 -1.1495
18093TIP3    H275771   1.981   2.883  14.295 -1.4963 -1.9479 -0.2740
18094TIP3   OH275772   3.634   0.268  14.383 -0.5040  0.1036  0.4519
18094TIP3    H175773   3.718   0.272  14.338 -0.1908  1.0552  1.0683
18094TIP3    H275774   3.646   0.201  14.451 -0.5143 -0.3310  0.0256
18095TIP3   OH275775   3.720   0.457  14.634 -0.1779  0.0291 -0.3443
18095TIP3    H175776   3.729   0.362  14.631  2.1313  0.2078 -2.1099
18095TIP3    H275777   3.674   0.480  14.554  2.2261  0.5270 -1.6904
18096TIP3   OH275778   2.198   5.175  11.964 -0.4886  0.1747  0.5689
18096TIP3    H175779   2.114   5.134  11.986 -0.7667  0.2435 -0.3360
18096TIP3    H275780   2.190   5.200  11.872 -0.9261  3.6713  1.4013
18097TIP3   OH275781   3.628   2.489  13.258 -0.4084  0.2453  0.2469
18097TIP3    H175782   3.587   2.463  13.340 -1.5110  0.9258 -0.0689
18097TIP3    H275783   3.713   2.445  13.258 -0.5673 -0.0797  1.5578
18098TIP3   OH275784   1.769   1.126  10.894  0.3568  0.7239 -0.1977
18098TIP3    H175785   1.755   1.125  10.799  1.1170 -1.1184 -0.3253
18098TIP3    H275786   1.682   1.138  10.931 -0.4044 -1.4533 -1.0995
18099TIP3   OH275787   1.399   5.435   5.029  0.2807 -0.2623  0.2668
18099TIP3    H175788   1.392   5.375   4.955  1.9528 -0.2284  0.0448
18099TIP3    H275789   1.360   5.387   5.103 -0.5265 -0.6664 -0.4034
18100TIP3   OH275790   6.597   1.562   4.489  0.0537 -0.2552 -0.6075
18100TIP3    H175791   6.503   1.550   4.497  0.1613  0.2952  3.0228
18100TIP3    H275792   6.611   1.655   4.503  1.1219 -0.2432 -1.6275
18101TIP3   OH275793   1.533   4.640   4.841  0.6670  0.1166  0.2144
18101TIP3    H175794   1.624   4.642   4.810  1.4963 -0.6950  2.4058
18101TIP3    H275795   1.531   4.705   4.911 -0.5200  0.2607  0.0638
18102TIP3   OH275796   3.615   1.248  10.943  0.3344  0.1583 -0.7232
18102TIP3    H175797   3.567   1.308  10.885  1.8233  0.4627 -1.7050
18102TIP3    H275798   3.586   1.161  10.916 -3.1772  0.2914  1.8637
18103TIP3   OH275799   1.736   5.681  10.673 -0.1958  0.0872 -0.2397
18103TIP3    H175800   1.740   5.760  10.618 -0.7471 -1.2476 -2.3281
18103TIP3    H275801   1.777   5.707  10.755 -1.4835  2.9182 -0.3601
18104TIP3   OH275802   5.590   2.687   0.366 -0.2224  0.1913  0.3681
18104TIP3    H175803   5.550   2.746   0.429  0.8332  1.3633 -0.0052
18104TIP3    H275804   5.533   2.610   0.364 -0.7434  0.5011  2.0771
18105TIP3   OH275805   5.464   5.182  13.197  0.4135 -0.3829  0.0380
18105TIP3    H175806   5.557   5.183  13.176  0.3056 -0.1288 -0.4299
18105TIP3    H275807   5.426   5.118  13.135  0.6555 -2.4201  1.8562
18106TIP3   OH275808   1.858   1.357   0.279 -0.0159 -0.0454  0.1392
18106TIP3    H175809   1.920   1.378   0.348  0.5924 -0.5424 -0.2477
18106TIP3    H275810   1.778   1.403   0.304 -0.6741 -2.2235  2.6085
18107TIP3   OH275811   5.876   4.595  15.411 -0.2257  0.3230  0.7071
18107TIP3    H175812   5.899   4.535  15.482 -1.0102  0.5098  1.1304
18107TIP3    H275813   5.924   4.561  15.335 -0.0896 -0.4167  1.1112
18108TIP3   OH275814   4.607   2.479   4.749  0.9958 -0.0799 -0.2296
18108TIP3    H175815   4.568   2.394   4.729  0.2764  0.3079 -0.4980
18108TIP3    H275816   4.626   2.475   4.843 -0.8724  0.1666  0.1988
18109TIP3   OH275817   1.135   4.283  16.259 -0.3902  0.0891 -0.0275
18109TIP3    H175818   1.178   4.288  16.174  0.7187 -4.2914  0.0442
18109TIP3    H275819   1.204   4.302  16.322 -1.0405  2.5853  0.0472
18110TIP3   OH275820   1.637   0.710  13.421  0.4005 -0.7678  0.0427
18110TIP3    H175821   1.724   0.671  13.417 -0.1899 -2.1774  0.0691
18110TIP3    H275822   1.602   0.683  13.506 -0.1363 -0.3960 -0.0524
18111TIP3   OH275823   0.639   0.200   0.418  0.0389  0.1603 -0.4223
18111TIP3    H175824   0.691   0.233   0.491 -1.1092  1.1142  0.0021
18111TIP3    H275825   0.596   0.278   0.383 -2.3204 -0.7543  0.2427
18112TIP3   OH275826   0.226   3.329   4.000 -0.0036  0.5978 -0.0051
18112TIP3    H175827   0.180   3.283   3.929  1.3619 -0.6865 -0.1018
18112TIP3    H275828   0.300   3.272   4.022  0.3006  1.5566  1.6335
18113TIP3   OH275829   6.366   6.506  16.757 -0.7533  0.1736 -0.1538
18113TIP3    H175830   6.419   6.576  16.719  1.2989  0.1449  2.3437
18113TIP3    H275831   6.355   6.443  16.687  1.5179  0.7988 -1.1662
18114TIP3   OH275832   1.649   3.983   0.800  0.2760  0.0342 -0.0778
18114TIP3    H175833   1.633   3.890   0.784  1.4191 -0.1948  0.0269
18114TIP3    H275834   1.598   4.004   0.878  1.0219 -0.8208  0.6439
18115TIP3   OH275835   2.449   0.358  11.804 -0.2582  0.6526  0.1340
18115TIP3    H175836   2.455   0.402  11.719 -0.3725 -0.1521 -0.2971
18115TIP3    H275837   2.462   0.265  11.784 -0.4481  0.4406  0.9746
18116TIP3   OH275838   5.206   2.541  11.261  0.0582  0.3187 -1.0654
18116TIP3    H175839   5.201   2.526  11.356 -2.1717  1.4610 -0.9113
18116TIP3    H275840   5.279   2.602  11.251  0.4656  0.0150 -0.1105
18117TIP3   OH275841   1.863   1.011   2.878  0.0414  0.5371  0.4342
18117TIP3    H175842   1.921   0.941   2.847 -0.2238  0.2822  0.5032
18117TIP3    H275843   1.893   1.089   2.832  0.8983  0.5632  1.0163
18118TIP3   OH275844   2.335   3.003  14.169  0.6702  0.3013  0.4177
18118TIP3    H175845   2.316   2.953  14.248  1.8259 -2.2554 -0.8213
18118TIP3    H275846   2.415   2.964  14.134  1.7944  3.1792 -0.5898
18119TIP3   OH275847   1.213   4.328   4.408  0.1100  0.1646  0.5364
18119TIP3    H175848   1.147   4.380   4.453 -1.7403  1.3411 -3.1608
18119TIP3    H275849   1.178   4.239   4.409  0.0866  0.1793  1.3744
18120TIP3   OH275850   3.618   1.787  16.376  0.1752  0.1308  0.0782
18120TIP3    H175851   3.586   1.819  16.461  1.2392  3.3717 -0.6005
18120TIP3    H275852   3.543   1.794  16.318  0.5679  2.5559 -0.2606
18121TIP3   OH275853   1.123   5.314  16.339 -0.0322 -0.7297 -0.1948
18121TIP3    H175854   1.039   5.313  16.293  0.2446 -0.2940 -0.7232
18121TIP3    H275855   1.148   5.222  16.346 -0.3084 -0.8310 -0.5012
18122TIP3   OH275856   2.105   5.754   0.258  0.5228 -0.0571  0.7207
18122TIP3    H175857   2.073   5.679   0.307  0.1156 -0.0229  0.5128
18122TIP3    H275858   2.118   5.720   0.169 -1.2367  0.5067  0.2213
18123TIP3   OH275859   4.376   2.282   3.046 -0.3804 -0.3380  0.1748
18123TIP3    H175860   4.346   2.192   3.062  0.2403 -0.6574 -0.3859
18123TIP3    H275861   4.440   2.273   2.976  0.2035  0.4609  0.5963
18124TIP3   OH275862   6.793   4.758   3.910 -0.0219 -0.2672  0.2855
18124TIP3    H175863   6.770   4.765   4.003  0.7158 -1.2377  0.5607
18124TIP3    H275864   6.767   4.670   3.886  2.4777 -1.1176  0.3894
18125TIP3   OH275865   0.529   3.293   2.976  0.0700  0.4656 -0.0041
18125TIP3    H175866   0.498   3.210   2.940 -0.3119  0.8428 -0.5800
18125TIP3    H275867   0.515   3.356   2.905 -1.4054  1.3945  1.0447
18126TIP3   OH275868   1.908   0.679   0.555  0.2129 -0.1262  0.5335
18126TIP3    H175869   1.908   0.740   0.481 -2.5392  0.6493  1.0686
18126TIP3    H275870   1.966   0.720   0.619 -0.5340  1.3048  0.3498
18127TIP3   OH275871   1.545   1.520   3.334  0.0803 -0.2557  0.1082
18127TIP3    H175872   1.456   1.513   3.298  0.2087  1.0648 -0.5533
18127TIP3    H275873   1.532   1.555   3.422 -0.0502  0.4333 -0.1753
18128TIP3   OH275874   1.746   2.523  13.002  0.4732  0.5790  0.5006
18128TIP3    H175875   1.834   2.559  13.012  1.1373 -1.1278  1.1289
18128TIP3    H275876   1.742   2.494  12.911  0.6476  0.4531  0.5321
18129TIP3   OH275877   1.293   3.978   1.734 -0.1381 -0.1419  0.2665
18129TIP3    H175878   1.352   3.981   1.659 -2.2758  0.2406 -1.5155
18129TIP3    H275879   1.206   3.969   1.696 -1.5456  2.0303  2.5834
18130TIP3   OH275880   0.673   2.572  16.247  0.1975  0.1181  0.5624
18130TIP3    H175881   0.753   2.557  16.297  1.0958 -1.8185 -1.2769
18130TIP3    H275882   0.604   2.582  16.313  1.6329 -0.1655  2.1683
18131TIP3   OH275883   4.625   1.999   4.363  0.1119  0.0598  0.6453
18131TIP3    H175884   4.562   1.933   4.392  1.5251 -1.1756  0.9918
18131TIP3    H275885   4.630   1.988   4.268 -1.7401  1.6251  0.2838
18132TIP3   OH275886   4.836   0.776  14.852 -0.2634 -0.0892 -0.4699
18132TIP3    H175887   4.875   0.825  14.925 -0.7894 -0.3297 -0.0219
18132TIP3    H275888   4.784   0.708  14.894 -0.7421 -0.0981 -1.0704
18133TIP3   OH275889   1.775   5.133   1.072  0.1387  0.3709  0.0226
18133TIP3    H175890   1.690   5.176   1.081  0.5067  1.6246 -1.9078
18133TIP3    H275891   1.753   5.044   1.043 -0.5595 -0.2910  2.3732
18134TIP3   OH275892   5.958   1.071   0.791  0.0512 -0.3243 -1.2193
18134TIP3    H175893   5.877   1.107   0.757  0.3257  1.5780  0.0184
18134TIP3    H275894   5.931   0.993   0.840 -1.0728  0.4271 -0.6093
18135TIP3   OH275895   4.359   0.242   2.570 -0.3162  0.5115 -0.3328
18135TIP3    H175896   4.312   0.210   2.648  0.9048 -0.4525  0.0469
18135TIP3    H275897   4.402   0.323   2.600  0.0150  0.2319 -0.0331
18136TIP3   OH275898   1.961   4.897   0.679 -0.0938 -0.0075 -0.1085
18136TIP3    H175899   1.906   4.887   0.601 -0.0403  1.5950 -0.3732
18136TIP3    H275900   1.960   4.810   0.719 -0.6526 -0.7010 -1.5324
18137TIP3   OH275901   5.990   4.248  13.192  0.3250  0.3230 -0.0729
18137TIP3    H175902   6.066   4.225  13.246  0.8720  2.9488  0.4187
18137TIP3    H275903   6.016   4.328  13.148 -2.0128  1.0682 -0.2271
18138TIP3   OH275904   6.250   2.613  15.633  0.2053 -0.0508 -0.0731
18138TIP3    H175905   6.236   2.639  15.724  1.5241  0.8638 -0.1013
18138TIP3    H275906   6.343   2.588  15.629  1.0054  2.7420 -1.7587
18139TIP3   OH275907   1.514   0.183   0.089 -0.7255  0.4340  0.1655
18139TIP3    H175908   1.564   0.101   0.079 -0.1419  0.8274 -0.2273
18139TIP3    H275909   1.457   0.167   0.164  1.0701  0.4859  1.6456
18140TIP3   OH275910   0.026   0.578  11.269  0.1837 -0.0051 -0.0419
18140TIP3    H175911   0.116   0.609  11.269 -0.5895  2.4942  0.4423
18140TIP3    H275912  -0.026   0.657  11.250 -1.9756 -1.0455  1.1933
18141TIP3   OH275913   4.967   6.474   5.177 -0.3064 -0.0061 -0.2196
18141TIP3    H175914   4.981   6.544   5.113 -1.1066  0.6602  0.3182
18141TIP3    H275915   4.902   6.510   5.238  1.7854  0.1256  2.0771
18142TIP3   OH275916   6.015   2.357  16.775  0.1126  0.3917 -0.2258
18142TIP3    H175917   6.044   2.266  16.765  0.1631  0.4942 -1.1172
18142TIP3    H275918   6.076   2.395  16.839  1.0037  0.1794 -0.9269
18143TIP3   OH275919   5.241   5.056  14.370 -0.3240 -0.2144  0.0376
18143TIP3    H175920   5.154   5.091  14.388 -0.3910  0.7985 -2.0143
18143TIP3    H275921   5.279   5.039  14.457 -2.1344  0.3425  0.9750
18144TIP3   OH275922   4.758   2.090  15.068  0.6580  0.0063 -0.0708
18144TIP3    H175923   4.797   2.119  15.150  0.1430 -0.4316  0.3404
18144TIP3    H275924   4.699   2.161  15.043 -0.6755 -0.6883  0.9833
18145TIP3   OH275925   3.715   1.121   3.367 -0.2719  0.6773 -0.7413
18145TIP3    H175926   3.747   1.032   3.382 -1.8920  0.1345 -0.1997
18145TIP3    H275927   3.696   1.124   3.273  0.6565  0.7688 -0.9300
18146TIP3   OH275928   6.157   2.795  16.513 -0.5113  0.3158  0.0444
18146TIP3    H175929   6.172   2.717  16.459 -1.9756 -0.4544  0.6953
18146TIP3    H275930   6.180   2.769  16.602 -0.1999  0.9061  0.1476
18147TIP3   OH275931   1.823   5.397   3.828  0.0846  0.4510  0.5882
18147TIP3    H175932   1.750   5.435   3.877  0.6092 -0.1063  1.8316
18147TIP3    H275933   1.902   5.427   3.874  0.6680  1.1115 -0.7798
18148TIP3   OH275934   3.955   6.387   0.234 -0.9041 -0.0706 -0.5295
18148TIP3    H175935   3.979   6.432   0.153 -0.1413  1.1300  0.3335
18148TIP3    H275936   3.869   6.423   0.257 -1.1042 -0.3848 -0.7760
18149TIP3   OH275937   0.858   3.317   0.164  0.8504 -0.2333 -0.0695
18149TIP3    H175938   0.874   3.347   0.074 -1.8742  0.0882 -0.5392
18149TIP3    H275939   0.820   3.229   0.153  1.3902 -0.5961  0.8464
18150TIP3   OH275940   6.512   0.230   1.026  0.5701  0.2225 -0.1968
18150TIP3    H175941   6.435   0.275   0.990  0.1211 -0.6769 -0.4116
18150TIP3    H275942   6.478   0.145   1.055  1.4083 -0.0219  0.0985
18151TIP3   OH275943   5.245   2.735  14.953 -0.2616  0.0472  0.5626
18151TIP3    H175944   5.290   2.661  14.914 -0.7208 -0.1934  0.4785
18151TIP3    H275945   5.215   2.788  14.879 -0.9252 -0.2853  0.5819
18152TIP3   OH275946   0.501   0.041  15.050 -0.1422  0.2735 -0.2208
18152TIP3    H175947   0.497   0.092  15.131 -1.2763 -3.4981  2.4128
18152TIP3    H275948   0.410   0.029  15.024 -0.2882 -2.8644  1.2025
18153TIP3   OH275949   5.995   1.748  16.077  0.2769  0.7985 -0.4896
18153TIP3    H175950   6.063   1.755  16.143  0.1774  0.9280 -0.4002
18153TIP3    H275951   5.985   1.654  16.062  0.8153  0.7942 -0.8605
18154TIP3   OH275952   2.774   1.833   4.533 -0.0579  0.3244  0.0884
18154TIP3    H175953   2.810   1.772   4.597 -1.5057 -0.4897  0.1800
18154TIP3    H275954   2.809   1.804   4.449 -2.1635 -1.8670 -0.1234
18155TIP3   OH275955   2.162   1.303  12.062  0.0216  0.0239  0.4367
18155TIP3    H175956   2.133   1.364  11.995 -0.1642 -0.2654  0.2502
18155TIP3    H275957   2.249   1.334  12.087 -0.5584  1.0665  1.2143
18156TIP3   OH275958   2.867   4.780   3.153 -0.1762 -0.3059 -0.4721
18156TIP3    H175959   2.916   4.777   3.070  1.1912  0.3677  0.2797
18156TIP3    H275960   2.786   4.731   3.134  0.0506 -0.0900 -2.2247
18157TIP3   OH275961   3.221   6.735   1.130 -0.3242 -0.4379  0.2065
18157TIP3    H175962   3.189   6.656   1.087 -0.2778 -1.0355  1.2397
18157TIP3    H275963   3.311   6.713   1.156 -0.5628 -0.3171  1.1534
18158TIP3   OH275964   0.050   1.494  14.247 -0.1741 -0.0166  0.3557
18158TIP3    H175965   0.049   1.491  14.151  0.8631  2.0217  0.2261
18158TIP3    H275966   0.132   1.450  14.271  0.1304  0.4730  0.2303
18159TIP3   OH275967   3.218   2.660   3.511 -0.6059  0.0108  0.6365
18159TIP3    H175968   3.257   2.631   3.428 -0.1611 -1.0226  1.1878
18159TIP3    H275969   3.292   2.670   3.570 -0.8677  1.2746  0.7713
18160TIP3   OH275970   4.717   3.422  11.750  0.0254 -0.4494 -0.6295
18160TIP3    H175971   4.672   3.338  11.742  1.3643 -1.1482 -1.2361
18160TIP3    H275972   4.714   3.442  11.844 -0.6178 -0.9833 -0.5254
18161TIP3   OH275973   6.495   1.277  16.193 -0.4178 -0.4551  0.6227
18161TIP3    H175974   6.408   1.315  16.208 -0.2570 -0.1261  0.7343
18161TIP3    H275975   6.556   1.342  16.229 -0.1174 -0.5862  0.3551
18162TIP3   OH275976   3.022   6.328   3.080  0.2535 -0.3878  0.2037
18162TIP3    H175977   2.993   6.389   3.012  1.4488 -0.3603 -0.3157
18162TIP3    H275978   2.971   6.249   3.065 -0.7288  0.1914  0.3711
18163TIP3   OH275979   0.681   0.008  15.583 -0.0947 -0.6688  0.2388
18163TIP3    H175980   0.588   0.028  15.573 -0.7173 -3.3318 -0.1043
18163TIP3    H275981   0.719   0.086  15.623 -2.0596  1.2798 -1.4577
18164TIP3   OH275982   0.535   3.879  15.256 -0.5623 -0.2541 -0.6102
18164TIP3    H175983   0.590   3.935  15.310 -1.8577  1.9142 -1.4361
18164TIP3    H275984   0.454   3.869  15.305 -0.8762 -0.2132 -1.1162
18165TIP3   OH275985   6.819   1.012   1.263  0.3214 -0.0255 -0.4759
18165TIP3    H175986   6.860   0.928   1.242 -0.4099 -0.4917 -0.1152
18165TIP3    H275987   6.801   1.007   1.357  0.9447  0.8447 -0.3009
18166TIP3   OH275988   0.171   6.417   1.640 -0.2198  0.4163  0.5588
18166TIP3    H175989   0.110   6.408   1.713  0.2090  0.2155  0.9000
18166TIP3    H275990   0.166   6.333   1.594 -1.0942  0.8298 -0.1327
18167TIP3   OH275991   0.350   2.202  14.020 -0.7544 -0.3727 -0.0406
18167TIP3    H175992   0.321   2.231  14.106 -0.5494  1.7992 -0.6463
18167TIP3    H275993   0.301   2.256  13.958  0.4097 -0.6301 -1.2376
18168TIP3   OH275994   6.501   2.816   2.342 -0.5531 -0.3564  0.1533
18168TIP3    H175995   6.565   2.822   2.271 -0.8548 -2.4022 -0.3573
18168TIP3    H275996   6.434   2.881   2.320  0.4698  0.5968 -0.2221
18169TIP3   OH275997   2.324   0.226   3.040  0.0312 -0.1120  0.1865
18169TIP3    H175998   2.321   0.155   2.976 -0.8248 -0.6146  0.7555
18169TIP3    H275999   2.344   0.304   2.988  0.5572 -0.6958 -0.5111
18170TIP3   OH276000   5.960   3.592   4.676 -0.0065 -0.3156 -0.0412
18170TIP3    H176001   5.969   3.688   4.678 -0.4810 -0.2591 -0.4108
18170TIP3    H276002   6.025   3.564   4.611 -0.4600 -0.1656 -0.5659
18171TIP3   OH276003   4.790   5.147  13.233 -0.1047 -0.4364 -0.2482
18171TIP3    H176004   4.750   5.146  13.146 -1.3121 -2.1715  0.2636
18171TIP3    H276005   4.874   5.190  13.220 -0.2066 -0.7295 -2.2970
18172TIP3   OH276006   1.679   0.612   3.387 -0.2931  0.5616 -0.5952
18172TIP3    H176007   1.648   0.631   3.475  0.5363 -2.2883  0.4405
18172TIP3    H276008   1.768   0.648   3.384  0.3558 -0.8291  0.4539
18173TIP3   OH276009   4.129   6.639   4.532  0.0696  0.1730  0.4497
18173TIP3    H176010   4.068   6.571   4.562  1.7315 -1.5603  0.0944
18173TIP3    H276011   4.184   6.657   4.609  0.9070 -0.3811 -0.0013
18174TIP3   OH276012   3.125   4.987  13.295  0.4516 -0.1305 -0.1781
18174TIP3    H176013   3.160   4.903  13.322 -0.2133  0.1827  1.8203
18174TIP3    H276014   3.082   5.022  13.373 -0.5434  1.4170 -1.3451
18175TIP3   OH276015   3.551   3.012   5.023  0.0283  0.0212 -0.5108
18175TIP3    H176016   3.474   2.979   5.068  0.5604 -0.6404 -0.0694
18175TIP3    H276017   3.528   3.101   4.998 -1.1654 -0.4306 -1.0837
18176TIP3   OH276018   0.003   3.231   3.416 -0.1410 -0.1607 -0.4127
18176TIP3    H176019  -0.032   3.320   3.429  2.1751  1.1748 -2.4446
18176TIP3    H276020   0.045   3.234   3.330 -0.4942 -3.4552 -0.8308
18177TIP3   OH276021   3.202   5.253  12.267 -0.6339  0.0714 -0.0512
18177TIP3    H176022   3.264   5.295  12.327 -0.9441 -0.3654  0.5917
18177TIP3    H276023   3.170   5.177  12.315 -0.0196 -0.9712 -1.2230
18178TIP3   OH276024   2.553   3.508   0.010  0.1702  0.2900 -0.0483
18178TIP3    H176025   2.469   3.482   0.049  0.5620  0.0462  0.6438
18178TIP3    H276026   2.550   3.603   0.008 -0.2396  0.2771 -0.2987
18179TIP3   OH276027   3.906   2.039   6.776 -0.0739  0.3582 -0.2206
18179TIP3    H176028   3.933   1.950   6.753  0.8588  0.3508  0.8182
18179TIP3    H276029   3.811   2.037   6.771 -0.3463 -1.6635  2.8575
18180TIP3   OH276030   1.441   3.162   2.941 -0.1865  0.0159  0.0793
18180TIP3    H176031   1.530   3.132   2.961 -0.6006  0.0548  2.2193
18180TIP3    H276032   1.425   3.233   3.003 -1.3717  0.6665 -0.9335
18181TIP3   OH276033   2.381   4.025   4.886 -0.0108  0.2410  0.3662
18181TIP3    H176034   2.371   3.931   4.900 -1.1185  0.5465  1.9627
18181TIP3    H276035   2.455   4.050   4.943  1.6673  0.0561 -1.6207
18182TIP3   OH276036   1.866   3.673   0.742  0.5199  0.2822 -0.2954
18182TIP3    H176037   1.859   3.738   0.812  0.8476  0.9484 -0.8698
18182TIP3    H276038   1.782   3.627   0.743 -0.0569  1.3091 -0.4580
18183TIP3   OH276039   6.302   3.265   1.230  0.4731  0.0587 -0.3139
18183TIP3    H176040   6.300   3.332   1.162  0.4431 -0.3971 -0.7641
18183TIP3    H276041   6.211   3.247   1.250  0.4820  0.2283 -0.1114
18184TIP3   OH276042   0.292   5.189   1.590 -0.0411  0.6153  0.2560
18184TIP3    H176043   0.282   5.095   1.602 -0.8814  0.4558 -1.4302
18184TIP3    H276044   0.203   5.222   1.581  0.1715  1.7622  1.9030
18185TIP3   OH276045   1.211   6.249  12.346  0.0440 -0.7482  0.1597
18185TIP3    H176046   1.267   6.311  12.298  1.8139 -2.8009 -0.5964
18185TIP3    H276047   1.121   6.276  12.324  0.7756  0.1600 -2.0111
18186TIP3   OH276048   5.713   3.169  13.467  0.1506  0.0129  0.6650
18186TIP3    H176049   5.670   3.154  13.552 -0.3459 -1.7133  0.1383
18186TIP3    H276050   5.800   3.202  13.490  0.3426 -1.2284  1.8945
18187TIP3   OH276051   4.605   0.395  16.786  0.1205  0.3882  0.2385
18187TIP3    H176052   4.664   0.366  16.856 -0.1715  0.2260  0.4197
18187TIP3    H276053   4.581   0.484  16.811 -1.0339 -0.1153  1.0632
18188TIP3   OH276054   2.253   5.599  15.396  0.4636  0.1775  0.1695
18188TIP3    H176055   2.167   5.560  15.417  0.9007  0.0738  1.9825
18188TIP3    H276056   2.241   5.692  15.413  1.1592 -0.0637  2.2290
18189TIP3   OH276057   5.553   0.563  12.233  0.3928  0.2800 -0.1594
18189TIP3    H176058   5.506   0.576  12.151 -0.0364 -0.9762 -0.1398
18189TIP3    H276059   5.598   0.479  12.222 -1.4026 -1.0247  1.6180
18190TIP3   OH276060   3.726   5.615  15.044  0.3644 -0.1693 -0.5507
18190TIP3    H176061   3.762   5.530  15.020 -0.8974 -0.7320 -0.5460
18190TIP3    H276062   3.647   5.595  15.093  0.4512  1.0111  0.1146
18191TIP3   OH276063   4.776   1.589   3.088 -0.3100  0.6057 -0.0919
18191TIP3    H176064   4.845   1.654   3.103  1.2790 -1.2801  1.2365
18191TIP3    H276065   4.822   1.512   3.054 -2.1869  0.2173 -2.0160
18192TIP3   OH276066   4.660   1.814  14.387 -0.8901  0.1929  0.3433
18192TIP3    H176067   4.704   1.896  14.363 -0.1937  0.5261  2.5782
18192TIP3    H276068   4.709   1.747  14.340 -0.5059  0.9082 -0.3112
18193TIP3   OH276069   4.876   5.756   1.144  0.0035 -0.0980 -0.0775
18193TIP3    H176070   4.852   5.847   1.129 -1.8661 -0.3202  1.2147
18193TIP3    H276071   4.929   5.759   1.225  0.3838 -0.1237 -0.3206
18194TIP3   OH276072   6.514   0.881  17.135  0.0229 -0.6937 -0.2103
18194TIP3    H176073   6.599   0.874  17.178 -0.7858 -1.0081  1.4584
18194TIP3    H276074   6.487   0.790  17.121  0.0412 -0.5929 -0.9089
18195TIP3   OH276075   4.564   6.587  11.998 -0.6896  0.3146  0.7846
18195TIP3    H176076   4.529   6.499  12.006 -1.5462  0.6912  1.4256
18195TIP3    H276077   4.498   6.643  12.039 -0.4635  1.3290 -0.1770
18196TIP3   OH276078   4.610   1.766   5.457  0.6086  0.0589 -0.2289
18196TIP3    H176079   4.555   1.802   5.388  0.9372 -0.9385 -1.0420
18196TIP3    H276080   4.559   1.777   5.537  0.1418  1.0631 -0.6512
18197TIP3   OH276081   2.219   3.938   0.545 -0.3465 -0.3425  0.1874
18197TIP3    H176082   2.270   3.942   0.464 -2.2170  0.5880 -1.0014
18197TIP3    H276083   2.216   3.845   0.566  1.0158 -0.5053 -0.2102
18198TIP3   OH276084   2.956   6.190   3.833  0.5396 -0.1392 -0.2336
18198TIP3    H176085   2.870   6.168   3.870  0.8505 -4.3615 -1.5220
18198TIP3    H276086   2.968   6.283   3.855 -3.7534  0.3437  1.0581
18199TIP3   OH276087   4.803   6.240   3.514  0.0421  0.9909 -0.1209
18199TIP3    H176088   4.841   6.283   3.591 -0.0167 -0.4777  0.7604
18199TIP3    H276089   4.859   6.164   3.500 -1.3996 -0.1193 -0.0068
18200TIP3   OH276090   4.453   4.527   2.491  0.3936 -0.1657 -0.0613
18200TIP3    H176091   4.546   4.502   2.491  0.0948 -1.3240  0.4362
18200TIP3    H276092   4.417   4.485   2.413  0.2640  0.2564 -0.2354
18201TIP3   OH276093   3.974   5.920   2.497  0.3497 -0.3457  0.1015
18201TIP3    H176094   3.948   5.843   2.447 -0.6328  0.2282 -0.3125
18201TIP3    H276095   3.995   5.986   2.431 -1.7089  0.6658  0.3464
18202TIP3   OH276096   3.667   6.098   2.052  0.9333 -0.9044 -0.2940
18202TIP3    H176097   3.588   6.124   2.100  0.3874  1.4276 -2.2591
18202TIP3    H276098   3.678   6.005   2.074 -0.6937 -0.5959  2.2624
18203TIP3   OH276099   6.420   5.586  14.563 -0.5189 -0.0511 -0.1112
18203TIP3    H176100   6.363   5.654  14.599  2.3715  2.6187 -0.1425
18203TIP3    H276101   6.484   5.569  14.632  1.4910  0.6909 -1.6775
18204TIP3   OH276102   1.792   6.626  15.865  0.0586  0.2000 -0.1026
18204TIP3    H176103   1.736   6.693  15.906  1.3015 -0.4320  2.8874
18204TIP3    H276104   1.733   6.552  15.852 -0.5087  0.6200 -0.0180
18205TIP3   OH276105   5.511   6.716  13.132  0.2564  0.3704  0.1753
18205TIP3    H176106   5.497   6.743  13.223  1.6571  1.4882  0.0768
18205TIP3    H276107   5.556   6.632  13.138  3.2386  1.8861  0.6154
18206TIP3   OH276108   4.868   0.861   4.232  0.2052 -0.5342  0.7036
18206TIP3    H176109   4.819   0.939   4.207 -0.7701 -1.3614 -0.0514
18206TIP3    H276110   4.953   0.871   4.189 -0.8165 -1.0685 -1.5643
18207TIP3   OH276111   3.971   6.449  13.899 -0.0264  0.4307  0.1722
18207TIP3    H176112   3.914   6.513  13.942  0.6984  0.0951  1.7025
18207TIP3    H276113   4.060   6.482  13.915  0.3353 -0.7067  0.5967
18208TIP3   OH276114   1.175   0.265  15.499 -0.0329 -0.4036 -0.2910
18208TIP3    H176115   1.152   0.340  15.554 -2.1952 -1.4187  0.3102
18208TIP3    H276116   1.204   0.197  15.561 -0.2348 -0.7955 -0.6187
18209TIP3   OH276117   5.330   3.926  15.145  0.3000  0.2049 -0.0634
18209TIP3    H176118   5.326   4.000  15.085 -1.4250  1.5861  1.6327
18209TIP3    H276119   5.302   3.961  15.229  0.6755 -2.1061  1.1171
18210TIP3   OH276120   0.474   1.490  17.107 -0.1479  0.6088 -0.0738
18210TIP3    H176121   0.459   1.583  17.122 -1.0611  0.2073  1.8237
18210TIP3    H276122   0.452   1.477  17.015 -1.9762  1.9356  0.1039
18211TIP3   OH276123   4.349   5.683   4.417  0.0657 -0.2112 -0.5183
18211TIP3    H176124   4.372   5.763   4.371  0.8705  0.2401  0.6119
18211TIP3    H276125   4.408   5.617   4.382  0.7681  0.1602 -0.0557
18212TIP3   OH276126   1.588   4.636  14.472  0.3649  0.5889  0.1721
18212TIP3    H176127   1.494   4.631  14.456  0.8080 -1.1926 -2.3733
18212TIP3    H276128   1.605   4.730  14.484 -1.8864  0.8289  2.2558
18213TIP3   OH276129   4.251   5.704   0.733  0.0235  0.0678  1.1299
18213TIP3    H176130   4.242   5.623   0.783 -0.9027 -0.5324  0.0259
18213TIP3    H276131   4.214   5.771   0.790  1.3593 -0.1494  2.3113
18214TIP3   OH276132   4.368   2.235  11.267  0.2748  0.0740  0.1839
18214TIP3    H176133   4.350   2.232  11.173  0.1491 -1.3275  0.2342
18214TIP3    H276134   4.412   2.319  11.280 -1.0434  0.9674 -0.8725
18215TIP3   OH276135   5.922   4.117  11.759  0.1892  0.1014 -0.0710
18215TIP3    H176136   5.983   4.045  11.770  0.3185  0.1002 -0.7586
18215TIP3    H276137   5.950   4.183  11.822  1.2899  0.3578 -0.8121
18216TIP3   OH276138   3.042   4.889   2.285 -0.6012  0.5308 -0.5578
18216TIP3    H176139   3.049   4.799   2.253 -3.6136  0.3341 -0.9680
18216TIP3    H276140   2.986   4.883   2.362 -0.8075  2.0507 -0.5654
18217TIP3   OH276141   1.432   5.349   3.969 -0.3259 -0.6400  0.1616
18217TIP3    H176142   1.451   5.425   4.023 -1.2654 -0.4327  0.2288
18217TIP3    H276143   1.514   5.301   3.964  1.0547  1.6741 -1.9897
18218TIP3   OH276144   5.404   1.268   4.745 -0.3428 -0.2210 -0.1803
18218TIP3    H176145   5.367   1.338   4.691 -1.8837  0.6945  1.9324
18218TIP3    H276146   5.424   1.310   4.829  2.4359 -1.4725 -0.0981
18219TIP3   OH276147   6.504   1.324  15.574  0.3227  0.4672 -0.2170
18219TIP3    H176148   6.469   1.362  15.493  1.1941  0.6968 -0.4920
18219TIP3    H276149   6.463   1.237  15.579  0.5147  0.3154 -1.0903
18220TIP3   OH276150   6.429   5.623  17.054  0.2653  0.0600  0.0400
18220TIP3    H176151   6.356   5.663  17.101 -0.1253 -2.0698  1.3777
18220TIP3    H276152   6.500   5.686  17.062 -0.6494  1.0019  1.0291
18221TIP3   OH276153   0.990   0.282   0.498 -0.3570 -0.2598 -0.1723
18221TIP3    H176154   0.935   0.339   0.552  0.6169 -0.2016  0.8163
18221TIP3    H276155   0.991   0.199   0.546  1.7849  0.2610  0.7897
18222TIP3   OH276156   3.423   4.856  15.392 -0.6440 -0.0822  0.1067
18222TIP3    H176157   3.374   4.935  15.415 -1.4010 -0.3272 -0.6199
18222TIP3    H276158   3.370   4.814  15.324  0.3549 -0.5893 -0.3779
18223TIP3   OH276159   0.033   6.691  12.664 -0.3765  0.3243  0.1519
18223TIP3    H176160  -0.019   6.737  12.598  1.0763  0.7405 -0.7702
18223TIP3    H276161   0.102   6.753  12.687  0.2275 -0.5224  0.6734
18224TIP3   OH276162   2.015   3.285   2.196  0.8043  0.1710  0.0976
18224TIP3    H176163   2.047   3.195   2.201 -0.4713 -0.2416  2.4036
18224TIP3    H276164   1.989   3.297   2.104  0.1808 -2.1248 -0.0714
18225TIP3   OH276165   3.820   5.518   2.373  0.2440 -0.0392  0.3455
18225TIP3    H176166   3.897   5.527   2.430  0.1261 -0.0534  0.5072
18225TIP3    H276167   3.764   5.455   2.417  1.0395 -1.5800 -0.7651
18226TIP3   OH276168   5.533   4.320   4.415 -0.1862 -0.1662  0.2541
18226TIP3    H176169   5.507   4.412   4.408 -0.6216 -0.2384  0.9400
18226TIP3    H276170   5.626   4.321   4.393 -0.9964 -0.1375 -4.0383
18227TIP3   OH276171   0.664   3.956   5.415 -0.4075  0.5151  0.7479
18227TIP3    H176172   0.591   3.946   5.354 -0.2852  1.0259  0.5141
18227TIP3    H276173   0.737   3.984   5.360 -0.7364  2.7285  1.3601
18228TIP3   OH276174   4.060   0.478  12.126  0.1591  0.8094 -0.8646
18228TIP3    H176175   3.974   0.511  12.154 -0.0804  0.0101 -0.6438
18228TIP3    H276176   4.123   0.526  12.180 -0.3337 -2.0765  2.6214
18229TIP3   OH276177   2.074   2.673   0.956  0.4803 -0.1499 -0.3469
18229TIP3    H176178   2.148   2.734   0.956  0.1940  0.3080  1.9677
18229TIP3    H276179   2.114   2.586   0.953  1.1325  0.0973  0.7711
18230TIP3   OH276180   0.822   5.636   3.328  0.5190  0.1867 -0.1523
18230TIP3    H176181   0.894   5.592   3.373  0.4891  0.8016  0.5054
18230TIP3    H276182   0.819   5.594   3.242  0.1258 -1.4830  0.6412
18231TIP3   OH276183   3.847   6.627  12.712  0.2076 -0.1492 -0.2683
18231TIP3    H176184   3.756   6.597  12.713 -0.9041  2.8392 -1.4611
18231TIP3    H276185   3.866   6.640  12.619  0.4358  2.9218  0.1027
18232TIP3   OH276186   1.954   6.138   4.411  0.3462 -0.6276  0.0273
18232TIP3    H176187   1.968   6.187   4.493 -0.7002  0.5808 -0.4796
18232TIP3    H276188   1.955   6.046   4.438  1.1496 -0.3004  1.2126
18233TIP3   OH276189   3.793   0.837   5.574 -0.0479  0.0406  0.1611
18233TIP3    H176190   3.772   0.892   5.650  2.6751  1.4080  0.0411
18233TIP3    H276191   3.836   0.761   5.611  0.8310  0.4714  0.0438
18234TIP3   OH276192   0.747   2.052   5.126 -0.5698  0.7522 -0.2410
18234TIP3    H176193   0.794   2.052   5.209  2.0207  1.5597 -1.5948
18234TIP3    H276194   0.690   2.129   5.131  1.1083  2.0340  0.0557
18235TIP3   OH276195   0.830   4.936  12.155  1.1392 -0.2069  0.2449
18235TIP3    H176196   0.788   4.938  12.069  1.4007 -1.0700  0.0861
18235TIP3    H276197   0.795   5.013  12.201  1.6983  0.8032 -0.9509
18236TIP3   OH276198   2.849   1.329  12.221  0.5803 -0.2628  0.6971
18236TIP3    H176199   2.862   1.253  12.164 -1.2677  1.7432 -2.7711
18236TIP3    H276200   2.937   1.358  12.243  1.3545 -1.7518 -0.2688
18237TIP3   OH276201   3.590   2.571  15.203 -0.4867 -0.2198  0.4337
18237TIP3    H176202   3.561   2.608  15.120 -0.2392 -0.4293  0.2509
18237TIP3    H276203   3.652   2.502  15.178  0.4720  0.4820  0.8193
18238TIP3   OH276204   5.011   6.261  11.478 -0.3460 -0.2176 -0.2505
18238TIP3    H176205   5.059   6.241  11.558 -1.0693  0.1679  0.2952
18238TIP3    H276206   4.936   6.314  11.507 -1.7125 -1.6782 -0.9129
18239TIP3   OH276207   1.631   5.875  15.398 -0.0445  0.8970  0.2327
18239TIP3    H176208   1.682   5.862  15.478  1.2281  0.4970 -0.6108
18239TIP3    H276209   1.661   5.959  15.363  0.1874  0.5724 -0.3692
18240TIP3   OH276210   0.368   2.966  16.572  0.2525  0.0189  0.1943
18240TIP3    H176211   0.353   2.932  16.661  0.2144 -1.2347 -0.2748
18240TIP3    H276212   0.280   2.977  16.536  0.2410  1.2780  0.5694
18241TIP3   OH276213   6.215   4.219   3.466 -0.0416 -0.2717  0.2943
18241TIP3    H176214   6.211   4.181   3.554  2.7155  1.9144  1.5063
18241TIP3    H276215   6.157   4.294   3.470  0.0617 -0.1886  0.2446
18242TIP3   OH276216   0.968   0.188  15.019 -0.3797 -0.8524  0.0401
18242TIP3    H176217   0.971   0.284  15.025 -0.3496 -0.7836 -0.9191
18242TIP3    H276218   0.952   0.159  15.109 -3.9053  0.2167 -0.0994
18243TIP3   OH276219   1.263   1.114  11.168 -0.2860  0.0858 -0.3819
18243TIP3    H176220   1.204   1.175  11.211 -1.5213 -0.8635 -0.6728
18243TIP3    H276221   1.267   1.144  11.077 -0.6543 -0.0779 -0.4543
18244TIP3   OH276222   5.595   3.388  12.866  0.8516 -0.5442  0.0342
18244TIP3    H176223   5.621   3.420  12.779 -1.1095 -0.7004 -0.6689
18244TIP3    H276224   5.569   3.467  12.913  0.5333 -0.6009 -0.0424
18245TIP3   OH276225   5.435   1.368   0.453  0.5243 -0.3602  0.0007
18245TIP3    H176226   5.392   1.297   0.406  0.7519 -0.2412 -0.3871
18245TIP3    H276227   5.422   1.347   0.546 -2.1128  0.7162 -0.0632
18246TIP3   OH276228   1.828   4.001  16.050 -0.1793  0.1656  0.9032
18246TIP3    H176229   1.921   4.020  16.042  0.0644 -1.0576  0.6554
18246TIP3    H276230   1.823   3.936  16.121 -0.9326  0.8229  1.4680
18247TIP3   OH276231   1.641   1.902  12.676  1.3228  0.1596 -0.1924
18247TIP3    H176232   1.613   1.836  12.613  1.9374  1.0450 -1.4466
18247TIP3    H276233   1.616   1.866  12.761 -1.0277 -0.3439 -1.0168
18248TIP3   OH276234   4.559   5.538   3.126  0.0435  0.2606 -0.5032
18248TIP3    H176235   4.499   5.520   3.054  0.1770  0.0607 -0.5662
18248TIP3    H276236   4.534   5.625   3.158  0.6788  0.8239 -1.4878
18249TIP3   OH276237   1.173   2.937   5.162  0.4653  0.0544  0.4800
18249TIP3    H176238   1.142   3.027   5.157  0.5315  0.1229  1.1212
18249TIP3    H276239   1.191   2.911   5.072 -0.7439  0.2568  0.1720
18250TIP3   OH276240   2.252   2.516   2.215 -0.2038 -0.1987  0.0555
18250TIP3    H176241   2.257   2.493   2.308  0.4439 -1.7424 -0.3228
18250TIP3    H276242   2.262   2.432   2.170  0.7527  0.6890 -1.4395
18251TIP3   OH276243   0.798   2.551  15.994 -0.2224 -0.3526  0.0317
18251TIP3    H176244   0.757   2.614  15.934  0.4271  0.4496  0.4116
18251TIP3    H276245   0.747   2.558  16.074 -1.6291 -2.0417 -0.6483
18252TIP3   OH276246   6.600   4.792   2.848 -0.2485 -0.1085 -0.1452
18252TIP3    H176247   6.576   4.872   2.894  0.5499 -0.7271  1.4211
18252TIP3    H276248   6.533   4.729   2.872 -0.1299 -0.2836 -0.2671
18253TIP3   OH276249   0.237   4.491  13.513  0.6066  0.1584 -0.1738
18253TIP3    H176250   0.324   4.454  13.524  0.2719 -0.4350  0.5969
18253TIP3    H276251   0.246   4.555  13.442  1.7738  0.4585  0.2228
18254TIP3   OH276252   0.068   1.066   5.951  0.0951 -0.6935 -0.1900
18254TIP3    H176253   0.138   1.056   6.016  1.3854  2.2806 -0.9593
18254TIP3    H276254   0.084   0.995   5.888 -0.0255 -2.4396  1.6448
18255TIP3   OH276255   2.307   2.139   0.782  0.4818 -0.5577  0.2524
18255TIP3    H176256   2.313   2.053   0.739 -0.3150  0.5183 -2.1580
18255TIP3    H276257   2.283   2.199   0.712 -0.8182  1.3578  2.2266
18256TIP3   OH276258   2.185   1.573   3.427  0.2695 -0.6547 -0.3478
18256TIP3    H176259   2.118   1.641   3.436 -0.2483 -1.0309 -1.3130
18256TIP3    H276260   2.265   1.621   3.403  0.0119 -0.3477 -0.5968
18257TIP3   OH276261   2.049   5.430   5.751 -0.2767 -0.3478  0.5956
18257TIP3    H176262   1.982   5.498   5.748  0.4821  0.4909  1.7071
18257TIP3    H276263   2.084   5.435   5.841  0.1064 -1.8979  0.5556
18258TIP3   OH276264   1.757   4.491  11.483 -0.3822  0.1534 -0.2177
18258TIP3    H176265   1.776   4.549  11.410 -0.6051 -1.0247 -1.2541
18258TIP3    H276266   1.778   4.403  11.450 -1.0070 -0.4605  0.9436
18259TIP3   OH276267   2.263   1.462  11.421  0.4429  0.1054 -0.4700
18259TIP3    H176268   2.288   1.432  11.334 -2.4008 -0.4399 -1.2165
18259TIP3    H276269   2.180   1.509  11.407 -0.3093 -0.3264  1.9592
18260TIP3   OH276270   1.703   1.460  14.616 -0.2015 -0.0421  0.9179
18260TIP3    H176271   1.740   1.444  14.703 -0.6773  0.3909  1.2070
18260TIP3    H276272   1.743   1.543  14.588 -0.4610  0.0999  0.9619
18261TIP3   OH276273   3.794   5.830   2.003 -0.2479  0.2036  1.2635
18261TIP3    H176274   3.745   5.757   1.965 -1.5607  1.6280  0.1047
18261TIP3    H276275   3.835   5.872   1.927  0.7614  0.4929  1.9585
18262TIP3   OH276276   1.868   3.713   3.278 -0.1119  0.5020 -0.2269
18262TIP3    H176277   1.861   3.804   3.246 -0.9649  0.5394  0.0364
18262TIP3    H276278   1.781   3.694   3.313 -0.1458 -0.6598 -0.9116
18263TIP3   OH276279   0.893   0.096  10.219 -0.2785  0.5509 -0.4409
18263TIP3    H176280   0.943   0.166  10.262 -0.6042  0.8255 -0.5067
18263TIP3    H276281   0.817   0.141  10.181  1.3939  0.8387 -3.7908
18264TIP3   OH276282   3.257   2.401   5.624 -0.5533  0.3490 -0.0981
18264TIP3    H176283   3.313   2.417   5.700 -0.6166  2.3820 -0.4134
18264TIP3    H276284   3.311   2.348   5.565 -0.4616 -1.1383  1.2812
18265TIP3   OH276285   2.449   1.628   4.154  0.3242  0.6909  0.5520
18265TIP3    H176286   2.432   1.567   4.083  0.4001 -0.0624  1.1631
18265TIP3    H276287   2.421   1.581   4.233  3.5456  0.0283  1.4540
18266TIP3   OH276288   4.825   2.079   4.647 -0.5526  0.8343  0.3351
18266TIP3    H176289   4.745   2.123   4.674 -1.0805 -1.2706  2.6180
18266TIP3    H276290   4.802   1.986   4.646  1.3247  0.3194 -1.0601
18267TIP3   OH276291   3.419   0.253  13.088  0.6243  0.2034 -0.1383
18267TIP3    H176292   3.493   0.278  13.143 -1.4570 -0.0198  3.0636
18267TIP3    H276293   3.400   0.162  13.113 -2.6778  1.2382  1.8593
18268TIP3   OH276294   4.441   3.639  14.716 -0.5359 -0.2188 -0.2202
18268TIP3    H176295   4.527   3.671  14.746 -1.4112  0.9936  1.1082
18268TIP3    H276296   4.441   3.656  14.622  1.3628 -1.9076 -0.6154
18269TIP3   OH276297   2.101   3.449  15.274 -0.0215  0.4485  0.2173
18269TIP3    H176298   2.034   3.510  15.305 -0.2567  0.9851 -1.2575
18269TIP3    H276299   2.081   3.437  15.181  1.6999  0.3162 -0.1658
18270TIP3   OH276300   4.362   3.744   0.916  0.4873  1.1791 -0.0347
18270TIP3    H176301   4.284   3.758   0.862 -1.2144  0.0282  1.9858
18270TIP3    H276302   4.354   3.808   0.987 -0.4297 -1.0199  1.9703
18271TIP3   OH276303   1.507   0.845  12.351  0.0487  0.0458  0.3892
18271TIP3    H176304   1.504   0.800  12.267 -0.1784  0.5160  0.1410
18271TIP3    H276305   1.585   0.899  12.347  0.4768 -0.5342  0.7995
18272TIP3   OH276306   2.200   1.319  15.025 -0.2235 -0.0878  0.2058
18272TIP3    H176307   2.273   1.260  15.046 -0.6591 -1.8653 -2.7646
18272TIP3    H276308   2.158   1.279  14.949 -1.5594  3.2758 -0.9913
18273TIP3   OH276309   3.827   4.834  17.143  0.0114  0.5951  0.1369
18273TIP3    H176310   3.772   4.884  17.083 -0.2509  0.4113  0.2229
18273TIP3    H276311   3.782   4.838  17.227 -0.7583 -0.9675 -0.1691
18274TIP3   OH276312   5.430   3.604  16.005  0.4954  0.3748  0.2726
18274TIP3    H176313   5.421   3.699  16.014 -1.6637  0.4453 -1.5786
18274TIP3    H276314   5.423   3.570  16.095 -1.2456  1.8483  0.7454
18275TIP3   OH276315   6.604   5.426   4.560  0.0408  0.1214 -0.2568
18275TIP3    H176316   6.583   5.378   4.641  1.6319 -0.6560 -0.2530
18275TIP3    H276317   6.654   5.502   4.590  0.2624  0.0600 -0.4678
18276TIP3   OH276318   5.231   3.165   5.325  0.3036 -0.1714 -0.1476
18276TIP3    H176319   5.216   3.130   5.238 -0.6726 -0.4504  0.1253
18276TIP3    H276320   5.304   3.226   5.314  1.6872 -1.8488 -0.7258
18277TIP3   OH276321   1.455   6.327  15.688 -0.2115 -0.5655  0.0236
18277TIP3    H176322   1.535   6.377  15.672  0.2938 -1.2433  0.3648
18277TIP3    H276323   1.428   6.353  15.777 -0.7301  0.1346 -0.3313
18278TIP3   OH276324   2.087   3.757  14.996 -0.1782 -0.6326  0.1346
18278TIP3    H176325   2.128   3.806  15.067  0.9776  0.2562 -1.0896
18278TIP3    H276326   2.105   3.665  15.017 -0.9198 -0.4688  1.5976
18279TIP3   OH276327   3.862   6.363  13.649  0.1448  0.5890  0.2896
18279TIP3    H176328   3.767   6.377  13.659 -0.1419 -2.2589  3.2787
18279TIP3    H276329   3.900   6.408  13.724  0.8528 -0.5411  0.6277
18280TIP3   OH276330   2.359   1.449   4.650 -0.0457 -0.3521 -0.4552
18280TIP3    H176331   2.276   1.468   4.694  0.0375 -0.3876 -0.2846
18280TIP3    H276332   2.391   1.370   4.693 -0.2453 -0.7155 -0.9624
18281TIP3   OH276333   3.808   0.396   2.899  0.0668 -0.0626  0.3370
18281TIP3    H176334   3.721   0.433   2.912 -0.6880 -0.8514 -2.0287
18281TIP3    H276335   3.861   0.468   2.866  0.6277  0.6355  2.5437
18282TIP3   OH276336   2.939   6.709   0.023 -0.3831 -0.7152 -0.1279
18282TIP3    H176337   3.014   6.679  -0.028  0.0363 -1.3301  0.8222
18282TIP3    H276338   2.944   6.804   0.021  0.3841 -0.7561 -0.1124
18283TIP3   OH276339   4.475   1.861   0.223  0.0069 -0.1605  0.0070
18283TIP3    H176340   4.547   1.805   0.193 -0.2901 -1.1102  1.0053
18283TIP3    H276341   4.503   1.949   0.200  0.4464 -0.7103 -1.6946
18284TIP3   OH276342   3.512   6.806  15.664  0.5614 -0.4913 -0.2884
18284TIP3    H176343   3.431   6.814  15.715  1.5803 -0.3130  1.3690
18284TIP3    H276344   3.533   6.897  15.640  0.1895 -0.5559 -0.8852
18285TIP3   OH276345   1.357   4.568   5.071  0.1747  0.1099 -0.2690
18285TIP3    H176346   1.443   4.532   5.091 -0.0841 -0.1822  0.3390
18285TIP3    H276347   1.321   4.594   5.156 -0.4530 -0.0409 -0.4778
18286TIP3   OH276348   4.054   2.835   4.137  0.1275  0.2172 -0.6722
18286TIP3    H176349   4.140   2.877   4.128  0.2497  0.0778 -0.2301
18286TIP3    H276350   4.018   2.834   4.049  0.5482  0.3526 -0.8493
18287TIP3   OH276351   2.548   4.811  16.909  0.1386 -0.4985  0.2014
18287TIP3    H176352   2.466   4.847  16.876  0.3864 -0.4443 -0.3737
18287TIP3    H276353   2.557   4.726  16.865  1.3565  0.3466 -1.3362
18288TIP3   OH276354   6.486   2.686  12.592 -0.1195  0.2792  0.0465
18288TIP3    H176355   6.581   2.693  12.595 -0.0782  0.0583 -0.6745
18288TIP3    H276356   6.460   2.679  12.684  0.6208 -0.5783  0.2008
18289TIP3   OH276357   1.302   2.053  12.266  0.1056  0.5815 -0.3871
18289TIP3    H176358   1.287   1.989  12.336  0.1307  0.4850 -0.4692
18289TIP3    H276359   1.354   2.005  12.201  0.9147  0.9511 -0.0330
18290TIP3   OH276360   0.249   4.187  15.107 -0.3602 -0.0282 -0.2557
18290TIP3    H176361   0.194   4.202  15.030 -1.3963  0.9109  0.6289
18290TIP3    H276362   0.211   4.110  15.149 -0.5539  0.1855 -0.0363
18291TIP3   OH276363   0.316   3.875  16.550 -0.1514 -0.9666 -0.2155
18291TIP3    H176364   0.262   3.799  16.530 -1.3290 -1.6552  4.3829
18291TIP3    H276365   0.255   3.938  16.588  0.8130  2.4299 -3.6604
18292TIP3   OH276366   5.041   2.547  11.556  0.6573  0.5170  0.7214
18292TIP3    H176367   5.020   2.471  11.503  0.1542  0.6395  0.7437
18292TIP3    H276368   5.076   2.511  11.637  1.3762  0.3287  0.3365
18293TIP3   OH276369   2.803   4.176   2.462 -0.3701  0.0025  0.4290
18293TIP3    H176370   2.804   4.081   2.457 -0.7012 -0.0105  0.6328
18293TIP3    H276371   2.809   4.205   2.371 -0.3326 -0.2130  0.3638
18294TIP3   OH276372   2.621   6.314  16.085  0.1900 -0.2873 -0.0417
18294TIP3    H176373   2.682   6.261  16.135 -1.1584 -0.9297  0.9875
18294TIP3    H276374   2.633   6.403  16.119  1.9549  0.0159 -1.2909
18295TIP3   OH276375   3.391   3.746   0.532  0.5828 -0.2652  0.0909
18295TIP3    H176376   3.412   3.810   0.464 -0.3782 -0.6572 -0.5948
18295TIP3    H276377   3.464   3.752   0.593  1.0121  0.7574 -0.4904
18296TIP3   OH276378   4.136   0.843   4.485 -0.3633 -0.2057  0.3088
18296TIP3    H176379   4.068   0.852   4.419  0.2788 -1.0360 -0.4861
18296TIP3    H276380   4.134   0.926   4.534 -0.5545  0.5924 -1.0194
18297TIP3   OH276381   2.858   5.543   3.231 -0.5520 -0.1562  0.2519
18297TIP3    H176382   2.938   5.588   3.260  1.5665 -4.1654  1.2910
18297TIP3    H276383   2.792   5.568   3.296  0.0720  2.3592  0.0274
18298TIP3   OH276384   1.393   1.700  15.980  0.0950 -0.1717 -0.0344
18298TIP3    H176385   1.476   1.746  15.975  0.7403 -0.7477  2.9664
18298TIP3    H276386   1.326   1.768  15.976  0.8465  0.5688 -0.0364
18299TIP3   OH276387   3.703   6.238   4.187  0.4844  0.4520  0.0279
18299TIP3    H176388   3.705   6.220   4.093 -2.1793 -0.6074  0.0774
18299TIP3    H276389   3.648   6.316   4.195 -1.5724 -0.9739  0.7705
18300TIP3   OH276390   6.751   5.233  16.611 -0.6239 -0.1421  0.1112
18300TIP3    H176391   6.836   5.228  16.567  0.6823  2.0235  2.0923
18300TIP3    H276392   6.750   5.157  16.669 -0.0414 -0.2076  0.0440
18301TIP3   OH276393   0.852   1.426  16.602 -0.1549 -0.0287  0.4015
18301TIP3    H176394   0.911   1.457  16.671 -0.9836  1.0008  0.6741
18301TIP3    H276395   0.810   1.349  16.639  1.9909 -1.6399 -0.3068
18302TIP3   OH276396   3.063   6.444  12.404  0.2939 -1.2492  0.1120
18302TIP3    H176397   3.020   6.525  12.378  1.0014 -1.0738 -0.5532
18302TIP3    H276398   3.118   6.468  12.478  0.5114 -1.1121 -0.0919
18303TIP3   OH276399   6.387   0.046   3.004 -0.6932 -0.4553 -1.1565
18303TIP3    H176400   6.318   0.032   2.940 -0.9615 -0.4601 -0.8680
18303TIP3    H276401   6.417   0.136   2.988 -0.1109 -0.7677 -1.9086
18304TIP3   OH276402   5.719   4.052  13.720 -0.0531 -0.3350 -0.1008
18304TIP3    H176403   5.783   4.096  13.776 -1.1798 -0.3904  1.2630
18304TIP3    H276404   5.692   4.120  13.658 -1.8494  1.0733  2.0476
18305TIP3   OH276405   2.665   2.538  17.172 -0.1054  0.0966 -0.6613
18305TIP3    H176406   2.663   2.443  17.163 -1.1578 -0.2606  2.3388
18305TIP3    H276407   2.742   2.555  17.227  0.1367  1.0258 -1.2655
18306TIP3   OH276408   4.835   0.031  13.184 -0.0200 -0.0875  0.3454
18306TIP3    H176409   4.915   0.027  13.131 -0.7034 -0.3853 -0.6969
18306TIP3    H276410   4.777   0.088  13.135 -0.5778 -0.1405  0.9321
18307TIP3   OH276411   3.256   5.386   6.411 -0.3026 -0.0500  0.0732
18307TIP3    H176412   3.176   5.354   6.368  0.6877 -0.6148 -1.4353
18307TIP3    H276413   3.295   5.308   6.451  0.2901 -0.0714 -0.5376
18308TIP3   OH276414   0.199   0.055  14.949  0.2547 -0.3733 -0.1574
18308TIP3    H176415   0.153   0.128  14.907  0.4902  0.3585  0.8180
18308TIP3    H276416   0.247   0.013  14.877  1.3317  1.3767 -0.5378
18309TIP3   OH276417   2.918   0.417   3.698  0.4538 -0.3545 -0.0545
18309TIP3    H176418   2.846   0.354   3.705  1.6200 -1.7367 -0.0607
18309TIP3    H276419   2.935   0.423   3.604 -0.5207  1.0479 -0.1806
18310TIP3   OH276420   4.044   5.780  15.695  0.2048 -0.6841 -0.3184
18310TIP3    H176421   4.111   5.714  15.709  0.1614 -0.8973 -1.0455
18310TIP3    H276422   4.021   5.812  15.782 -0.6545 -2.5014  0.1590
18311TIP3   OH276423   4.584   3.049   3.685  0.2321  0.0207  0.0148
18311TIP3    H176424   4.594   3.090   3.771  0.4384 -0.4537  0.2265
18311TIP3    H276425   4.631   3.107   3.625  1.0413 -0.2025  0.4052
18312TIP3   OH276426   4.800   1.073   5.801 -0.1945 -0.6171 -0.2936
18312TIP3    H176427   4.707   1.080   5.777 -0.5969  0.2663  1.3471
18312TIP3    H276428   4.799   1.063   5.896  1.4012 -1.0304 -0.2904
18313TIP3   OH276429   0.221   4.357   4.186 -0.4740 -0.3420  0.0586
18313TIP3    H176430   0.296   4.298   4.189 -1.4681 -1.6298  0.5844
18313TIP3    H276431   0.189   4.352   4.096  0.9772  1.4441 -0.6105
18314TIP3   OH276432   3.549   4.728   2.766 -0.1371  0.4705  0.1416
18314TIP3    H176433   3.497   4.691   2.837  0.6547  0.7967  0.9095
18314TIP3    H276434   3.602   4.655   2.735 -0.6968  0.2561 -0.3157
18315TIP3   OH276435   3.552   4.911  14.031 -0.0491  0.0843 -0.3414
18315TIP3    H176436   3.642   4.933  14.009  0.7498 -1.8710  0.7212
18315TIP3    H276437   3.549   4.915  14.127 -1.6176  1.8404 -0.3922
18316TIP3   OH276438   1.341   5.855   3.597 -0.2316 -0.8366  0.7514
18316TIP3    H176439   1.347   5.938   3.549 -1.6040 -1.2273 -0.1773
18316TIP3    H276440   1.423   5.849   3.645  0.8530  0.0049 -0.8927
18317TIP3   OH276441   4.221   5.405   5.048 -0.8486 -0.4354  0.1618
18317TIP3    H176442   4.177   5.394   5.133  1.1650 -2.3235  1.0791
18317TIP3    H276443   4.188   5.488   5.014 -1.4021  0.6448  3.0277
18318TIP3   OH276444   0.369   0.838   1.739 -0.1632  0.0582 -0.6176
18318TIP3    H176445   0.452   0.864   1.699 -0.5609  0.4685 -1.1924
18318TIP3    H276446   0.302   0.882   1.687 -0.7402 -0.1523 -0.0727
18319TIP3   OH276447   6.377   4.549  11.631  0.5994  0.0286 -0.5460
18319TIP3    H176448   6.320   4.625  11.623  0.3535 -0.2994 -2.2388
18319TIP3    H276449   6.324   4.484  11.677  1.3183  1.3092  2.3210
18320TIP3   OH276450   2.186   5.036  14.501  0.0239 -0.2032  0.0433
18320TIP3    H176451   2.119   4.998  14.558  0.3802 -0.4096  0.3249
18320TIP3    H276452   2.268   5.022  14.548  0.1461  1.0694  0.2422
18321TIP3   OH276453   0.814   6.366  13.514  0.3238  0.0697 -0.5429
18321TIP3    H176454   0.855   6.287  13.479 -0.2856 -0.9132  0.8392
18321TIP3    H276455   0.747   6.333  13.575  0.9241  1.6542  1.0653
18322TIP3   OH276456   1.758   5.568   1.288 -0.5986 -0.0063  0.2072
18322TIP3    H176457   1.678   5.594   1.242 -0.5590 -1.2230 -0.6003
18322TIP3    H276458   1.756   5.617   1.369 -2.3105 -0.1957  0.3204
18323TIP3   OH276459   1.178   2.113  13.551 -0.6795 -0.9749  0.3537
18323TIP3    H176460   1.085   2.090  13.552 -0.2334 -2.9697  0.2215
18323TIP3    H276461   1.195   2.151  13.637 -1.8897  0.7550 -0.1260
18324TIP3   OH276462   0.138   6.063  11.267  0.8392 -0.7443  0.3839
18324TIP3    H176463   0.206   6.112  11.312 -1.1724  1.6537  1.0803
18324TIP3    H276464   0.141   6.095  11.177 -1.3781  2.0600  1.1247
18325TIP3   OH276465   6.493   3.439  13.212 -0.6033  0.2692 -0.3992
18325TIP3    H176466   6.399   3.443  13.191 -0.7708  1.8024  0.4903
18325TIP3    H276467   6.505   3.505  13.280  0.9413 -0.6809  0.2931
18326TIP3   OH276468   0.278   4.027  15.581  0.2543  0.2824  0.1512
18326TIP3    H176469   0.370   4.053  15.569 -0.2281  2.4459  0.8155
18326TIP3    H276470   0.251   3.994  15.495  1.2484  0.9592 -0.4351
18327TIP3   OH276471   4.686   6.186  16.494 -0.1732 -0.2219  0.0411
18327TIP3    H176472   4.720   6.165  16.581 -0.0596 -1.7442 -0.3349
18327TIP3    H276473   4.695   6.104  16.445 -0.0045  0.6720 -1.4818
18328TIP3   OH276474   0.470   6.442   5.519  0.2310  0.0550  0.1217
18328TIP3    H176475   0.556   6.399   5.514  0.7694  1.0149  0.7523
18328TIP3    H276476   0.484   6.516   5.578 -1.0755  0.1502  0.3375
18329TIP3   OH276477   0.339   2.996   3.018  0.4379  0.1015  0.3074
18329TIP3    H176478   0.272   2.936   3.052  0.3551 -0.9504 -1.5691
18329TIP3    H276479   0.293   3.080   3.010 -1.3051 -0.9631 -2.5345
18330TIP3   OH276480   5.886   4.258  14.094 -0.2307 -0.5315 -0.0440
18330TIP3    H176481   5.801   4.300  14.110 -1.2438 -2.1114 -1.0842
18330TIP3    H276482   5.928   4.257  14.180 -1.7666 -0.7661  0.7372
18331TIP3   OH276483   0.930   1.054  12.467 -0.0355 -0.1532 -0.3458
18331TIP3    H176484   0.847   1.007  12.472  0.2769 -0.7375 -0.4709
18331TIP3    H276485   0.977   1.030  12.547  0.0907  0.0208 -0.3663
18332TIP3   OH276486   3.212   5.703  17.019  0.3524  0.0983  0.0499
18332TIP3    H176487   3.246   5.761  17.087  1.4228 -0.5400  0.0783
18332TIP3    H276488   3.261   5.728  16.940  1.3413 -1.1954  0.2147
18333TIP3   OH276489   4.010   4.770  15.520 -0.0923 -0.1926 -0.2023
18333TIP3    H176490   4.091   4.734  15.483 -0.3052  0.2153 -1.0736
18333TIP3    H276491   4.037   4.807  15.604  0.6612  0.0791 -0.5529
18334TIP3   OH276492   2.538   1.933  10.541 -0.5987 -0.2499  0.3890
18334TIP3    H176493   2.457   1.976  10.570 -0.3018 -1.1288  2.7930
18334TIP3    H276494   2.536   1.847  10.585  1.3569 -0.5089  0.0655
18335TIP3   OH276495   4.300   1.975   3.620  0.0770 -0.5409 -0.0645
18335TIP3    H176496   4.393   1.961   3.606 -0.0238 -0.6041 -0.7063
18335TIP3    H276497   4.295   2.031   3.698  0.6027 -1.3442  0.5549
18336TIP3   OH276498   4.151   2.776  13.594  0.5274  0.2673  0.0566
18336TIP3    H176499   4.214   2.746  13.660  0.6228 -0.4596 -0.3557
18336TIP3    H276500   4.113   2.855  13.632  0.2502 -0.3868  1.1920
18337TIP3   OH276501   5.738   0.003   1.036  0.3447  0.4558  0.0420
18337TIP3    H176502   5.799   0.029   1.105 -0.5083  0.0677  0.9648
18337TIP3    H276503   5.777  -0.075   0.997  0.7566  0.5878  0.1888
18338TIP3   OH276504   6.129   2.735  11.919  0.4577 -0.4724 -0.0467
18338TIP3    H176505   6.077   2.791  11.861  1.1693 -0.0167 -0.2453
18338TIP3    H276506   6.066   2.671  11.951 -0.4831  0.7073  0.5445
18339TIP3   OH276507   1.538   0.302  10.687  0.4228 -0.1436  0.1760
18339TIP3    H176508   1.496   0.252  10.617  1.7274 -1.0472  0.0070
18339TIP3    H276509   1.486   0.382  10.694 -1.7701 -1.5139  0.4885
18340TIP3   OH276510   3.079   3.996   1.649  0.8713  0.2659 -0.0946
18340TIP3    H176511   3.023   3.919   1.645  0.9599  0.0314  2.0291
18340TIP3    H276512   3.164   3.963   1.678  0.8400  1.1471  1.0998
18341TIP3   OH276513   6.527   6.196  16.897 -0.3005 -0.2671 -0.2852
18341TIP3    H176514   6.600   6.137  16.916 -0.9162 -0.5233  1.4518
18341TIP3    H276515   6.550   6.278  16.939 -1.1328 -0.4471  0.5600
18342TIP3   OH276516   1.986   5.112   4.038  0.5550  0.1673 -0.1097
18342TIP3    H176517   2.078   5.119   4.010  0.6987 -0.1915  0.2587
18342TIP3    H276518   1.974   5.018   4.056  0.2603  0.2869  0.3308
18343TIP3   OH276519   6.466   3.258  13.406 -0.2869  0.0297 -0.0223
18343TIP3    H176520   6.508   3.328  13.357 -0.4233 -0.4383 -0.8201
18343TIP3    H276521   6.485   3.179  13.357 -1.1127 -0.3442  0.2353
18344TIP3   OH276522   5.492   3.722  15.059 -0.5239  0.3432  0.5014
18344TIP3    H176523   5.445   3.648  15.021 -1.5883  0.4176  1.6424
18344TIP3    H276524   5.424   3.781  15.090  0.2913  1.9475 -0.5896
18345TIP3   OH276525   1.489   2.617   2.136 -0.0785 -0.2330 -0.3238
18345TIP3    H176526   1.426   2.549   2.161  0.7547 -0.9748 -0.2051
18345TIP3    H276527   1.571   2.591   2.178 -0.5806  2.9721  3.1757
18346TIP3   OH276528   1.974   6.688   1.384 -0.1662 -0.5714  0.0822
18346TIP3    H176529   1.939   6.774   1.361  2.2632  0.0857 -1.6519
18346TIP3    H276530   1.962   6.636   1.304  1.3936 -0.7322 -0.0802
18347TIP3   OH276531   0.985   0.305   1.223  0.2928  0.6880  0.0656
18347TIP3    H176532   1.076   0.311   1.252 -0.1097  0.9496  1.3511
18347TIP3    H276533   0.940   0.263   1.297 -0.8040  1.4870 -0.1271
18348TIP3   OH276534   3.979   5.697  16.626 -0.6319 -0.0695  0.2351
18348TIP3    H176535   3.958   5.759  16.695  0.4666  0.1360  0.4006
18348TIP3    H276536   4.015   5.621  16.672  1.6805  0.7106 -0.1418
18349TIP3   OH276537   0.048   0.799   4.070  0.4209 -0.4042  0.2612
18349TIP3    H176538   0.058   0.892   4.051 -1.6314  0.1244  1.4859
18349TIP3    H276539   0.124   0.758   4.029  2.1370  1.9510  0.8495
18350TIP3   OH276540   5.497   4.259  12.573  0.0539 -0.1583  0.1597
18350TIP3    H176541   5.427   4.201  12.603  0.1055 -0.7977 -0.9145
18350TIP3    H276542   5.511   4.319  12.646 -1.0642 -0.5222  0.6965
18351TIP3   OH276543   0.992   1.028  16.074  0.3495  0.3157 -0.3025
18351TIP3    H176544   1.019   1.075  16.153  0.5158 -1.1693  0.5598
18351TIP3    H276545   1.029   1.079  16.002  1.8526  0.6528  0.6581
18352TIP3   OH276546   5.252   0.447  16.288  0.5467 -0.1694 -0.2575
18352TIP3    H176547   5.247   0.352  16.294 -1.3078 -0.1743 -1.1257
18352TIP3    H276548   5.290   0.474  16.372 -0.7458 -1.5677  0.8521
18353TIP3   OH276549   4.597   6.394   2.290  0.4297  0.2858 -1.0049
18353TIP3    H176550   4.582   6.302   2.311  1.1409  0.6095  1.2123
18353TIP3    H276551   4.510   6.430   2.275  0.0292 -0.4600 -0.5184
18354TIP3   OH276552   2.907   6.100   2.908  0.4690  0.4430 -0.1688
18354TIP3    H176553   2.962   6.044   2.853  1.7579  1.4256  0.0908
18354TIP3    H276554   2.837   6.041   2.938  0.9677 -0.6573 -1.0727
18355TIP3   OH276555   6.597   3.041  14.648 -0.8926 -0.4304  0.2943
18355TIP3    H176556   6.594   3.106  14.578 -2.1582 -0.7165  0.0607
18355TIP3    H276557   6.507   3.036  14.680 -0.7015 -1.6659  0.6822
18356TIP3   OH276558   4.723   2.972   1.092 -0.2713  0.2810 -0.1255
18356TIP3    H176559   4.665   3.030   1.141  0.6368  2.5842 -1.6335
18356TIP3    H276560   4.809   3.015   1.096  0.5773 -1.2677 -0.8478
18357TIP3   OH276561   0.803   4.325  15.539 -0.2336  0.0655  0.1704
18357TIP3    H176562   0.833   4.387  15.473  0.6220  0.1506  0.6207
18357TIP3    H276563   0.709   4.340  15.545 -0.0922  1.0699  0.0092
18358TIP3   OH276564   6.606   5.525  12.692  0.1031 -0.5620 -0.2378
18358TIP3    H176565   6.605   5.593  12.760 -1.1775  0.1705 -0.9391
18358TIP3    H276566   6.653   5.452  12.731  3.0201  1.2753 -0.0000
18359TIP3   OH276567   2.444   4.516   1.626 -0.7289  0.1205  0.0536
18359TIP3    H176568   2.408   4.551   1.707 -0.4040 -1.3869  0.8705
18359TIP3    H276569   2.512   4.455   1.653 -0.5231 -0.3258 -1.3560
18360TIP3   OH276570   4.507   0.411  15.898 -0.7371 -0.3675 -0.2637
18360TIP3    H176571   4.597   0.380  15.903 -0.6287 -0.0867 -0.4908
18360TIP3    H276572   4.479   0.419  15.990 -0.7321 -1.0318 -0.1990
18361TIP3   OH276573   4.314   6.531  16.819  0.1524 -0.5643  0.0294
18361TIP3    H176574   4.328   6.595  16.750  0.7485 -0.3929  0.3071
18361TIP3    H276575   4.339   6.575  16.899  0.4274 -1.0932  0.2426
18362TIP3   OH276576   0.278   1.883  16.015 -0.0390  0.7470  0.5521
18362TIP3    H176577   0.191   1.875  16.053  0.0086 -0.2947  0.4544
18362TIP3    H276578   0.270   1.955  15.953 -1.3184 -0.4658 -0.7606
18363TIP3   OH276579   1.724   3.117   2.887  0.4222 -0.3692  0.3509
18363TIP3    H176580   1.816   3.128   2.912  0.6219 -0.6523 -0.2411
18363TIP3    H276581   1.710   3.182   2.817 -0.2177  0.6357  1.3747
18364TIP3   OH276582   3.013   5.734  11.549  0.5019 -0.3629  0.3040
18364TIP3    H176583   2.972   5.769  11.471 -0.8899 -0.7067  0.8560
18364TIP3    H276584   2.971   5.779  11.622 -0.2794 -2.0698  0.9614
18365TIP3   OH276585   6.356   5.779   6.026  0.1522 -0.4262 -0.5413
18365TIP3    H176586   6.398   5.862   6.048 -0.7897  0.1267 -0.7716
18365TIP3    H276587   6.358   5.775   5.930  0.6760 -0.9291 -0.5138
18366TIP3   OH276588   2.297   2.771  15.625 -0.0343 -0.1470 -0.1735
18366TIP3    H176589   2.298   2.728  15.711 -0.5219  2.9051  1.5181
18366TIP3    H276590   2.373   2.829  15.627 -1.0811  1.3159 -1.0290
18367TIP3   OH276591   1.680   0.682   1.739 -0.0801  0.0722 -0.4942
18367TIP3    H176592   1.681   0.709   1.647  0.1617 -2.3302 -1.2684
18367TIP3    H276593   1.618   0.743   1.780 -0.0217  1.3661 -2.1690
18368TIP3   OH276594   4.387   3.856  16.982 -0.6188  0.1246 -0.0217
18368TIP3    H176595   4.411   3.909  17.058 -2.1487  0.9346 -0.0768
18368TIP3    H276596   4.292   3.864  16.975 -0.6200 -0.7197 -1.4552
18369TIP3   OH276597   1.298   1.065   5.006  0.4487 -0.1340  0.3645
18369TIP3    H176598   1.281   1.121   5.082  0.6708  0.5481 -0.0757
18369TIP3    H276599   1.291   0.976   5.039 -2.4589  0.0871  0.5412
18370TIP3   OH276600   4.288   5.674   5.337 -0.3662  0.3477  0.3279
18370TIP3    H176601   4.258   5.587   5.312 -0.3164 -0.1630  1.9272
18370TIP3    H276602   4.230   5.734   5.289 -0.8023 -0.5715 -0.3131
18371TIP3   OH276603   6.026   2.993   0.458 -0.3542 -0.7224 -0.0986
18371TIP3    H176604   6.064   2.949   0.383  3.7096  0.0245  1.2819
18371TIP3    H276605   5.957   3.049   0.421  1.3759 -0.4863 -3.2535
18372TIP3   OH276606   0.491   5.674  15.327  0.3853 -0.1430 -0.1517
18372TIP3    H176607   0.397   5.675  15.312  0.0771  1.4209  1.5734
18372TIP3    H276608   0.500   5.658  15.421  1.8295  0.1054 -0.2303
18373TIP3   OH276609   6.541   3.231  16.899  0.8464 -0.5298  0.4393
18373TIP3    H176610   6.588   3.150  16.876  0.5079 -0.6585  0.2069
18373TIP3    H276611   6.526   3.275  16.815 -0.0204 -0.8007  0.4430
18374TIP3   OH276612   1.906   5.612  15.905 -0.6769  0.0712 -0.3065
18374TIP3    H176613   1.866   5.628  15.820 -2.0320 -0.1753  0.2488
18374TIP3    H276614   1.831   5.594  15.963  0.1398  1.2586  1.1649
18375TIP3   OH276615   0.299   6.498   2.075 -0.0398  0.5842  0.0427
18375TIP3    H176616   0.248   6.559   2.129  1.4557  0.9332  1.1476
18375TIP3    H276617   0.303   6.539   1.989 -0.8311  0.9944  0.1914
18376TIP3   OH276618   3.133   2.903  14.488 -0.2113 -0.1029  0.6471
18376TIP3    H176619   3.104   2.874  14.574  1.1215 -0.4308  1.0136
18376TIP3    H276620   3.184   2.830  14.454  1.1136  0.8341  0.5237
18377TIP3   OH276621   0.525   3.721   1.146 -0.2556 -0.4508 -0.3192
18377TIP3    H176622   0.465   3.773   1.200  0.6863  0.9209 -0.5397
18377TIP3    H276623   0.526   3.767   1.062  2.3841  0.6196  0.1963
18378TIP3   OH276624   0.526   1.777  16.356 -0.0576 -0.1689  0.2418
18378TIP3    H176625   0.526   1.744  16.266 -1.3158  0.6759 -0.0950
18378TIP3    H276626   0.615   1.760  16.387  0.5624 -0.0296 -1.3270
18379TIP3   OH276627   3.961   0.652  16.484  0.0593  0.0464  0.2912
18379TIP3    H176628   3.886   0.684  16.434  0.2755 -0.3062 -0.2634
18379TIP3    H276629   3.984   0.725  16.541  1.2155  1.3213 -1.6990
18380TIP3   OH276630   4.532   5.771  10.841 -1.0067  0.2187 -0.3432
18380TIP3    H176631   4.518   5.680  10.870  0.4236  0.1836  0.3360
18380TIP3    H276632   4.569   5.763  10.753 -1.3039  0.1640 -0.4636
18381TIP3   OH276633   4.079   4.051  13.329 -0.1387 -0.0969 -0.3548
18381TIP3    H176634   3.987   4.025  13.325 -0.0443 -0.4051 -3.4483
18381TIP3    H276635   4.105   4.059  13.237  2.6026  1.2040  0.4322
18382TIP3   OH276636   1.071   4.781  11.103 -0.2385 -0.6340  0.5348
18382TIP3    H176637   1.074   4.732  11.186  0.3407 -1.0506  0.2756
18382TIP3    H276638   1.120   4.862  11.122  0.2084 -0.8911  0.5050
18383TIP3   OH276639   1.424   1.614   0.888 -0.5373  0.0091 -0.3717
18383TIP3    H176640   1.442   1.649   0.976 -1.0821 -0.4881 -0.0536
18383TIP3    H276641   1.510   1.589   0.854 -0.0518  2.0343 -0.7936
18384TIP3   OH276642   2.357   4.174   0.538 -0.7171 -0.6883 -0.3454
18384TIP3    H176643   2.291   4.163   0.469 -1.4967  0.9221  0.1015
18384TIP3    H276644   2.322   4.126   0.613 -0.4136 -1.4890 -0.7043
18385TIP3   OH276645   5.745   5.712  15.939 -0.6104 -0.1198 -0.0101
18385TIP3    H176646   5.794   5.630  15.949 -1.7221 -0.8669 -0.4386
18385TIP3    H276647   5.712   5.709  15.850 -3.2158 -0.7151  0.8635
18386TIP3   OH276648   1.347   0.561   3.209 -0.4035 -0.1233 -0.3732
18386TIP3    H176649   1.302   0.567   3.293 -1.8287 -2.0299 -0.9417
18386TIP3    H276650   1.419   0.624   3.216 -0.3377 -0.3849  2.3479
18387TIP3   OH276651   5.449   1.252   2.129  0.3309 -0.4464  0.0890
18387TIP3    H176652   5.537   1.279   2.157  0.4612 -0.9149  0.1337
18387TIP3    H276653   5.464   1.192   2.056  0.1195 -1.6582  1.0086
18388TIP3   OH276654   1.566   2.457  14.895  0.0942 -0.7614 -0.3194
18388TIP3    H176655   1.620   2.518  14.944  2.1089 -1.5629 -1.4060
18388TIP3    H276656   1.498   2.511  14.855  1.4308  0.6711 -0.7238
18389TIP3   OH276657   3.858   6.009  12.335 -0.1269 -0.1189 -0.0791
18389TIP3    H176658   3.842   6.014  12.241 -1.3818 -1.2947  0.0478
18389TIP3    H276659   3.794   5.947  12.368  2.2675 -2.1941  1.0733
18390TIP3   OH276660   2.258   1.909   0.645  0.3628 -0.0536 -0.3656
18390TIP3    H176661   2.166   1.901   0.622  0.1653  2.3563 -0.6381
18390TIP3    H276662   2.295   1.823   0.624 -1.5445 -0.6673 -1.4811
18391TIP3   OH276663   2.452   3.630   2.156 -0.0871 -0.5000  0.1222
18391TIP3    H176664   2.415   3.623   2.068  3.6273 -2.7072 -1.5100
18391TIP3    H276665   2.376   3.628   2.214 -2.6707  0.2975 -2.9634
18392TIP3   OH276666   5.841   4.838  12.485 -0.5080  0.1725 -0.5839
18392TIP3    H176667   5.804   4.921  12.454  1.6022  0.7095 -1.9065
18392TIP3    H276668   5.923   4.864  12.529  0.6383 -1.2526 -1.8043
18393TIP3   OH276669   4.888   2.890  15.870 -0.7645 -0.3292 -0.3799
18393TIP3    H176670   4.861   2.829  15.938 -0.0479 -1.0021 -0.6810
18393TIP3    H276671   4.865   2.847  15.788 -1.0076  0.1770 -0.5822
18394TIP3   OH276672   4.377   5.849  10.412  0.4031  0.0311  0.3054
18394TIP3    H176673   4.463   5.889  10.401  0.3056  0.0896 -0.2854
18394TIP3    H276674   4.394   5.769  10.462  0.4084  1.5419  2.9066
18395TIP3   OH276675   5.469   3.524  16.286 -0.0770  0.0765  0.2185
18395TIP3    H176676   5.548   3.566  16.318  0.3799 -0.2481 -0.4673
18395TIP3    H276677   5.478   3.432  16.313  0.1913 -0.1448 -0.6011
18396TIP3   OH276678   1.455   6.777   1.106 -0.7290 -0.2885  0.4983
18396TIP3    H176679   1.382   6.735   1.151 -1.3308  0.7389  0.4980
18396TIP3    H276680   1.426   6.786   1.016 -0.0564 -1.0985  0.1836
18397TIP3   OH276681   1.879   3.990   1.799 -0.5605  0.0795  0.2189
18397TIP3    H176682   1.804   4.048   1.814 -0.3504  0.6178 -0.7368
18397TIP3    H276683   1.840   3.907   1.770 -0.7786  0.5717 -0.9533
18398TIP3   OH276684   5.276   0.993  14.834 -0.3971 -0.1040  0.5863
18398TIP3    H176685   5.312   1.081  14.823  0.4041 -0.3402  1.2121
18398TIP3    H276686   5.225   0.978  14.755 -1.4106  1.3236  0.9313
18399TIP3   OH276687   0.377   5.395   5.623 -0.2814 -0.0888 -0.6771
18399TIP3    H176688   0.373   5.488   5.645 -0.1559 -0.1498 -0.3871
18399TIP3    H276689   0.287   5.364   5.633 -0.1268 -0.2399  0.3232
18400TIP3   OH276690   6.041   1.544   1.370 -0.3368  0.3707 -0.0648
18400TIP3    H176691   6.125   1.525   1.328 -0.7014 -0.7285 -0.3210
18400TIP3    H276692   5.994   1.598   1.306  0.1057  0.8724  0.0236
18401TIP3   OH276693   3.245   0.344  15.006  0.7926 -0.1953  0.3002
18401TIP3    H176694   3.172   0.403  15.022  0.5720 -0.8079  1.6263
18401TIP3    H276695   3.321   0.389  15.042  0.9601  0.1158 -0.4213
18402TIP3   OH276696   5.133   0.308  17.154 -0.3886  0.7159  0.3072
18402TIP3    H176697   5.055   0.338  17.107  0.1764  1.3001 -0.2802
18402TIP3    H276698   5.110   0.220  17.185 -1.5427  1.1680  0.7846
18403TIP3   OH276699   1.975   0.758  11.417 -0.3985 -0.1375  0.4746
18403TIP3    H176700   1.982   0.667  11.388  0.5386 -0.0867  0.5148
18403TIP3    H276701   2.065   0.788  11.426 -0.6711  1.2412 -0.8831
18404TIP3   OH276702   2.225   4.225  12.988  0.4411 -0.3133  0.2879
18404TIP3    H176703   2.251   4.241  13.078 -0.7182 -0.1899  0.6156
18404TIP3    H276704   2.243   4.307  12.942  1.8119 -0.6367  0.1949
18405TIP3   OH276705   5.829   5.152   2.670  0.1759  0.2062 -0.0751
18405TIP3    H176706   5.786   5.085   2.616  0.5291 -0.8121  0.8618
18405TIP3    H276707   5.912   5.168   2.625 -0.1174  0.3818 -0.5658
18406TIP3   OH276708   3.901   6.333  16.299 -0.0768 -0.0738 -0.1440
18406TIP3    H176709   3.964   6.365  16.363 -0.1796 -0.6345  0.2489
18406TIP3    H276710   3.887   6.406  16.240  2.0042 -0.3568 -1.0845
18407TIP3   OH276711   5.467   1.964  12.563  0.1059 -0.4677 -0.8313
18407TIP3    H176712   5.457   1.876  12.526  1.1312 -0.4298 -1.2364
18407TIP3    H276713   5.492   1.949  12.654  0.4432 -0.6086 -0.9439
18408TIP3   OH276714   4.246   4.426   5.222 -0.2570  0.3089 -0.0211
18408TIP3    H176715   4.160   4.448   5.187 -0.7904 -0.7706  0.5863
18408TIP3    H276716   4.263   4.495   5.287  0.5669  2.0960 -1.9916
18409TIP3   OH276717   2.454   2.704   1.269  0.1968 -0.2219 -0.0811
18409TIP3    H176718   2.533   2.679   1.316  1.3308  0.9082 -1.2960
18409TIP3    H276719   2.486   2.751   1.192 -1.6658  2.9939  0.9282
18410TIP3   OH276720   0.718   1.653   2.631 -1.2207 -0.0542 -0.1904
18410TIP3    H176721   0.743   1.700   2.552 -1.5032  0.2307 -0.1111
18410TIP3    H276722   0.801   1.617   2.664 -1.3608 -1.9523 -1.7267
18411TIP3   OH276723   0.342   6.705  16.514 -0.0496  0.0535 -0.3676
18411TIP3    H176724   0.428   6.732  16.546  0.5269 -1.5825 -0.4457
18411TIP3    H276725   0.360   6.630  16.457 -1.5268 -0.2881 -0.4251
18412TIP3   OH276726   4.498   5.640  10.553  0.2636  0.2416 -0.0422
18412TIP3    H176727   4.515   5.547  10.537  0.6088 -0.0534  1.8231
18412TIP3    H276728   4.584   5.678  10.568  0.1297  0.8983 -0.8613
18413TIP3   OH276729   1.020   3.694   0.547  0.0708 -0.0555 -0.0835
18413TIP3    H176730   1.060   3.716   0.463 -0.9282 -1.2506 -0.9162
18413TIP3    H276731   0.936   3.740   0.546  0.3124  0.4238  0.5585
18414TIP3   OH276732   0.370   0.817  14.342 -0.0812  0.0897  0.2228
18414TIP3    H176733   0.418   0.810  14.424  0.9045 -0.5011 -0.3927
18414TIP3    H276734   0.281   0.788  14.364  0.3195 -0.6203  0.9524
18415TIP3   OH276735   5.774   0.117  14.264  0.1840 -0.4960  0.5786
18415TIP3    H176736   5.685   0.104  14.297 -0.4950  0.5976 -0.7335
18415TIP3    H276737   5.783   0.052  14.194 -0.0175  0.1739 -0.0760
18416TIP3   OH276738   4.334   2.916  15.936  0.6675  0.2476  0.4281
18416TIP3    H176739   4.296   2.835  15.902  0.7084  0.9434 -1.3692
18416TIP3    H276740   4.429   2.903  15.927  0.7978 -0.3243  2.1782
18417TIP3   OH276741   1.783   1.269  11.321  0.3942 -0.4119 -0.3007
18417TIP3    H176742   1.780   1.342  11.259 -1.7451 -0.9317 -0.9294
18417TIP3    H276743   1.721   1.206  11.285  0.9020 -1.7940  1.1359
18418TIP3   OH276744   3.491   4.651  11.009 -0.5133  0.0590  0.1989
18418TIP3    H176745   3.565   4.613  10.961  0.4699  1.4540  0.5611
18418TIP3    H276746   3.416   4.638  10.951  0.7278  2.1981 -2.0745
18419TIP3   OH276747   2.703   1.310  15.997 -0.1910 -0.1089 -0.7970
18419TIP3    H176748   2.740   1.310  15.908  1.8484  0.8301  0.0022
18419TIP3    H276749   2.664   1.397  16.007 -1.7936 -0.7238 -1.2428
18420TIP3   OH276750   0.874   2.584   5.805  0.1514  0.2943 -0.1072
18420TIP3    H176751   0.790   2.629   5.810 -1.0684 -1.7295 -0.8909
18420TIP3    H276752   0.940   2.652   5.819 -1.6189  1.8754  0.8788
18421TIP3   OH276753   4.788   6.531  13.236 -0.2786 -0.6434 -0.2667
18421TIP3    H176754   4.721   6.564  13.177  1.2167  1.4447 -0.9456
18421TIP3    H276755   4.810   6.606  13.293 -0.8574 -2.2488  2.2313
18422TIP3   OH276756   3.741   2.485   2.743  0.0025 -0.0668 -0.3525
18422TIP3    H176757   3.711   2.473   2.653  0.4789  0.0684 -0.5302
18422TIP3    H276758   3.746   2.396   2.778  1.9161 -0.3156 -1.1445
18423TIP3   OH276759   3.541   6.284   5.101  0.0848  0.0160  0.3071
18423TIP3    H176760   3.488   6.216   5.141  0.6944  0.5661  2.1529
18423TIP3    H276761   3.501   6.366   5.131  0.2370  0.4599 -0.6719
18424TIP3   OH276762   0.620   2.538  13.826 -0.2200  0.1872  0.0999
18424TIP3    H176763   0.715   2.539  13.826 -0.2158 -0.2104  0.2358
18424TIP3    H276764   0.595   2.592  13.751  0.1049  0.6966  0.3526
18425TIP3   OH276765   5.277   1.444  11.587 -0.1877  0.1249  0.1382
18425TIP3    H176766   5.250   1.466  11.498 -0.7303  0.2065  0.3200
18425TIP3    H276767   5.196   1.440  11.636  0.2207  1.5775  0.9806
18426TIP3   OH276768   3.858   3.755   4.160 -0.1991 -0.7551 -0.2759
18426TIP3    H176769   3.856   3.731   4.068  1.0910 -1.5030 -0.1357
18426TIP3    H276770   3.906   3.684   4.203  0.4236  0.2318  0.7483
18427TIP3   OH276771   3.746   4.838  13.406  0.0027 -0.6227 -0.2160
18427TIP3    H176772   3.686   4.765  13.401 -1.3157  0.2916  1.3619
18427TIP3    H276773   3.748   4.862  13.498 -1.3982  2.7271 -0.9058
18428TIP3   OH276774   4.592   0.931   5.160 -0.0673 -0.0107 -0.6356
18428TIP3    H176775   4.619   0.840   5.153 -0.5553 -0.1580 -0.6257
18428TIP3    H276776   4.661   0.973   5.213 -0.5328 -0.6659  0.5179
18429TIP3   OH276777   1.264   1.949  13.986 -0.3534  0.2675  0.3868
18429TIP3    H176778   1.334   1.934  14.050 -0.5278  0.0255  0.5249
18429TIP3    H276779   1.306   1.995  13.914  0.0465 -0.2577  0.2751
18430TIP3   OH276780   1.412   5.089  14.115 -0.7219 -0.4600 -0.1775
18430TIP3    H176781   1.322   5.110  14.090 -1.0588 -2.6154 -0.9836
18430TIP3    H276782   1.438   5.018  14.056  1.0114 -0.8633  0.9732
18431TIP3   OH276783   3.447   0.619  10.446 -0.3259  0.2561  0.4208
18431TIP3    H176784   3.514   0.551  10.452 -0.2555 -0.0755 -2.4813
18431TIP3    H276785   3.497   0.701  10.439  0.0758 -0.1286 -3.6090
18432TIP3   OH276786   1.345   1.723   5.158 -0.0216 -0.2653  0.3214
18432TIP3    H176787   1.378   1.671   5.084 -1.2892  0.0228 -0.4681
18432TIP3    H276788   1.302   1.798   5.117  0.5199  0.6712  1.4175
18433TIP3   OH276789   2.597   5.387  13.159  0.3495  0.0942 -0.0319
18433TIP3    H176790   2.596   5.481  13.139  0.3540  0.3636  1.1285
18433TIP3    H276791   2.684   5.372  13.196  0.4414 -0.4249 -0.4601
18434TIP3   OH276792   4.970   5.153  12.230  0.4931  0.1807 -0.3164
18434TIP3    H176793   4.958   5.088  12.299  0.9518  0.6546  0.2232
18434TIP3    H276794   5.056   5.192  12.249 -0.2551  1.7246  0.0529
18435TIP3   OH276795   2.667   0.440   5.940 -0.0402  0.7602 -0.0799
18435TIP3    H176796   2.744   0.481   5.978  0.1560  1.1106 -0.8336
18435TIP3    H276797   2.677   0.453   5.845  0.1029 -1.1549 -0.3761
18436TIP3   OH276798   2.043   5.576  16.424 -0.1991  0.1712 -0.0549
18436TIP3    H176799   2.083   5.532  16.499 -1.0559  0.7261  0.7492
18436TIP3    H276800   2.031   5.507  16.359  2.2219  0.0184 -0.4264
18437TIP3   OH276801   5.046   1.834  14.955 -0.0545 -0.3756  0.1469
18437TIP3    H176802   4.976   1.879  14.908  0.2386 -0.7960 -0.7324
18437TIP3    H276803   5.127   1.867  14.915  0.1683 -1.4782 -0.3489
18438TIP3   OH276804   4.140   6.201   0.971 -0.3638  0.1607  0.1900
18438TIP3    H176805   4.057   6.201   0.922 -0.3604  1.6090  0.1299
18438TIP3    H276806   4.166   6.293   0.972 -0.5326  0.2509  3.2159
18439TIP3   OH276807   5.464   0.621  13.430 -0.1352  0.6495  0.0064
18439TIP3    H176808   5.527   0.633  13.359  0.6772 -0.3494  0.5385
18439TIP3    H276809   5.379   0.618  13.386  0.0913  2.5463 -0.6703
18440TIP3   OH276810   1.670   6.565   1.997  0.2660  0.1276 -0.0196
18440TIP3    H176811   1.630   6.627   1.936  0.2531  1.1706  1.0222
18440TIP3    H276812   1.763   6.566   1.974 -0.0846 -1.6209 -1.8444
18441TIP3   OH276813   6.787   3.155   1.214  0.3576 -0.0004  0.1847
18441TIP3    H176814   6.712   3.101   1.240 -1.3957  1.7001 -1.0446
18441TIP3    H276815   6.854   3.136   1.280 -1.1323 -1.5960  1.3503
18442TIP3   OH276816   6.572   3.880  11.231 -0.0811 -0.1070  0.2066
18442TIP3    H176817   6.631   3.811  11.200  0.3322 -0.2280  1.2059
18442TIP3    H276818   6.546   3.927  11.152 -0.2928 -1.3426 -0.4857
18443TIP3   OH276819   0.758   2.831   1.985  0.5084 -0.1342 -0.0799
18443TIP3    H176820   0.679   2.807   1.936  0.3107  0.0120  0.1588
18443TIP3    H276821   0.784   2.749   2.028  0.5561 -0.2113 -0.2550
18444TIP3   OH276822   2.501   0.918   4.823 -0.5664  0.3882  0.3074
18444TIP3    H176823   2.496   0.823   4.822  0.6236  0.2767  1.7501
18444TIP3    H276824   2.535   0.940   4.910 -0.3956  2.0941 -0.1505
18445TIP3   OH276825   6.634   1.821  10.707 -0.1266 -0.2114  0.6899
18445TIP3    H176826   6.707   1.882  10.702 -1.6059  1.6370  0.7135
18445TIP3    H276827   6.637   1.773  10.625  1.8462 -1.1092  1.2185
18446TIP3   OH276828   2.952   2.284  13.511 -0.0300  0.0456  0.1009
18446TIP3    H176829   3.043   2.301  13.538  0.8530  0.6878 -2.9325
18446TIP3    H276830   2.951   2.192  13.487  0.9254  0.7949 -3.2946
18447TIP3   OH276831   6.067   1.004   3.272 -0.5477  0.2028 -0.1357
18447TIP3    H176832   5.996   0.973   3.329  0.3439  2.5959  2.5362
18447TIP3    H276833   6.147   0.981   3.320  0.3119  0.9530 -1.1744
18448TIP3   OH276834   6.289   5.296   1.886 -0.1203  0.2609 -0.1280
18448TIP3    H176835   6.206   5.334   1.913 -0.3719 -1.2893  1.4868
18448TIP3    H276836   6.265   5.217   1.837  0.3512 -0.5686  0.9240
18449TIP3   OH276837   0.616   6.366  13.974 -0.0188 -0.2992  0.1411
18449TIP3    H176838   0.521   6.359  13.964  0.0338  1.6534 -4.0600
18449TIP3    H276839   0.651   6.289  13.929  0.4073 -0.5574  0.9007
18450TIP3   OH276840   4.190   4.658  15.340 -0.2125  0.5333  0.1288
18450TIP3    H176841   4.144   4.575  15.354 -1.0100  0.8356 -0.5766
18450TIP3    H276842   4.282   4.633  15.332 -0.1100  0.0025  2.3600
18451TIP3   OH276843   6.781   4.475   0.948 -0.1022 -0.3878  0.1477
18451TIP3    H176844   6.784   4.475   1.044 -0.6209 -0.7520  0.1685
18451TIP3    H276845   6.719   4.406   0.926  0.3749 -0.6284 -0.4695
18452TIP3   OH276846   4.124   2.119  12.503 -0.8029 -0.2374  0.2892
18452TIP3    H176847   4.160   2.197  12.546 -1.4309  1.7775 -2.5032
18452TIP3    H276848   4.039   2.148  12.470 -0.5747 -1.7293 -1.7879
18453TIP3   OH276849   4.332   0.725   1.716 -0.0133  0.1841  0.2016
18453TIP3    H176850   4.382   0.644   1.728 -1.3897 -0.5993  0.8755
18453TIP3    H276851   4.357   0.756   1.629  3.1981  0.9811  1.2451
18454TIP3   OH276852   4.986   2.260   3.265  0.1029 -0.4189  0.3886
18454TIP3    H176853   5.015   2.265   3.174 -0.4002 -3.6651 -0.0517
18454TIP3    H276854   5.064   2.231   3.313 -0.4641 -1.9946  0.4007
18455TIP3   OH276855   5.174   1.034  12.454 -0.3660 -0.7436 -0.0281
18455TIP3    H176856   5.254   0.983  12.463 -0.6930 -1.5318 -1.2949
18455TIP3    H276857   5.178   1.098  12.526  1.8751 -0.0809 -0.6540
18456TIP3   OH276858   5.689   4.982  17.013 -1.2010 -0.6498 -0.3547
18456TIP3    H176859   5.694   4.926  17.090 -3.3494 -0.2590  0.1323
18456TIP3    H276860   5.595   4.997  17.000 -0.8074  0.7400 -1.9965
18457TIP3   OH276861   3.163   1.982  16.975 -0.0481 -0.3491 -0.2588
18457TIP3    H176862   3.094   1.995  16.910  0.4657 -1.5620 -1.0870
18457TIP3    H276863   3.128   1.916  17.034 -0.7707  1.2193  1.1092
18458TIP3   OH276864   4.020   3.965   1.959  0.0079 -0.1544  0.1768
18458TIP3    H176865   4.082   3.914   1.906 -1.2475  0.1966 -1.7251
18458TIP3    H276866   3.963   4.008   1.894 -2.0048 -0.1828  1.8495
18459TIP3   OH276867   5.823   3.595   2.984  0.1759 -0.4486  0.0423
18459TIP3    H176868   5.744   3.622   3.029 -0.2691 -0.6609 -0.5915
18459TIP3    H276869   5.792   3.541   2.911  0.6861  1.8713 -2.0309
18460TIP3   OH276870   6.526   4.686  15.533 -0.1882 -0.3545  0.0533
18460TIP3    H176871   6.458   4.754  15.529 -0.9383 -1.1067 -0.1181
18460TIP3    H276872   6.528   4.659  15.625  0.9519  0.7160  0.3781
18461TIP3   OH276873   6.261   2.772  14.783 -0.3399  0.0630  0.2503
18461TIP3    H176874   6.279   2.680  14.763 -1.6889 -0.1459 -0.1151
18461TIP3    H276875   6.218   2.770  14.869 -1.0535  0.2633 -0.0907
18462TIP3   OH276876   2.230   4.385   1.536  0.5293  0.8025  0.1868
18462TIP3    H176877   2.228   4.332   1.616  1.1493 -0.9223 -0.8711
18462TIP3    H276878   2.288   4.458   1.557  0.1856  0.7283  1.4930
18463TIP3   OH276879   2.300   4.606  16.650  0.3892  0.6340 -0.0310
18463TIP3    H176880   2.294   4.518  16.613  1.6289  1.7854 -3.3192
18463TIP3    H276881   2.382   4.606  16.698 -0.0150 -0.1736  0.7081
18464TIP3   OH276882   5.403   5.591  16.734 -0.0401 -0.0862  0.3116
18464TIP3    H176883   5.404   5.495  16.737 -1.7098 -0.1321  0.3589
18464TIP3    H276884   5.434   5.613  16.646 -1.6449 -0.7641 -0.4443
18465TIP3   OH276885   0.888   2.691  14.912  0.5597 -0.0465 -0.4958
18465TIP3    H176886   0.878   2.676  14.818  0.4216 -0.4826 -0.4136
18465TIP3    H276887   0.961   2.635  14.937  1.4459  1.0434 -0.5763
18466TIP3   OH276888   0.080   5.610  13.372 -0.0970  0.6266 -0.8800
18466TIP3    H176889  -0.013   5.631  13.366 -0.6391 -1.6122 -1.0241
18466TIP3    H276890   0.119   5.653  13.296 -0.5882  3.3575  0.3033
18467TIP3   OH276891   1.469   5.810  12.122 -0.2986 -1.0774  0.0362
18467TIP3    H176892   1.562   5.823  12.107 -0.6467  1.2706 -0.4687
18467TIP3    H276893   1.436   5.773  12.041 -0.4888  2.3753 -1.6603
18468TIP3   OH276894   0.885   5.374  15.888 -0.6517 -0.0150 -0.6849
18468TIP3    H176895   0.875   5.298  15.831 -2.5826  0.8360 -1.5721
18468TIP3    H276896   0.803   5.423  15.877  0.7802  2.5378 -0.6711
18469TIP3   OH276897   2.739   1.211  15.718  0.1499  0.0476 -0.3927
18469TIP3    H176898   2.687   1.288  15.697 -0.1526 -0.2509 -0.7495
18469TIP3    H276899   2.678   1.150  15.759  0.5191  0.2256  0.4478
18470TIP3   OH276900   0.015   4.554   3.433 -0.4981  0.1219 -0.4319
18470TIP3    H176901  -0.061   4.568   3.377 -1.5575 -1.2304  0.6073
18470TIP3    H276902   0.007   4.622   3.500 -0.8778 -0.1156 -0.2346
18471TIP3   OH276903   5.502   4.150  15.647 -0.1263 -0.7312 -0.5625
18471TIP3    H176904   5.578   4.136  15.590  0.0177 -2.1768 -0.0666
18471TIP3    H276905   5.496   4.070  15.699 -2.0834 -0.7066 -0.6760
18472TIP3   OH276906   2.511   6.399   4.657  0.1455  0.2647  0.0068
18472TIP3    H176907   2.555   6.463   4.714  0.8519 -0.3397  0.1547
18472TIP3    H276908   2.581   6.365   4.601 -0.0997 -0.7885  0.3195
18473TIP3   OH276909   1.600   6.814  12.467  0.0413  0.1116  0.0609
18473TIP3    H176910   1.519   6.864  12.463  0.4427  0.7513 -0.3418
18473TIP3    H276911   1.572   6.722  12.469 -0.6764  0.3084 -0.5430
18474TIP3   OH276912   4.680   4.651  10.860  0.2114 -0.3515  0.0937
18474TIP3    H176913   4.627   4.634  10.939 -0.2131  1.0412  0.1202
18474TIP3    H276914   4.702   4.563  10.828  0.2892 -0.9534  1.6867
18475TIP3   OH276915   4.041   6.487  16.487  0.7572  0.6924 -0.4508
18475TIP3    H176916   4.108   6.462  16.551  0.0328 -1.8993 -0.5640
18475TIP3    H276917   3.961   6.498  16.540  0.2286 -1.1452 -0.7764
18476TIP3   OH276918   6.709   0.028  12.221 -0.0848 -0.0569 -0.3065
18476TIP3    H176919   6.748   0.019  12.134  1.6551 -0.9318  0.4959
18476TIP3    H276920   6.727   0.119  12.246 -2.0698  0.7217 -1.4630
18477TIP3   OH276921   0.418   0.584   0.981 -0.2601 -0.2194 -0.3500
18477TIP3    H176922   0.323   0.587   0.969 -0.0861 -1.5293 -2.5837
18477TIP3    H276923   0.451   0.536   0.905  2.3277  1.2663 -0.3072
18478TIP3   OH276924   2.748   6.769   2.238  0.2081 -0.3065  0.2289
18478TIP3    H176925   2.793   6.685   2.243 -0.5542 -0.6604  2.3256
18478TIP3    H276926   2.804   6.830   2.286 -0.3041 -0.1720  0.6768
18479TIP3   OH276927   0.925   1.001  12.181 -0.5460 -0.5428  0.1305
18479TIP3    H176928   1.008   0.964  12.151  0.2329 -0.5230  2.1129
18479TIP3    H276929   0.937   1.013  12.275 -2.0278  1.4947  0.1246
18480TIP3   OH276930   3.705   4.614  16.566 -0.2210 -0.0436 -0.0260
18480TIP3    H176931   3.616   4.602  16.597 -0.0343  1.6957  1.3179
18480TIP3    H276932   3.761   4.592  16.640  0.3795  0.5796 -0.2693
18481TIP3   OH276933   3.698   0.027   4.722 -0.6965 -0.6484 -0.0737
18481TIP3    H176934   3.788   0.035   4.690 -1.1505  0.7326 -1.0922
18481TIP3    H276935   3.644   0.055   4.648 -1.9920 -1.6494  0.4499
18482TIP3   OH276936   0.582   5.106  14.814 -0.4327  0.1705 -0.7354
18482TIP3    H176937   0.653   5.156  14.773 -0.5969 -0.4969 -1.8758
18482TIP3    H276938   0.600   5.111  14.908  0.6604  0.6948 -0.9597
18483TIP3   OH276939   5.866   0.306  11.705 -0.0903 -0.2433  0.5597
18483TIP3    H176940   5.801   0.355  11.756 -0.5118 -0.9887  0.7525
18483TIP3    H276941   5.943   0.302  11.761 -0.1764 -0.1199  0.6883
18484TIP3   OH276942   1.990   1.940  16.276  0.4336 -0.2549  0.0918
18484TIP3    H176943   2.024   1.954  16.188 -0.1093  1.8615  0.1628
18484TIP3    H276944   1.900   1.910  16.263  0.4135 -0.1196 -0.0858
18485TIP3   OH276945   3.212   4.517   4.268 -0.1160 -0.3133 -0.4918
18485TIP3    H176946   3.164   4.550   4.192  0.5086  0.1983 -0.6702
18485TIP3    H276947   3.234   4.427   4.246 -0.7200 -0.4538 -0.5379
18486TIP3   OH276948   4.382   0.356   0.888 -0.4214  0.3753  0.1880
18486TIP3    H176949   4.316   0.288   0.899 -1.7651  1.5990 -0.0119
18486TIP3    H276950   4.391   0.395   0.975  0.2175  0.0765  0.2627
18487TIP3   OH276951   2.705   0.303  13.814  0.5219 -0.3049  0.1143
18487TIP3    H176952   2.723   0.233  13.752 -0.4708 -1.6821  1.3168
18487TIP3    H276953   2.612   0.325  13.800  0.2217 -0.7831  1.2238
18488TIP3   OH276954   0.505   5.207   1.396  0.0893 -0.6244 -0.1495
18488TIP3    H176955   0.436   5.153   1.434  1.0077 -0.9849  1.0800
18488TIP3    H276956   0.583   5.152   1.398  0.5724  0.0050 -0.9003
18489TIP3   OH276957   4.175   0.629   5.710  0.1128  0.2846  0.0492
18489TIP3    H176958   4.269   0.626   5.728  0.0398  0.2140  0.4337
18489TIP3    H276959   4.151   0.721   5.723  0.4711  0.6827 -1.8769
18490TIP3   OH276960   5.749   5.458  15.345 -0.1589  0.0397  0.3574
18490TIP3    H176961   5.667   5.441  15.299  0.9962 -0.7503 -1.5350
18490TIP3    H276962   5.723   5.484  15.433 -2.3939 -2.1115  0.4338
18491TIP3   OH276963   1.179   0.557   5.207 -0.3425 -0.1973  0.4841
18491TIP3    H176964   1.095   0.530   5.170  0.5894 -1.5600 -0.7846
18491TIP3    H276965   1.214   0.477   5.247  0.1941  0.4338  1.3100
18492TIP3   OH276966   1.629   4.889   2.164 -0.5114 -0.2913 -0.0226
18492TIP3    H176967   1.554   4.940   2.134  0.3129  0.7197 -0.4196
18492TIP3    H276968   1.669   4.855   2.084 -0.7527 -1.1496  0.2097
18493TIP3   OH276969   1.268   4.129  16.957  0.3813  0.5400  0.2367
18493TIP3    H176970   1.248   4.218  16.928  0.2976 -0.0025 -1.5421
18493TIP3    H276971   1.274   4.079  16.875  0.8441 -0.9993  1.1753
18494TIP3   OH276972   3.027   3.571  14.406 -0.5448  0.4241  0.2776
18494TIP3    H176973   3.081   3.513  14.353  2.1171  0.8478  2.2805
18494TIP3    H276974   2.991   3.515  14.475 -0.4434  0.6083  0.4834
18495TIP3   OH276975   0.379   5.517   2.782 -0.6886  0.2312 -0.4003
18495TIP3    H176976   0.412   5.566   2.706 -2.6858  0.2957 -1.2744
18495TIP3    H276977   0.355   5.584   2.846 -2.1764  0.3866 -1.0783
18496TIP3   OH276978   4.053   3.188  12.204 -0.1050 -0.1860 -0.4630
18496TIP3    H176979   4.024   3.105  12.241 -0.3163  0.7887  1.7665
18496TIP3    H276980   4.139   3.203  12.242 -0.9309  1.5424  0.9237
18497TIP3   OH276981   4.361   0.061   0.006 -0.3004 -0.1827  0.7354
18497TIP3    H176982   4.453   0.084  -0.003 -0.1341 -1.1761 -0.5553
18497TIP3    H276983   4.314   0.131  -0.039 -0.0207 -0.5840 -0.2313
18498TIP3   OH276984   1.708   5.852   1.255  0.4865  0.1570  0.4609
18498TIP3    H176985   1.756   5.932   1.277 -1.1216  1.1661  0.4890
18498TIP3    H276986   1.616   5.879   1.252 -0.0118 -1.4794 -0.5642
18499TIP3   OH276987   0.093   3.683   1.599  0.3263  0.1216  0.5473
18499TIP3    H176988   0.153   3.756   1.582  0.7856 -0.5522 -0.8791
18499TIP3    H276989   0.150   3.607   1.604 -0.3648 -0.5061 -0.6682
18500TIP3   OH276990   5.977   0.438  15.920  0.2242 -0.4135  0.3058
18500TIP3    H176991   6.025   0.367  15.962  0.1203 -1.5459 -1.3730
18500TIP3    H276992   5.955   0.404  15.833  0.1258  1.6629 -0.5490
18501TIP3   OH276993   2.466   2.998  11.916 -0.2724  0.5456 -0.1270
18501TIP3    H176994   2.525   2.923  11.928  0.3364  0.9488 -0.5731
18501TIP3    H276995   2.524   3.074  11.916 -1.0295  1.2032  2.0671
18502TIP3   OH276996   4.722   4.575  16.553  0.0948  0.0719 -0.0396
18502TIP3    H176997   4.785   4.629  16.505 -1.1256  1.1264 -0.5081
18502TIP3    H276998   4.654   4.636  16.580 -0.6698 -1.0208  0.5637
18503TIP3   OH276999   6.647   3.778   3.487 -0.1882 -0.3743 -0.3727
18503TIP3    H177000   6.683   3.775   3.575 -0.7913  0.3524 -0.0889
18503TIP3    H277001   6.646   3.687   3.458  0.2825 -0.5869  0.2546
18504TIP3   OH277002   1.327   2.192   2.890 -0.9247 -0.4138 -0.1522
18504TIP3    H177003   1.396   2.256   2.872 -0.2728 -0.9878  0.2555
18504TIP3    H277004   1.373   2.108   2.893 -2.1064 -1.3182 -3.3797
18505TIP3   OH277005   4.114   5.950  15.338  0.6111 -0.3110  0.2990
18505TIP3    H177006   4.070   5.866  15.330  0.6246 -0.4097  1.1209
18505TIP3    H277007   4.107   5.990  15.252 -0.7059 -0.5076  0.2999
18506TIP3   OH277008   4.024   6.504   0.489  0.0672  0.2504  0.4829
18506TIP3    H177009   4.100   6.560   0.470  0.2029 -0.4354 -1.2141
18506TIP3    H277010   3.994   6.476   0.403 -0.9780 -0.9959  1.2289
18507TIP3   OH277011   4.656   3.890  11.682  0.2726 -0.0617 -0.2627
18507TIP3    H177012   4.612   3.841  11.613 -2.1517  0.6441  0.6605
18507TIP3    H277013   4.700   3.961  11.637 -0.0700 -0.4226 -1.1975
18508TIP3   OH277014   4.242   6.530   5.104  0.0300 -0.3776  0.0995
18508TIP3    H177015   4.280   6.457   5.056 -2.0659 -1.5624  0.1443
18508TIP3    H277016   4.186   6.490   5.170 -1.8058  1.2461 -0.3747
18509TIP3   OH277017   3.023   0.809  13.413 -0.1023 -0.3867 -0.8203
18509TIP3    H177018   3.084   0.847  13.349 -0.0697  0.9640 -0.0394
18509TIP3    H277019   2.938   0.815  13.370  0.1468 -1.1713 -1.4435
18510TIP3   OH277020   5.018   2.945   0.907  0.3991  0.4111 -0.3651
18510TIP3    H177021   4.962   2.999   0.963  0.1836 -0.3543  0.1664
18510TIP3    H277022   5.038   3.002   0.832  0.5709  1.3933  0.4054
18511TIP3   OH277023   0.257   6.786  14.693  0.2063 -0.3639 -1.0236
18511TIP3    H177024   0.262   6.714  14.630 -0.0877  0.4386 -1.9892
18511TIP3    H277025   0.171   6.824  14.679  0.6242  0.6010 -1.0120
18512TIP3   OH277026   3.140   6.290   4.947  0.0636 -0.0341  0.1553
18512TIP3    H177027   3.088   6.363   4.912  1.3230  0.8051 -0.0088
18512TIP3    H277028   3.228   6.303   4.912  0.7789 -0.5337  1.6808
18513TIP3   OH277029   3.765   1.233   1.304  0.2161 -0.0942  0.6414
18513TIP3    H177030   3.861   1.237   1.297  0.3589 -1.1814  1.5706
18513TIP3    H277031   3.733   1.274   1.224  1.4996 -2.2394 -1.0960
18514TIP3   OH277032   4.553   0.991  17.006  0.0052 -0.4004  0.6601
18514TIP3    H177033   4.570   0.983  16.912  1.0776  2.0850  0.5715
18514TIP3    H277034   4.491   0.921  17.025 -2.4732  0.7200 -2.4716
18515TIP3   OH277035   0.678   1.421   3.054 -0.3117  0.4814 -0.9790
18515TIP3    H177036   0.689   1.503   3.104 -1.9043  0.9596 -1.3489
18515TIP3    H277037   0.602   1.379   3.094  0.9102 -1.2114 -0.3339
18516TIP3   OH277038   5.747   4.840  14.269 -0.1356  0.5358  0.0318
18516TIP3    H177039   5.661   4.811  14.238 -0.2116 -0.2311  0.8893
18516TIP3    H277040   5.807   4.815  14.199 -0.4254 -0.3128  0.0628
18517TIP3   OH277041   3.386   5.017   1.873 -0.5751 -0.0801  0.1759
18517TIP3    H177042   3.390   5.061   1.788  1.3911  0.5167  0.5287
18517TIP3    H277043   3.391   4.923   1.851  1.3587  0.1007 -0.3516
18518TIP3   OH277044   6.660   4.665   1.997  0.1777  0.1429  0.0130
18518TIP3    H177045   6.739   4.652   1.944  0.2546  1.0163 -0.1022
18518TIP3    H277046   6.596   4.603   1.961  0.9329 -0.8683  0.3860
18519TIP3   OH277047   2.092   3.478  15.672 -0.2949 -0.2682 -0.2460
18519TIP3    H177048   2.018   3.459  15.614 -0.7242 -0.6922  0.4300
18519TIP3    H277049   2.160   3.417  15.644 -1.1064 -1.7638  0.8263
18520TIP3   OH277050   0.169   1.492   4.215 -0.2006  0.4329  0.4266
18520TIP3    H177051   0.263   1.479   4.229  0.2608  3.4781  0.7864
18520TIP3    H277052   0.145   1.426   4.150  2.3691  0.1299 -0.3151
18521TIP3   OH277053   5.920   5.041   4.971  0.2595 -0.7547  0.3732
18521TIP3    H177054   5.857   5.033   5.043 -3.0880 -0.9854 -2.3376
18521TIP3    H277055   5.904   5.129   4.936  1.2583 -0.9422 -0.5891
18522TIP3   OH277056   5.638   6.681   5.981 -0.3981  0.1724  0.3670
18522TIP3    H177057   5.691   6.600   5.979 -0.6045  0.0424 -0.9980
18522TIP3    H277058   5.659   6.721   6.065 -1.3836 -2.0199  1.7467
18523TIP3   OH277059   3.968   2.190  14.456  0.2019  0.1616  0.0481
18523TIP3    H177060   3.874   2.205  14.442 -0.1904 -2.0964 -0.1205
18523TIP3    H277061   3.994   2.134  14.382  1.5943  0.4232  0.3242
18524TIP3   OH277062   1.467   0.891   5.579  0.3392 -0.4537  0.3526
18524TIP3    H177063   1.526   0.953   5.535  2.3979 -1.0766  2.0474
18524TIP3    H277064   1.468   0.919   5.670 -0.9957 -1.3008  0.6489
18525TIP3   OH277065   1.043   6.711   4.542  0.1653  0.5410  0.1124
18525TIP3    H177066   1.123   6.755   4.517  0.9589 -1.1170 -0.4425
18525TIP3    H277067   0.986   6.717   4.465 -0.9500  3.1025  1.0340
18526TIP3   OH277068   6.611   3.457   1.363  0.2610 -0.1500 -0.1823
18526TIP3    H177069   6.664   3.529   1.397  0.1398 -0.0397 -0.2269
18526TIP3    H277070   6.521   3.489   1.368  0.1932 -0.3621 -0.0474
18527TIP3   OH277071   1.667   3.594  16.814  0.3506 -0.3833 -0.1228
18527TIP3    H177072   1.721   3.656  16.766  0.7934 -1.9034 -1.6412
18527TIP3    H277073   1.711   3.585  16.899  1.2277  0.0662 -0.5209
18528TIP3   OH277074   1.342   4.951   4.165 -0.6139  0.3203  0.1851
18528TIP3    H177075   1.315   4.883   4.227 -0.1595 -0.3855 -0.3741
18528TIP3    H277076   1.434   4.966   4.183 -0.0365 -1.0590 -1.3446
18529TIP3   OH277077   1.851   4.718   5.334  0.0786 -0.7315  0.3294
18529TIP3    H177078   1.870   4.807   5.366  0.7571 -0.3054 -1.1615
18529TIP3    H277079   1.869   4.722   5.240 -0.3481 -2.3340  0.1508
18530TIP3   OH277080   6.620   3.608  13.379 -0.6151  0.2034  0.2656
18530TIP3    H177081   6.634   3.596  13.473 -4.0201 -0.2050  0.8627
18530TIP3    H277082   6.687   3.553  13.338 -0.7755 -1.8812  2.5431
18531TIP3   OH277083   3.132   3.133  15.594  1.2225  0.3783 -0.2790
18531TIP3    H177084   3.193   3.181  15.539  1.4188 -1.6172 -1.9409
18531TIP3    H277085   3.186   3.096  15.664  1.7653 -0.4456 -1.1048
18532TIP3   OH277086   3.453   1.117  16.131  1.0294 -0.0331 -0.3022
18532TIP3    H177087   3.433   1.202  16.170 -0.9278 -0.8527  0.5981
18532TIP3    H277088   3.455   1.133  16.037  0.7512  1.0152 -0.1396
18533TIP3   OH277089   3.104   2.074  15.828  0.5933  0.5173  0.2481
18533TIP3    H177090   3.033   2.084  15.892  1.0116 -1.1182  1.0366
18533TIP3    H277091   3.066   2.101  15.745 -1.4123 -1.5118  0.4145
18534TIP3   OH277092   5.002   3.558   0.822  0.5075 -0.0515  0.2380
18534TIP3    H177093   4.909   3.569   0.842  0.4588 -0.2705  0.1248
18534TIP3    H277094   5.007   3.560   0.727  0.2662 -2.7563  0.0987
18535TIP3   OH277095   5.234   0.604  10.755  0.1740 -0.1509 -0.1494
18535TIP3    H177096   5.193   0.691  10.752  0.4863 -0.0269 -0.8322
18535TIP3    H277097   5.326   0.620  10.737  0.1368 -0.6825 -0.8659
18536TIP3   OH277098   6.077   2.116  15.295 -0.5300 -0.2454  0.1364
18536TIP3    H177099   5.985   2.141  15.289 -0.8070 -0.7966  1.7442
18536TIP3    H277100   6.107   2.154  15.378  0.7302  0.0330 -0.4261
18537TIP3   OH277101   6.321   1.818   4.627  0.0652 -0.0713 -0.2340
18537TIP3    H177102   6.320   1.835   4.533  0.6860  1.5950  0.0198
18537TIP3    H277103   6.297   1.726   4.635  1.7130 -0.7556 -2.1336
18538TIP3   OH277104   5.313   2.756  17.021 -0.5263 -0.4437  0.1504
18538TIP3    H177105   5.378   2.718  16.961 -1.7334 -0.8752 -0.9478
18538TIP3    H277106   5.329   2.850  17.017 -2.2925 -0.0962 -3.1631
18539TIP3   OH277107   3.291   2.458  11.849 -0.0109 -0.4818  0.3260
18539TIP3    H177108   3.364   2.418  11.895 -0.4089 -1.8873 -0.2280
18539TIP3    H277109   3.301   2.430  11.758  0.3099  1.5999 -0.3331
18540TIP3   OH277110   3.764   0.845  11.855 -0.1697  0.5624  0.0904
18540TIP3    H177111   3.837   0.882  11.805  0.7115  0.6840  1.4020
18540TIP3    H277112   3.803   0.821  11.939 -0.7726 -2.8583 -0.4495
18541TIP3   OH277113   6.751   2.076   1.388  0.1375  0.0294 -0.4161
18541TIP3    H177114   6.813   2.143   1.416 -0.2324  0.9702 -1.7456
18541TIP3    H277115   6.681   2.079   1.453  0.4133  0.5235 -0.1382
18542TIP3   OH277116   4.863   3.862  12.073 -0.1127 -0.0474 -0.2774
18542TIP3    H177117   4.866   3.771  12.103  2.1768  0.3102  0.7767
18542TIP3    H277118   4.947   3.877  12.030 -0.6470  1.4525 -0.8871
18543TIP3   OH277119   3.546   3.889   4.196  0.3541 -0.5451  0.2176
18543TIP3    H177120   3.465   3.840   4.214 -1.7421  2.3540 -0.6357
18543TIP3    H277121   3.581   3.849   4.117 -1.0338 -0.9993 -0.1975
18544TIP3   OH277122   0.885   0.483  10.231  0.4875  0.2402 -0.5139
18544TIP3    H177123   0.903   0.417  10.298  1.2799  1.1377  0.1960
18544TIP3    H277124   0.859   0.561  10.281  0.6340  0.7937 -1.2819
18545TIP3   OH277125   1.800   4.807  10.254 -0.4527  0.4261 -0.0889
18545TIP3    H177126   1.826   4.724  10.216 -0.2182  0.1226  0.7221
18545TIP3    H277127   1.882   4.852  10.273 -0.5769  0.9109 -0.6440
18546TIP3   OH277128   2.628   3.286   0.748 -0.2243 -0.3095 -0.6929
18546TIP3    H177129   2.665   3.279   0.836 -1.0166  1.0974 -0.2133
18546TIP3    H277130   2.694   3.334   0.698  0.6910 -1.9951 -1.2007
18547TIP3   OH277131   0.482   1.580   2.761  0.0380  0.8909 -0.1241
18547TIP3    H177132   0.552   1.616   2.706  1.5203 -0.5590  0.7099
18547TIP3    H277133   0.493   1.485   2.754 -0.3631  0.6496  1.8216
18548TIP3   OH277134   0.111   2.592  15.777  0.0615 -0.2712 -0.0233
18548TIP3    H177135   0.080   2.561  15.862 -1.2041 -0.8025 -0.6545
18548TIP3    H277136   0.152   2.676  15.795  0.9372 -0.9363  1.2924
18549TIP3   OH277137   4.396   2.858  14.537 -0.2339  0.0008 -0.1640
18549TIP3    H177138   4.417   2.890  14.625  0.8662  0.1956 -0.4817
18549TIP3    H277139   4.342   2.781  14.552 -0.8692  0.5822  0.6604
18550TIP3   OH277140   4.210   0.049   4.735  0.0071  0.3051  0.4519
18550TIP3    H177141   4.249  -0.038   4.741 -2.9391 -1.0750  1.7874
18550TIP3    H277142   4.190   0.073   4.826 -0.0262  2.0268  0.0340
18551TIP3   OH277143   2.431   0.017   3.961  0.2042 -0.0162 -0.4454
18551TIP3    H177144   2.495  -0.044   3.924  1.5372 -1.3576  3.5171
18551TIP3    H277145   2.480   0.099   3.971  0.3396 -0.1289 -0.1867
18552TIP3   OH277146   6.196   1.468  14.705 -0.1752  0.0199  0.6187
18552TIP3    H177147   6.271   1.505  14.659  0.5052 -0.5859  1.2190
18552TIP3    H277148   6.211   1.373  14.703 -2.2555 -0.3623 -1.5586
18553TIP3   OH277149   2.650   6.246  15.423 -0.3695  0.6200  0.5667
18553TIP3    H177150   2.660   6.288  15.508  0.4290  1.7910 -0.0866
18553TIP3    H277151   2.739   6.221  15.397 -0.5365  0.7428 -0.1577
18554TIP3   OH277152   6.468   4.238   2.690 -0.0357  0.2981 -0.3291
18554TIP3    H177153   6.510   4.152   2.695  1.1529  0.7892 -1.3944
18554TIP3    H277154   6.399   4.234   2.756 -1.3926 -2.2131 -1.7262
18555TIP3   OH277155   0.613   1.222   4.053  0.1567 -0.6925 -0.5022
18555TIP3    H177156   0.706   1.208   4.073  0.3367 -0.7094 -1.3206
18555TIP3    H277157   0.599   1.315   4.071  0.1212 -0.8622  0.4108
18556TIP3   OH277158   5.696   4.170   5.858 -0.3172  0.3293  0.4896
18556TIP3    H177159   5.691   4.265   5.869  0.2460  0.5644 -0.9811
18556TIP3    H277160   5.608   4.144   5.834 -0.8887  0.1998  2.5535
18557TIP3   OH277161   4.951   0.664  17.094  0.0510  0.2372 -0.2731
18557TIP3    H177162   5.045   0.670  17.080  0.0100  0.4644 -0.4663
18557TIP3    H277163   4.924   0.754  17.111  0.0300  0.0330  0.8694
18558TIP3   OH277164   4.261   0.634  16.296  0.0777 -0.0974  0.0732
18558TIP3    H177165   4.174   0.596  16.298 -0.9305  1.9745 -0.9915
18558TIP3    H277166   4.320   0.561  16.278 -1.7660 -1.1229 -2.2872
18559TIP3   OH277167   0.855   2.558   5.159  0.6378  0.2864 -0.3865
18559TIP3    H177168   0.900   2.551   5.075 -0.2044 -0.7568 -0.7702
18559TIP3    H277169   0.913   2.612   5.213  1.1830  1.0001 -1.6331
18560TIP3   OH277170   5.496   5.056   0.188  0.5774  0.0686 -0.1596
18560TIP3    H177171   5.471   4.995   0.119  0.5083  0.2044 -0.2567
18560TIP3    H277172   5.427   5.122   0.188  0.7398  0.2413 -0.1734
18561TIP3   OH277173   3.640   3.091  11.185  0.2810  0.1802  0.3613
18561TIP3    H177174   3.585   3.134  11.118 -0.3822 -0.3563  0.5489
18561TIP3    H277175   3.671   3.011  11.142 -0.8592 -0.6169  0.9540
18562TIP3   OH277176   4.208   4.875  14.427 -0.2624  0.3529 -0.0184
18562TIP3    H177177   4.270   4.829  14.370 -0.2650  0.8588 -0.4405
18562TIP3    H277178   4.187   4.812  14.496  0.5481  0.0950  0.0035
18563TIP3   OH277179   4.154   1.137   3.541  0.6220 -0.0105  0.4199
18563TIP3    H177180   4.166   1.047   3.510 -1.4041  0.3427 -1.6168
18563TIP3    H277181   4.084   1.172   3.487 -0.8832  1.8144  3.2976
18564TIP3   OH277182   0.799   3.875   0.940  0.3070  0.0401  0.4646
18564TIP3    H177183   0.885   3.917   0.942  0.5042 -0.3836  0.8179
18564TIP3    H277184   0.810   3.795   0.990 -0.7929  0.9073  2.1737
18565TIP3   OH277185   4.788   3.871  13.090  0.5091 -0.0853  0.4913
18565TIP3    H177186   4.721   3.920  13.138  1.3911 -0.3818  2.0896
18565TIP3    H277187   4.846   3.939  13.054 -0.7820  0.1913 -1.2049
18566TIP3   OH277188   2.586   3.318  13.230 -0.1474 -0.2761  0.0444
18566TIP3    H177189   2.640   3.325  13.151 -0.1407 -0.6923  0.0080
18566TIP3    H277190   2.504   3.362  13.207  0.1974  0.4115  0.1205
18567TIP3   OH277191   2.645   6.326   5.021 -0.0699  0.1000 -0.3436
18567TIP3    H177192   2.606   6.265   4.958  0.0405 -2.1562  1.6237
18567TIP3    H277193   2.722   6.279   5.055  1.0990  2.1225 -0.0388
18568TIP3   OH277194   6.417   0.753  15.971 -0.0935 -0.0086  0.1300
18568TIP3    H177195   6.449   0.773  15.883 -3.0175 -0.0793 -1.0755
18568TIP3    H277196   6.375   0.834  16.000  0.6646 -0.0508  1.4167
18569TIP3   OH277197   3.530   5.335   1.370  0.5426  0.0466 -0.5783
18569TIP3    H177198   3.554   5.426   1.389 -0.9141  0.5550 -1.0251
18569TIP3    H277199   3.604   5.301   1.320  2.1373  0.2509  1.5235
18570TIP3   OH277200   3.796   5.307  16.252 -0.4155  0.0153  0.2998
18570TIP3    H177201   3.838   5.330  16.334  0.0504  0.8122 -0.1429
18570TIP3    H277202   3.705   5.335  16.263  0.1902  2.5212 -0.3244
18571TIP3   OH277203   5.731   6.294  15.766  0.0482 -0.0911  0.4998
18571TIP3    H177204   5.772   6.351  15.831 -0.6717  0.2864  0.6431
18571TIP3    H277205   5.765   6.207  15.785  2.3658  0.4921 -0.7055
18572TIP3   OH277206   5.756   4.629   1.257  0.3215  0.2073  0.0222
18572TIP3    H177207   5.720   4.655   1.173  0.3784 -0.6330 -0.2683
18572TIP3    H277208   5.762   4.710   1.307  1.0236  0.8519 -1.0622
18573TIP3   OH277209   1.239   5.428   1.450  0.1725 -0.2500 -0.0590
18573TIP3    H177210   1.263   5.491   1.517  0.4593 -0.4915  0.0685
18573TIP3    H277211   1.236   5.479   1.369 -0.4239  0.0890  0.1776
18574TIP3   OH277212   4.355   5.425  12.449  0.0771 -0.0784  0.0460
18574TIP3    H177213   4.350   5.479  12.528 -0.6871 -0.7815  0.4937
18574TIP3    H277214   4.341   5.486  12.377  1.5145  0.6966  0.3918
18575TIP3   OH277215   0.486   2.294   4.850  0.0627 -0.2770  0.3492
18575TIP3    H177216   0.562   2.291   4.907  1.6106 -0.8022 -1.6463
18575TIP3    H277217   0.451   2.205   4.850 -0.2188 -0.1661  0.8376
18576TIP3   OH277218   0.206   2.197   1.048 -0.0886 -0.1722  0.2146
18576TIP3    H177219   0.146   2.231   1.115 -0.3599 -0.2019 -0.0110
18576TIP3    H277220   0.192   2.102   1.051  1.6756 -0.4343  1.8173
18577TIP3   OH277221   1.135   0.067  13.619 -0.0141  0.1502 -0.4968
18577TIP3    H177222   1.093  -0.004  13.569  1.2878 -0.5380 -0.6507
18577TIP3    H277223   1.212   0.026  13.658 -0.0928  1.1063  0.7160
18578TIP3   OH277224   3.543   5.626  12.056 -0.4584 -0.5584  0.1234
18578TIP3    H177225   3.624   5.576  12.065 -0.1791 -0.1593 -0.1705
18578TIP3    H277226   3.536   5.674  12.139 -0.5084 -0.7564  0.2349
18579TIP3   OH277227   1.921   5.423  13.740  0.4202  0.0853  0.2610
18579TIP3    H177228   1.836   5.446  13.778  0.7353  0.5119  0.7227
18579TIP3    H277229   1.951   5.349  13.794  0.4481  0.0907  0.2527
18580TIP3   OH277230   3.016   4.195   3.164 -0.2451  0.2577 -0.1278
18580TIP3    H177231   2.959   4.127   3.129  1.6174 -1.6725  0.3952
18580TIP3    H277232   2.956   4.259   3.204 -2.1090 -0.2713 -1.9426
18581TIP3   OH277233   1.684   0.100   2.867 -0.3113 -0.0065 -0.3851
18581TIP3    H177234   1.639   0.080   2.785  1.9720  0.1870 -1.7769
18581TIP3    H277235   1.668   0.193   2.882 -2.5609 -0.5050  0.6380
18582TIP3   OH277236   2.449   2.493  14.395  0.7148  0.0908 -0.0505
18582TIP3    H177237   2.528   2.545  14.383 -0.2587  2.3072  2.3905
18582TIP3    H277238   2.480   2.407  14.423  2.2611  0.0981 -1.5793
18583TIP3   OH277239   6.490   1.781   3.806  0.5756  0.6314  0.0519
18583TIP3    H177240   6.397   1.798   3.795  0.2911 -0.8866 -0.1050
18583TIP3    H277241   6.520   1.847   3.869 -0.2651  2.0913 -1.0080
18584TIP3   OH277242   6.724   3.537  14.054  0.3268  0.0883 -0.7048
18584TIP3    H177243   6.669   3.484  13.997  0.5354 -0.1413 -0.6906
18584TIP3    H277244   6.722   3.492  14.139  0.8252 -0.1175 -0.7972
18585TIP3   OH277245   4.217   6.543  15.804 -0.2762 -0.2993  0.3251
18585TIP3    H177246   4.292   6.558  15.746 -0.6589  1.4797  0.2475
18585TIP3    H277247   4.257   6.523  15.889  0.3093  0.7472  0.3135
18586TIP3   OH277248   1.731   0.517   2.327 -0.3555  0.0416 -0.3577
18586TIP3    H177249   1.668   0.497   2.397 -0.1367  1.5109  0.3152
18586TIP3    H277250   1.677   0.529   2.249 -1.1989  2.7485  0.4961
18587TIP3   OH277251   3.781   3.994  11.475  0.7055 -0.0535 -0.4037
18587TIP3    H177252   3.721   4.054  11.431 -0.7797 -1.2145 -0.0863
18587TIP3    H277253   3.860   3.994  11.421  0.4883  1.6209 -0.7757
18588TIP3   OH277254   6.241   1.765  16.191  0.0768 -0.7041 -0.2220
18588TIP3    H177255   6.299   1.704  16.145 -0.2150 -0.8374 -0.4106
18588TIP3    H277256   6.299   1.809  16.254  0.4989 -0.4392 -0.7931
18589TIP3   OH277257   2.932   2.554   1.255 -0.1936  0.1890 -0.7900
18589TIP3    H177258   2.892   2.482   1.304  0.3449  0.6037  0.3108
18589TIP3    H277259   2.970   2.512   1.177  0.0801 -0.7227 -0.1886
18590TIP3   OH277260   5.960   3.605   1.051 -0.1825 -0.0466  0.5477
18590TIP3    H177261   5.960   3.699   1.035 -0.4478 -0.0452  0.5519
18590TIP3    H277262   5.868   3.583   1.066  0.1246  0.1047  3.0030
18591TIP3   OH277263   1.091   6.428   4.401 -0.0393 -0.2763  0.2919
18591TIP3    H177264   1.095   6.333   4.392  2.0171 -0.3520  1.1962
18591TIP3    H277265   1.050   6.442   4.486  0.8920 -0.4336  0.7804
18592TIP3   OH277266   1.397   5.630  15.194 -0.9793 -0.5375  0.1309
18592TIP3    H177267   1.301   5.626  15.194 -1.0029 -0.0033 -0.2131
18592TIP3    H277268   1.418   5.701  15.256 -0.8783  0.7948 -1.3712
18593TIP3   OH277269   3.874   4.525  14.805  0.1073  0.1394  0.7154
18593TIP3    H177270   3.812   4.484  14.745  0.0527 -0.6305  1.2933
18593TIP3    H277271   3.889   4.612  14.767 -0.1470 -0.2253 -0.2596
18594TIP3   OH277272   0.352   4.108   0.599  0.1999  0.7495 -0.4227
18594TIP3    H177273   0.393   4.179   0.550 -0.1864  1.1874 -0.1161
18594TIP3    H277274   0.406   4.031   0.580  0.6955  1.1517 -0.6521
18595TIP3   OH277275   4.519   2.294  11.966 -0.2917 -0.4468  0.4327
18595TIP3    H177276   4.502   2.257  12.053  0.6651  0.3420  0.9717
18595TIP3    H277277   4.606   2.333  11.973 -0.4491  0.1547 -0.7140
18596TIP3   OH277278   2.019   1.171  12.845 -0.2221  0.0817 -0.1391
18596TIP3    H177279   2.026   1.263  12.819 -2.2989  0.1597 -0.6643
18596TIP3    H277280   1.948   1.170  12.909  1.0818 -0.9292  1.3700
18597TIP3   OH277281   4.440   0.001  12.133 -0.8748  0.1096  0.3737
18597TIP3    H177282   4.365  -0.041  12.091 -1.1352  0.7387  0.1942
18597TIP3    H277283   4.430   0.094  12.112  0.6099  0.0582 -0.6995
18598TIP3   OH277284   5.277   0.580   0.096 -0.6328 -0.2987 -0.5855
18598TIP3    H177285   5.298   0.490   0.072 -1.5248  0.0950 -3.0435
18598TIP3    H277286   5.287   0.630   0.016 -2.0710  1.4665  0.2653
18599TIP3   OH277287   3.512   1.346  14.289  0.1281 -0.7578 -0.1137
18599TIP3    H177288   3.545   1.357  14.200 -1.4373 -2.5415 -0.9890
18599TIP3    H277289   3.508   1.435  14.324 -0.5504  0.1748 -2.3497
18600TIP3   OH277290   5.264   6.420   2.477  0.5370 -0.0210  0.2707
18600TIP3    H177291   5.286   6.464   2.394  0.3051 -0.4895 -0.0399
18600TIP3    H277292   5.348   6.413   2.523  0.4366  1.7521  0.8304
18601TIP3   OH277293   0.853   4.870   2.370 -0.6722  0.3799 -0.2381
18601TIP3    H177294   0.794   4.893   2.442 -0.3623 -0.4084  0.2757
18601TIP3    H277295   0.935   4.913   2.391 -1.0493  1.5313 -0.9867
18602TIP3   OH277296   2.711   4.978   5.009 -0.7680 -0.6007 -0.7415
18602TIP3    H177297   2.690   5.034   4.934 -1.2146  1.3719  0.7677
18602TIP3    H277298   2.785   4.925   4.979 -0.2016  0.9168 -2.2133
18603TIP3   OH277299   2.524   0.887  14.777 -0.4959 -0.1670 -0.3028
18603TIP3    H177300   2.501   0.960  14.835  1.8502 -0.5983  1.3008
18603TIP3    H277301   2.511   0.921  14.689 -2.1818  1.2037  0.4104
18604TIP3   OH277302   5.744   1.953   5.142  0.5693  0.0233 -0.0450
18604TIP3    H177303   5.708   2.031   5.101 -0.7556 -0.9620 -0.8448
18604TIP3    H277304   5.837   1.971   5.151  0.7594  0.6913 -2.6009
18605TIP3   OH277305   3.950   3.260   2.695 -0.3855  0.1855  0.2810
18605TIP3    H177306   3.873   3.203   2.705 -0.2380  0.1254  1.2185
18605TIP3    H277307   3.999   3.248   2.777  0.5646  0.3110 -0.2574
18606TIP3   OH277308   5.130   0.554  12.294 -0.2626  0.2884  0.2941
18606TIP3    H177309   5.144   0.649  12.292 -3.4642  0.8408 -0.3437
18606TIP3    H277310   5.181   0.524  12.369  1.2354  2.3934  0.2150
18607TIP3   OH277311   5.090   6.084   4.896 -0.4274  0.5409 -0.0440
18607TIP3    H177312   5.060   6.122   4.814  0.6173  0.8157 -0.3215
18607TIP3    H277313   5.029   6.118   4.962 -0.3721  1.5504 -0.4936
18608TIP3   OH277314   3.930   3.429  12.191  0.2035  0.0910  0.1332
18608TIP3    H177315   3.854   3.438  12.134 -0.1246  2.6070  0.8415
18608TIP3    H277316   3.943   3.334  12.199 -1.4955 -0.3666 -1.7427
18609TIP3   OH277317   1.310   4.882  13.416 -0.7183  0.2949  0.3591
18609TIP3    H177318   1.271   4.882  13.329  0.7336  2.1770 -0.3543
18609TIP3    H277319   1.267   4.810  13.461 -2.1735 -0.1520 -1.6034
18610TIP3   OH277320   6.730   5.552  15.998 -0.2580  0.4060  0.1135
18610TIP3    H177321   6.694   5.599  15.923  1.2181  0.6539 -0.4661
18610TIP3    H277322   6.655   5.539  16.057 -1.3743  0.4752 -1.2493
18611TIP3   OH277323   0.650   5.922  15.959 -0.3032 -0.2811 -0.0756
18611TIP3    H177324   0.682   5.997  16.007 -0.1490 -0.2130 -0.2831
18611TIP3    H277325   0.681   5.846  16.008  2.8010 -0.3121 -1.8762
18612TIP3   OH277326   4.924   3.978   1.826  0.1527 -0.1682 -0.0953
18612TIP3    H177327   4.838   4.020   1.825 -0.7225 -1.8545 -1.4989
18612TIP3    H277328   4.906   3.886   1.844  1.6352 -0.6019 -0.6856
18613TIP3   OH277329   0.833   4.938  15.311 -0.5183 -0.6100  0.2811
18613TIP3    H177330   0.865   4.962  15.224 -0.6661 -1.6725 -0.0833
18613TIP3    H277331   0.737   4.940  15.302 -0.5519 -2.0765 -0.0058
18614TIP3   OH277332   2.352   3.757  11.295  0.2935 -0.3285 -0.0434
18614TIP3    H177333   2.274   3.812  11.298  0.2972 -0.1917 -1.4483
18614TIP3    H277334   2.323   3.678  11.248  1.4369  0.5502 -2.3622
18615TIP3   OH277335   1.164   2.844   0.839 -0.3002  0.4327 -0.0659
18615TIP3    H177336   1.176   2.939   0.838 -2.1654  0.7579 -2.9635
18615TIP3    H277337   1.069   2.832   0.835 -0.0839 -1.5729 -0.1301
18616TIP3   OH277338   2.448   4.188  11.826 -0.4436 -0.2934  0.0680
18616TIP3    H177339   2.471   4.273  11.863 -1.3819  0.5609 -1.2380
18616TIP3    H277340   2.359   4.172  11.858 -0.4850 -0.5026 -0.1513
18617TIP3   OH277341   3.074   6.686   0.343 -0.3142 -0.9811 -0.7762
18617TIP3    H177342   3.033   6.615   0.293 -0.0828 -2.9681  1.6796
18617TIP3    H277343   3.087   6.649   0.430  2.1921  1.2444 -0.0945
18618TIP3   OH277344   4.351   4.085   1.325 -0.3152  0.3200 -0.1475
18618TIP3    H177345   4.424   4.055   1.379 -1.8801  1.1345  2.6174
18618TIP3    H277346   4.361   4.180   1.322 -2.2369  0.6641  1.9682
18619TIP3   OH277347   3.411   4.757   1.504 -0.6187 -0.6238  0.5102
18619TIP3    H177348   3.317   4.765   1.522 -0.5436 -2.1621  1.8251
18619TIP3    H277349   3.453   4.816   1.567 -0.6377 -1.6203  1.4988
18620TIP3   OH277350   5.540   4.134  16.831 -0.3748  0.0466 -0.3082
18620TIP3    H177351   5.495   4.208  16.790 -1.5383  0.3677  1.4302
18620TIP3    H277352   5.477   4.062  16.827 -0.2845 -0.0772  0.3700
18621TIP3   OH277353   4.750   1.668   2.743  0.2207 -0.7383  0.3459
18621TIP3    H177354   4.844   1.685   2.735  0.3461 -1.1181  0.9024
18621TIP3    H277355   4.745   1.580   2.779 -0.2976 -0.0443  2.0874
18622TIP3   OH277356   5.941   5.655   1.648  0.3898 -0.1508 -0.0658
18622TIP3    H177357   5.965   5.563   1.655 -0.3546 -0.6445 -2.7511
18622TIP3    H277358   6.023   5.699   1.625  0.2025 -0.7298 -2.0842
18623TIP3   OH277359   0.033   2.206   6.037 -0.7424  0.5318 -0.4970
18623TIP3    H177360  -0.030   2.187   6.106 -0.5814 -1.3438 -0.8193
18623TIP3    H277361  -0.007   2.276   5.986 -1.4365  1.0553  0.7248
18624TIP3   OH277362   6.208   0.707  13.924 -0.0881 -0.2961  0.1758
18624TIP3    H177363   6.262   0.748  13.857 -1.7321  0.0784 -0.9789
18624TIP3    H277364   6.160   0.779  13.965 -0.8741 -0.7457  0.0862
18625TIP3   OH277365   0.516   0.346  15.181 -0.3651  0.0273  0.0505
18625TIP3    H177366   0.456   0.391  15.122 -2.1392 -1.5453  0.5635
18625TIP3    H277367   0.601   0.386  15.163 -1.0160  0.3767 -2.7336
18626TIP3   OH277368   4.198   3.810  14.139 -0.3582 -0.6526 -0.5811
18626TIP3    H177369   4.210   3.717  14.157 -0.5294 -0.7035 -0.7211
18626TIP3    H277370   4.272   3.853  14.182  1.4297 -1.1260 -2.9704
18627TIP3   OH277371   3.772   0.381  12.419  0.2304 -0.6353  0.0568
18627TIP3    H177372   3.763   0.292  12.452 -1.4122 -0.5449 -0.0643
18627TIP3    H277373   3.709   0.432  12.469  2.0037  0.7485  0.9986
18628TIP3   OH277374   5.528   4.056  12.966 -0.1040 -0.2382 -0.5145
18628TIP3    H177375   5.608   4.025  13.008  1.4226 -0.4300 -3.3065
18628TIP3    H277376   5.472   3.978  12.961 -0.5619 -0.0970  1.4886
18629TIP3   OH277377   3.963   4.587  12.719  0.2138  0.3115  0.0494
18629TIP3    H177378   3.875   4.626  12.724  0.3622  0.5959  0.4963
18629TIP3    H277379   4.018   4.645  12.771  0.7670  0.3941 -0.6190
18630TIP3   OH277380   4.685   1.834  15.150  0.3980  0.2718 -0.0874
18630TIP3    H177381   4.744   1.762  15.131 -0.1434 -0.4471  0.8663
18630TIP3    H277382   4.733   1.912  15.122  0.6631 -0.4903 -1.9087
18631TIP3   OH277383   3.261   2.388  16.451  0.2035  0.1495  0.0854
18631TIP3    H177384   3.231   2.378  16.542  0.8413  0.0311  0.2891
18631TIP3    H277385   3.190   2.435  16.408 -1.4668 -2.2950 -0.0931
18632TIP3   OH277386   5.258   3.878   2.449 -0.5633 -0.4137  0.2800
18632TIP3    H177387   5.342   3.918   2.426 -0.6914  0.6444  1.5840
18632TIP3    H277388   5.195   3.918   2.389 -0.3917  0.0049  0.3767
18633TIP3   OH277389   4.694   0.646  14.495  0.2219  0.1179 -0.0279
18633TIP3    H177390   4.634   0.572  14.491  0.6997 -0.2321 -1.6546
18633TIP3    H277391   4.644   0.716  14.537 -0.6647 -0.7446  0.3739
18634TIP3   OH277392   6.522   1.135   2.818 -0.2145 -0.2685 -0.4362
18634TIP3    H177393   6.591   1.186   2.861  0.1098 -1.6227  0.7114
18634TIP3    H277394   6.441   1.180   2.843 -0.1286 -1.4727  2.4427
18635TIP3   OH277395   5.220   2.814   5.168 -0.0339 -0.3022 -0.6728
18635TIP3    H177396   5.148   2.820   5.231  1.6993  0.5637  1.3765
18635TIP3    H277397   5.253   2.904   5.162  0.3686 -0.5300 -2.2105
18636TIP3   OH277398   0.343   0.086   1.409 -0.3334  0.0175 -0.0090
18636TIP3    H177399   0.251   0.066   1.427 -0.4726  0.3109 -0.3808
18636TIP3    H277400   0.345   0.181   1.397 -0.2706 -0.1492 -1.6104
18637TIP3   OH277401   6.160   4.902   4.926  0.2260  0.2340  0.0972
18637TIP3    H177402   6.190   4.902   4.835  2.4472  1.3289  0.7627
18637TIP3    H277403   6.096   4.973   4.931 -0.5177 -0.3531 -0.7564
18638TIP3   OH277404   2.498   2.261  14.637  1.1839 -0.2448 -0.6881
18638TIP3    H177405   2.558   2.219  14.574  0.1980  0.4059 -2.1236
18638TIP3    H277406   2.411   2.240  14.605  0.6324 -0.3226  0.7923
18639TIP3   OH277407   3.940   2.918   2.235 -0.4697 -0.1458 -0.0252
18639TIP3    H177408   3.965   2.827   2.249  0.4700  0.2950  1.4514
18639TIP3    H277409   3.845   2.919   2.238 -0.4606 -0.9752  0.7438
18640TIP3   OH277410   4.705   2.863  12.088  0.0469 -0.5101  0.0441
18640TIP3    H177411   4.634   2.812  12.127 -0.6205  1.8460  2.1738
18640TIP3    H277412   4.681   2.871  11.996 -0.7620 -2.3638  0.0422
18641TIP3   OH277413   0.914   1.962  17.011  0.2066  0.5513  0.1689
18641TIP3    H177414   0.855   1.968  17.086  1.0999 -2.0062  1.2009
18641TIP3    H277415   0.940   1.870  17.009  2.5194  1.1566 -1.5248
18642TIP3   OH277416   5.273   4.111  15.942 -0.1873 -0.2488  0.4503
18642TIP3    H177417   5.251   4.112  15.849  1.5892 -0.8020 -0.0110
18642TIP3    H277418   5.329   4.188  15.955  0.8466 -1.0244  0.7068
18643TIP3   OH277419   0.585   5.343  12.603  0.0746 -0.1242 -0.1066
18643TIP3    H177420   0.496   5.369  12.583  0.4865  1.1456 -0.3613
18643TIP3    H277421   0.637   5.422  12.590  1.4168 -1.1344 -1.1525
18644TIP3   OH277422   4.741   5.873   6.017 -0.6850  0.8687  0.1272
18644TIP3    H177423   4.733   5.866   6.112  2.4712 -1.1136  0.3875
18644TIP3    H277424   4.769   5.963   6.002 -0.6579  1.0449  1.1299
18645TIP3   OH277425   5.094   2.373  15.502 -0.3573 -0.4680 -0.6545
18645TIP3    H177426   5.179   2.364  15.461 -0.4175 -1.5727 -0.5724
18645TIP3    H277427   5.036   2.404  15.433  0.1895  0.6683 -0.6093
18646TIP3   OH277428   2.932   5.907   1.875  0.3427  0.2451  0.1704
18646TIP3    H177429   2.889   5.854   1.808  2.8995 -0.0477 -1.3659
18646TIP3    H277430   2.876   5.984   1.884 -0.7424 -0.3206 -1.3711
18647TIP3   OH277431   3.966   2.564   5.719 -0.1117  0.2740 -0.4033
18647TIP3    H177432   3.921   2.640   5.681  0.2643  1.0312  0.6360
18647TIP3    H277433   4.046   2.600   5.757  1.2494 -1.0020 -1.8991
18648TIP3   OH277434   0.945   0.998   1.633  0.6326 -0.0687  0.0562
18648TIP3    H177435   0.939   1.071   1.695  3.7921  1.7083 -1.5387
18648TIP3    H277436   0.904   1.031   1.553  1.3841 -0.3259 -0.4381
18649TIP3   OH277437   3.350   5.206  12.032  0.0004 -0.3525  0.3241
18649TIP3    H177438   3.317   5.117  12.019  0.0238 -0.3683  0.3744
18649TIP3    H277439   3.307   5.236  12.113  1.3793 -0.9740  1.3243
18650TIP3   OH277440   5.828   4.315  12.604 -0.0709  0.3731 -0.1217
18650TIP3    H177441   5.806   4.343  12.693 -0.8513 -0.6544  0.0218
18650TIP3    H277442   5.826   4.396  12.553  1.2977  1.1286  0.9439
18651TIP3   OH277443   3.294   4.411  13.522  0.1218  0.4481 -0.1908
18651TIP3    H177444   3.385   4.433  13.502  0.2028 -0.0694 -0.4060
18651TIP3    H277445   3.290   4.316  13.515  0.0890  0.2395  1.9999
18652TIP3   OH277446   6.540   4.975  10.465 -0.0018  0.0157  0.1663
18652TIP3    H177447   6.605   4.926  10.514 -0.3698 -2.2280 -1.4398
18652TIP3    H277448   6.456   4.953  10.505 -0.1813 -0.8461 -0.6399
18653TIP3   OH277449   1.410   3.920  15.626  0.1369  0.3888  1.0755
18653TIP3    H177450   1.394   3.928  15.720 -2.4797 -0.9309  0.8548
18653TIP3    H277451   1.322   3.925  15.587  1.0946  0.2838 -1.2420
18654TIP3   OH277452   5.566   5.322  12.529 -0.0366 -0.0373 -0.1031
18654TIP3    H177453   5.578   5.400  12.475 -0.3466 -0.5197 -0.8816
18654TIP3    H277454   5.507   5.351  12.600  1.3167  0.8994  0.6765
18655TIP3   OH277455   6.471   1.265  11.585 -0.0077  0.1706  0.1770
18655TIP3    H177456   6.436   1.267  11.674  2.2341  0.2536  1.1307
18655TIP3    H277457   6.527   1.343  11.580  1.8676 -1.1411 -0.4134
18656TIP3   OH277458   3.142   6.321  11.569  0.7066  0.0345  0.3882
18656TIP3    H177459   3.114   6.410  11.593  0.8880  0.0686  0.4805
18656TIP3    H277460   3.193   6.291  11.645 -2.0731 -1.4305  1.8064
18657TIP3   OH277461   4.416   2.961   0.480  0.4010  0.2035  0.2202
18657TIP3    H177462   4.505   2.987   0.458 -0.4286  2.1464 -1.2340
18657TIP3    H277463   4.406   2.873   0.444  1.3936  0.4152 -0.5963
18658TIP3   OH277464   2.283   3.357   1.446 -0.2580  0.2958 -0.2502
18658TIP3    H177465   2.250   3.432   1.395 -0.9214 -0.1741 -0.5239
18658TIP3    H277466   2.297   3.288   1.381  1.0372  0.3926 -0.1011
18659TIP3   OH277467   1.463   2.144   0.884  0.7746  0.8767 -0.3990
18659TIP3    H177468   1.539   2.199   0.867  0.8067  0.4866 -1.6279
18659TIP3    H277469   1.420   2.136   0.799  0.4230 -0.4649 -0.1177
18660TIP3   OH277470   2.346   2.997  15.173  0.0578  0.2526  0.3424
18660TIP3    H177471   2.394   2.920  15.201  0.5346  0.0362 -0.9752
18660TIP3    H277472   2.319   3.040  15.254  0.4942 -0.8476  1.0921
18661TIP3   OH277473   3.527   0.857  14.498 -0.0069  0.0419 -0.4931
18661TIP3    H177474   3.448   0.823  14.456 -0.1849  1.3145 -1.2556
18661TIP3    H277475   3.496   0.896  14.580  0.2153 -1.6499  0.4452
18662TIP3   OH277476   5.285   4.979   1.374  0.2951  0.2044 -0.1523
18662TIP3    H177477   5.238   4.895   1.378  1.0342 -0.2247 -0.4938
18662TIP3    H277478   5.254   5.020   1.294  1.8441 -0.8956 -1.3681
18663TIP3   OH277479   5.580   6.035  16.401  0.3029  0.2284 -0.1620
18663TIP3    H177480   5.607   6.105  16.461 -0.6280  1.3022 -0.9643
18663TIP3    H277481   5.608   6.066  16.315  0.6744 -0.8196 -0.4352
18664TIP3   OH277482   2.541   1.328  14.714  0.3447  0.0959 -0.1040
18664TIP3    H177483   2.479   1.294  14.649  0.4948 -1.4121  0.4947
18664TIP3    H277484   2.604   1.380  14.663 -0.5157  0.3737 -0.9155
18665TIP3   OH277485   4.737   0.273   0.872  0.6080  0.0765 -0.4112
18665TIP3    H177486   4.668   0.327   0.910  0.0458  1.2357 -2.9297
18665TIP3    H277487   4.720   0.185   0.907 -0.8642  0.7277  0.6294
18666TIP3   OH277488   1.692   0.949   3.095  0.0709 -0.1336 -0.5522
18666TIP3    H177489   1.778   0.906   3.094  0.3215  0.3481 -1.9502
18666TIP3    H277490   1.707   1.032   3.140  0.0773 -0.5262  0.1893
18667TIP3   OH277491   6.228   6.395  16.148  0.2335  0.1065 -0.3700
18667TIP3    H177492   6.273   6.448  16.214 -0.0244  0.3521 -0.3839
18667TIP3    H277493   6.153   6.449  16.122 -0.4491 -0.5695  0.1371
18668TIP3   OH277494   4.797   3.425  16.356 -0.5089 -0.0704 -0.1096
18668TIP3    H177495   4.798   3.330  16.342 -0.6003 -0.0558 -0.2156
18668TIP3    H277496   4.838   3.462  16.278  1.1758 -0.1096  0.7265
18669TIP3   OH277497   1.616   5.716   3.711 -0.1385 -0.2290 -0.3377
18669TIP3    H177498   1.707   5.745   3.705 -0.2437  0.2545  0.3800
18669TIP3    H277499   1.616   5.631   3.667  0.2496  0.6351 -2.1402
18670TIP3   OH277500   4.472   6.463   1.513 -0.0871  0.2965  0.6430
18670TIP3    H177501   4.545   6.418   1.554 -0.9622 -1.0862  0.7344
18670TIP3    H277502   4.513   6.527   1.454  1.2051 -1.0515  0.0178
18671TIP3   OH277503   3.718   4.260   3.505 -0.3874 -0.0181 -0.7288
18671TIP3    H177504   3.806   4.296   3.490  0.1542 -0.7641  0.5092
18671TIP3    H277505   3.686   4.306   3.582  0.2566 -1.9506  0.7936
18672TIP3   OH277506   1.133   1.485   4.624  0.3252 -0.1405  0.8323
18672TIP3    H177507   1.104   1.552   4.562 -0.6195 -0.5675  0.7885
18672TIP3    H277508   1.154   1.409   4.570 -0.2622 -0.4311  1.0001
18673TIP3   OH277509   2.938   3.324  14.532  0.3862 -0.0300 -0.1404
18673TIP3    H177510   2.869   3.271  14.573  0.4464 -0.9848 -1.2118
18673TIP3    H277511   3.019   3.279  14.554  0.3949 -0.7288 -1.5060
18674TIP3   OH277512   1.403   3.321   0.323 -0.3223  0.1124 -0.6466
18674TIP3    H177513   1.436   3.410   0.333  2.4880 -0.8806 -0.0779
18674TIP3    H277514   1.342   3.310   0.396 -2.3841  2.1455 -1.9214
18675TIP3   OH277515   2.405   6.453   5.104  0.5513 -0.6282  0.1642
18675TIP3    H177516   2.490   6.416   5.080  0.0484 -1.6709 -0.0409
18675TIP3    H277517   2.347   6.378   5.110 -0.1925 -0.0024  1.0416
18676TIP3   OH277518   6.265   1.548  13.911  0.1810  0.4284 -0.1304
18676TIP3    H177519   6.308   1.629  13.884  1.0918  0.1477  0.4184
18676TIP3    H277520   6.212   1.522  13.835  0.0409  1.4220 -0.3796
18677TIP3   OH277521   2.500   3.087   3.271 -0.3436 -0.0871  0.2954
18677TIP3    H177522   2.454   3.157   3.224  0.9792 -0.1275 -1.1451
18677TIP3    H277523   2.540   3.131   3.346 -1.3335  0.2548  0.6401
18678TIP3   OH277524   2.839   3.352   5.818  0.1369 -0.1665  0.2961
18678TIP3    H177525   2.883   3.299   5.884  1.2774  0.5173  0.1160
18678TIP3    H277526   2.746   3.334   5.831  0.3503 -0.3089  1.8545
18679TIP3   OH277527   4.648   4.835  13.126  0.1335  0.6168  0.5044
18679TIP3    H177528   4.573   4.844  13.185 -1.2319  0.1040 -1.0633
18679TIP3    H277529   4.699   4.762  13.161 -0.5947  0.3798  1.0853
18680TIP3   OH277530   5.149   6.626  15.145 -0.7104 -0.1032  0.1310
18680TIP3    H177531   5.183   6.578  15.069 -0.6966 -1.5492  0.9981
18680TIP3    H277532   5.066   6.662  15.116 -0.8071 -0.8278 -0.5310
18681TIP3   OH277533   4.215   2.215  13.867  0.5182  0.4235  0.1073
18681TIP3    H177534   4.237   2.239  13.778 -0.8721  0.8078 -0.1583
18681TIP3    H277535   4.267   2.274  13.922 -1.8123  3.2267 -0.5180
18682TIP3   OH277536   3.241   4.855   6.193  0.6006  0.2940  0.2298
18682TIP3    H177537   3.212   4.944   6.173  0.3218 -0.2069 -1.8287
18682TIP3    H277538   3.327   4.848   6.151 -0.0077 -0.8451 -0.8734
18683TIP3   OH277539   1.806   0.152   0.078 -0.3248 -0.3381 -0.4036
18683TIP3    H177540   1.764   0.066   0.084  0.9396 -1.1142 -1.7887
18683TIP3    H277541   1.734   0.214   0.083 -1.1784 -1.3902  1.8106
18684TIP3   OH277542   5.930   6.380   6.215 -0.4255  0.1506  0.1602
18684TIP3    H177543   5.906   6.292   6.244 -0.6703 -0.1618 -0.9173
18684TIP3    H277544   5.907   6.437   6.288  0.6262 -0.7739  1.2620
18685TIP3   OH277545   2.210   0.727   1.784 -0.0042  0.0642  0.2343
18685TIP3    H177546   2.296   0.728   1.826  1.4781 -3.4907 -2.1809
18685TIP3    H277547   2.211   0.804   1.726 -0.0818  2.1534  2.8252
18686TIP3   OH277548   1.055   6.075   5.124  0.2823 -0.3854 -0.2485
18686TIP3    H177549   1.133   6.130   5.117  0.7475 -1.0066 -0.0010
18686TIP3    H277550   1.049   6.053   5.217  1.0986 -2.1778 -0.5930
18687TIP3   OH277551   5.357   5.534   2.677 -0.3340 -0.0385 -0.5875
18687TIP3    H177552   5.447   5.509   2.657  0.4125  1.9139  0.0763
18687TIP3    H277553   5.332   5.591   2.604 -1.1771 -0.8445 -0.9422
18688TIP3   OH277554   2.651   3.499   1.301 -0.0422  0.1565 -0.0852
18688TIP3    H177555   2.667   3.582   1.346 -1.5032  1.0853 -1.1977
18688TIP3    H277556   2.561   3.505   1.269 -0.0102 -1.6476 -0.6529
18689TIP3   OH277557   5.884   5.968   5.257  0.4880 -0.2122 -0.8087
18689TIP3    H177558   5.953   5.946   5.320  0.7503  1.0648 -0.6283
18689TIP3    H277559   5.907   5.918   5.179  2.4167  1.1713 -1.2086
18690TIP3   OH277560   1.754   1.858   4.005  0.0508  0.6298  0.3498
18690TIP3    H177561   1.781   1.832   4.093  1.6846  0.8977 -0.0351
18690TIP3    H277562   1.679   1.916   4.019 -0.4089 -0.1931  1.4838
18691TIP3   OH277563   4.899   5.926   0.749 -0.2375  0.0763  0.6484
18691TIP3    H177564   4.943   5.973   0.819  0.2573  1.5448 -0.6126
18691TIP3    H277565   4.871   5.994   0.688 -2.0066 -1.0369  0.1438
18692TIP3   OH277566   2.849   1.563  14.319  0.1068  0.4596 -0.0751
18692TIP3    H177567   2.801   1.541  14.239 -0.2635 -0.9379  0.5054
18692TIP3    H277568   2.940   1.539  14.300  0.5207  2.5036 -0.9444
18693TIP3   OH277569   5.442   6.522  12.672  0.2029  0.2725  0.0238
18693TIP3    H177570   5.361   6.470  12.672 -0.1929  0.6928 -3.0109
18693TIP3    H277571   5.508   6.463  12.708 -0.8485 -1.3004 -0.5055
18694TIP3   OH277572   4.039   1.480   1.102  0.5369 -0.1283 -0.3405
18694TIP3    H177573   3.995   1.432   1.032  0.8916 -1.4572  0.2977
18694TIP3    H277574   4.099   1.539   1.057  0.9830 -1.1737 -1.1788
18695TIP3   OH277575   2.126   3.703   0.636  0.3428 -0.4791 -0.3749
18695TIP3    H177576   2.192   3.666   0.696  0.2005 -0.1024  0.0130
18695TIP3    H277577   2.042   3.685   0.678  0.1665 -1.2444 -1.0246
18696TIP3   OH277578   4.506   3.413   0.260  0.5622 -0.1786  0.0898
18696TIP3    H177579   4.508   3.430   0.166 -0.8649 -2.3901 -0.4195
18696TIP3    H277580   4.554   3.331   0.271  2.2278  0.9011  1.5973
18697TIP3   OH277581   4.922   4.593   0.188  0.1546 -0.1992 -0.5142
18697TIP3    H177582   4.997   4.652   0.190  1.1612 -1.4664  0.9271
18697TIP3    H277583   4.893   4.588   0.279 -0.7214 -0.9251 -0.8175
18698TIP3   OH277584   0.658   5.533  15.887  0.2198 -0.1366  0.2214
18698TIP3    H177585   0.628   5.464  15.946 -0.0323  1.4941  2.0658
18698TIP3    H277586   0.694   5.600  15.944 -0.6388  1.8324 -1.4231
18699TIP3   OH277587   4.363   2.108   6.075 -0.0617  0.3003  0.2401
18699TIP3    H177588   4.406   2.193   6.067  1.5752 -0.4032  1.2046
18699TIP3    H277589   4.418   2.058   6.135 -0.5489 -1.7249 -0.9060
18700TIP3   OH277590   6.575   3.615  11.864  0.2086  0.3747 -0.2861
18700TIP3    H177591   6.657   3.653  11.897 -0.0468  0.6834 -0.0027
18700TIP3    H277592   6.507   3.674  11.896 -0.2619 -0.7144  0.7693
18701TIP3   OH277593   4.607   0.113  14.235 -0.0449 -0.2379 -0.1475
18701TIP3    H177594   4.693   0.132  14.272 -1.1549  3.5167  0.9536
18701TIP3    H277595   4.561   0.066  14.304 -0.3223  1.9687  1.2946
18702TIP3   OH277596   2.917   5.039  14.030 -0.0351 -1.2907 -0.8749
18702TIP3    H177597   2.871   5.122  14.042 -1.0823 -1.8902 -0.6116
18702TIP3    H277598   3.010   5.061  14.042 -0.3312 -0.2403 -0.3748
18703TIP3   OH277599   1.245   4.160   1.943 -0.3765 -0.2155 -0.0588
18703TIP3    H177600   1.251   4.094   1.874 -0.0429 -3.0891  2.4948
18703TIP3    H277601   1.197   4.232   1.902 -2.2522 -2.6702 -2.6268
18704TIP3   OH277602   1.446   3.406   6.630 -0.4941 -0.4394  0.2379
18704TIP3    H177603   1.468   3.341   6.563  0.1993  0.3708 -0.3342
18704TIP3    H277604   1.376   3.364   6.680  0.3065 -1.8671  0.2416
18705TIP3   OH277605   6.186   2.617  14.157 -0.2152  0.4615 -0.1827
18705TIP3    H177606   6.209   2.586  14.070 -0.7152 -0.6964  0.0826
18705TIP3    H277607   6.130   2.693  14.142 -2.2063 -1.0670 -0.9373
18706TIP3   OH277608   6.312   3.706   2.973  0.4873 -0.1963  0.1684
18706TIP3    H177609   6.358   3.638   2.923  0.2215 -0.6751  0.5709
18706TIP3    H277610   6.331   3.787   2.925 -0.5694 -0.7666 -1.2740
18707TIP3   OH277611   0.007   6.284   1.842  0.1885  0.0856  0.0243
18707TIP3    H177612   0.090   6.238   1.850  0.6689  1.0942  0.9696
18707TIP3    H277613  -0.040   6.265   1.923 -0.2694 -0.0071 -0.2565
18708TIP3   OH277614   6.332   4.303  14.349 -0.3101  0.3523 -0.3237
18708TIP3    H177615   6.376   4.284  14.432 -0.0318 -1.0408 -0.7461
18708TIP3    H277616   6.364   4.389  14.324 -0.7338  0.9895  1.2157
18709TIP3   OH277617   1.023   0.935   1.053  0.1793  0.1113 -0.2847
18709TIP3    H177618   1.047   1.027   1.043  0.0820  0.2610  0.7121
18709TIP3    H277619   1.087   0.887   1.001  1.9134  0.5724  1.3110
18710TIP3   OH277620   6.147   0.344  15.173 -0.4865  0.1477 -0.3339
18710TIP3    H177621   6.060   0.368  15.204  0.1773  2.3619 -0.0159
18710TIP3    H277622   6.177   0.420  15.123 -0.0089 -1.8196 -3.3330
18711TIP3   OH277623   2.632   6.481   1.497  0.0974  0.1336 -0.0005
18711TIP3    H177624   2.562   6.544   1.484 -0.2806  0.4062  2.8693
18711TIP3    H277625   2.590   6.405   1.536  1.1051 -0.5062 -0.1151
18712TIP3   OH277626   3.065   3.446  15.088  0.1367 -0.4226 -0.1794
18712TIP3    H177627   3.048   3.369  15.142  1.3583 -1.4303 -1.1632
18712TIP3    H277628   2.989   3.452  15.030  0.3021 -1.2658 -0.4982
18713TIP3   OH277629   0.973   2.231   5.644 -0.4399  0.1397 -0.0850
18713TIP3    H177630   0.968   2.241   5.739 -1.6335 -2.2017  0.1850
18713TIP3    H277631   0.924   2.305   5.609 -1.0848  0.3488  1.1939
18714TIP3   OH277632   0.008   0.246  17.094  0.2020  0.3819 -0.3166
18714TIP3    H177633   0.095   0.239  17.054 -0.5319  0.1574 -1.9590
18714TIP3    H277634  -0.003   0.339  17.111  0.4560  0.5175 -0.8564
18715TIP3   OH277635   4.712   4.263   2.885 -0.8224 -0.2340 -0.1148
18715TIP3    H177636   4.737   4.219   2.803 -1.3449 -0.8253  0.0362
18715TIP3    H277637   4.730   4.198   2.953  1.1765  0.8152  0.4498
18716TIP3   OH277638   0.459   3.001  13.021  0.1544  0.1394 -0.5686
18716TIP3    H177639   0.454   2.973  13.112  2.2865  0.1186 -0.4155
18716TIP3    H277640   0.479   2.921  12.972 -1.4393  0.0630 -1.1440
18717TIP3   OH277641   0.611   4.724  11.536 -0.0392 -0.1109  0.0732
18717TIP3    H177642   0.567   4.767  11.463  0.6275 -0.7214 -0.6966
18717TIP3    H277643   0.659   4.794  11.580 -0.3954  0.2497 -0.1020
18718TIP3   OH277644   0.803   3.449   2.896  0.4755  0.1319 -0.2081
18718TIP3    H177645   0.873   3.513   2.900  1.7827 -1.2224 -0.3959
18718TIP3    H277646   0.738   3.488   2.837  2.4147  0.2179 -2.4711
18719TIP3   OH277647   5.397   5.590   4.284  0.2610 -0.6157  0.3580
18719TIP3    H177648   5.469   5.602   4.347  1.0866 -2.9611 -0.0356
18719TIP3    H277649   5.338   5.528   4.328  0.1968 -1.2757 -0.6356
18720TIP3   OH277650   5.759   5.346  10.933 -0.2644 -0.3181  0.2983
18720TIP3    H177651   5.794   5.435  10.936  0.7318 -0.6307 -1.0926
18720TIP3    H277652   5.724   5.337  10.844 -0.4537 -1.2835  0.4597
18721TIP3   OH277653   4.848   3.129  14.151 -0.0873  0.1650 -0.3801
18721TIP3    H177654   4.864   3.037  14.172  0.3848  0.1560 -0.7471
18721TIP3    H277655   4.800   3.128  14.068 -0.4242  0.2401 -0.1863
18722TIP3   OH277656   5.899   3.197   0.860 -0.1620 -0.2213  0.2565
18722TIP3    H177657   5.952   3.166   0.933  0.2251 -0.4391 -0.1131
18722TIP3    H277658   5.953   3.182   0.783 -0.1465  0.9718  0.0166
18723TIP3   OH277659   3.896   3.939   4.770  0.2440 -0.6328  0.2337
18723TIP3    H177660   3.965   3.997   4.738  0.3412 -0.9033 -0.0487
18723TIP3    H277661   3.815   3.980   4.739  0.3103 -0.6287  0.0642
18724TIP3   OH277662   0.125   2.739  14.817 -0.6242 -0.3046  0.2209
18724TIP3    H177663   0.141   2.833  14.819  1.0454 -0.5487 -0.1499
18724TIP3    H277664   0.202   2.702  14.775  0.3284 -2.1247  3.1984
18725TIP3   OH277665   0.259   1.553  13.382  0.3136 -0.0026  0.2716
18725TIP3    H177666   0.273   1.560  13.287  1.2432  0.1560  0.4174
18725TIP3    H277667   0.310   1.625  13.419  0.5332 -0.5067  0.9516
18726TIP3   OH277668   2.352   5.602   0.919 -0.0539 -0.2874 -0.1741
18726TIP3    H177669   2.278   5.635   0.970  0.4548  0.5862  0.0149
18726TIP3    H277670   2.378   5.521   0.962  2.1589  1.7604  2.7671
18727TIP3   OH277671   5.363   3.840   2.984 -0.1017 -0.3242  0.4025
18727TIP3    H177672   5.274   3.841   2.948 -0.1104 -0.8156  0.4127
18727TIP3    H277673   5.393   3.750   2.974  0.3315 -0.2019  0.5646
18728TIP3   OH277674   0.275   0.894   2.813  0.1557 -0.0012  0.5395
18728TIP3    H177675   0.253   0.896   2.906 -0.6247 -0.5116  0.3689
18728TIP3    H277676   0.252   0.806   2.784 -2.0974  0.9151 -0.7177
18729TIP3   OH277677   2.808   2.549  13.100 -0.0347 -0.8887  0.1034
18729TIP3    H177678   2.788   2.463  13.061 -1.1617 -0.8210  0.4782
18729TIP3    H277679   2.812   2.532  13.194  1.5445 -0.8438  0.0638
18730TIP3   OH277680   6.016   3.310   4.209 -0.2441 -0.0717 -0.1510
18730TIP3    H177681   6.008   3.216   4.194  1.4122 -0.6635  2.1231
18730TIP3    H277682   5.931   3.346   4.183 -1.7372 -2.5018  1.0241
18731TIP3   OH277683   5.189   4.139  15.687 -0.4479 -0.0785  0.5239
18731TIP3    H177684   5.260   4.075  15.677 -0.2194 -0.1857  2.3858
18731TIP3    H277685   5.222   4.219  15.646  0.6863 -0.1878  1.1931
18732TIP3   OH277686   0.043   4.373  12.800  0.5216  0.2371 -0.6506
18732TIP3    H177687   0.061   4.464  12.775  2.2490 -0.5611 -2.5951
18732TIP3    H277688   0.129   4.331  12.801 -0.3103 -1.5641 -0.5474
18733TIP3   OH277689   1.510   0.936  16.941 -0.1138  0.3449 -0.7030
18733TIP3    H177690   1.481   0.855  16.898 -0.7906  0.4893 -0.5316
18733TIP3    H277691   1.553   0.907  17.021 -1.6954  0.1963  0.1346
18734TIP3   OH277692   5.610   6.446  16.469  0.4279  0.8485  0.4477
18734TIP3    H177693   5.668   6.467  16.396  1.0534 -0.8933  0.4035
18734TIP3    H277694   5.522   6.446  16.431  0.7668 -0.2717 -0.3733
18735TIP3   OH277695   2.810   2.115  15.970 -0.2269 -0.0141 -0.2019
18735TIP3    H177696   2.827   2.205  15.999  1.1392 -0.2596 -0.1729
18735TIP3    H277697   2.715   2.107  15.970 -0.3565  0.4182  2.9711
18736TIP3   OH277698   2.118   1.540   0.091  0.3061  0.1074  0.4615
18736TIP3    H177699   2.183   1.485   0.135 -0.3623 -0.3604  0.8855
18736TIP3    H277700   2.053   1.477   0.058 -0.2280  0.6133  0.5466
18737TIP3   OH277701   3.704   5.142  15.082  0.6722  0.2021 -0.1974
18737TIP3    H177702   3.697   5.106  15.170 -0.5275  2.1922  0.5765
18737TIP3    H277703   3.682   5.069  15.024  1.1673 -1.0485  1.1457
18738TIP3   OH277704   3.903   5.789   5.378  1.1673 -0.5855 -0.1228
18738TIP3    H177705   3.895   5.862   5.439  0.1786  0.9708 -1.9796
18738TIP3    H277706   3.983   5.807   5.329  1.3357 -1.1734 -0.0627
18739TIP3   OH277707   3.428   4.633   1.113 -0.1845  0.1469  0.4047
18739TIP3    H177708   3.499   4.589   1.160  1.3823 -0.1386 -2.0249
18739TIP3    H277709   3.459   4.723   1.102  0.2277 -0.1638 -1.3235
18740TIP3   OH277710   6.521   6.089   0.242  0.2987  0.1086  0.6696
18740TIP3    H177711   6.441   6.084   0.189  0.6062 -1.8952  0.3088
18740TIP3    H277712   6.492   6.121   0.327 -1.1316 -1.5726  0.8776
18741TIP3   OH277713   6.800   6.691   2.597  0.3967 -0.3756  0.3068
18741TIP3    H177714   6.734   6.688   2.666  1.2607 -0.1348  1.1687
18741TIP3    H277715   6.786   6.774   2.553  0.9618  0.3045  1.3608
18742TIP3   OH277716   0.342   0.761  12.801 -0.0419 -0.2408  0.1438
18742TIP3    H177717   0.287   0.721  12.734 -0.6205 -0.1464  0.5578
18742TIP3    H277718   0.287   0.828  12.841 -0.1952 -1.2285  1.6599
18743TIP3   OH277719   0.211   3.752   3.836 -0.0730  0.2506  0.4895
18743TIP3    H177720   0.276   3.809   3.795 -0.0246 -0.4294 -0.4179
18743TIP3    H277721   0.126   3.792   3.814 -0.1176 -0.7702 -1.4067
18744TIP3   OH277722   2.609   5.478   4.732  0.4742 -0.2481 -0.1213
18744TIP3    H177723   2.597   5.547   4.796 -0.6143 -0.6500  0.1199
18744TIP3    H277724   2.521   5.445   4.714  0.9219 -1.2462 -0.5864
18745TIP3   OH277725   4.865   5.511   6.257 -0.1724  0.5161  0.3460
18745TIP3    H177726   4.774   5.504   6.285 -0.5542  3.7691  0.2348
18745TIP3    H277727   4.912   5.545   6.333  0.8012 -0.2039  0.0946
18746TIP3   OH277728   6.044   6.029  15.367  0.2636 -0.6388 -0.7369
18746TIP3    H177729   6.007   6.111  15.400 -0.1538 -0.9999 -0.2892
18746TIP3    H277730   6.120   6.012  15.423 -0.1785 -1.0173 -0.2447
18747TIP3   OH277731   3.289   4.643  16.809 -0.2120 -0.1391  0.3103
18747TIP3    H177732   3.256   4.568  16.759  0.6426 -1.2746  1.3793
18747TIP3    H277733   3.231   4.649  16.884 -0.0313  0.0057  0.4368
18748TIP3   OH277734   0.255   3.592   4.054  0.2610 -0.3687  0.6783
18748TIP3    H177735   0.246   3.497   4.058  0.2171 -0.3414  1.3120
18748TIP3    H277736   0.253   3.612   3.960  0.6163 -1.0204  0.5243
18749TIP3   OH277737   5.834   5.597  15.631  0.2336  0.1650  0.1057
18749TIP3    H177738   5.759   5.645  15.666  0.2567  0.8382 -0.7380
18749TIP3    H277739   5.890   5.665  15.592  1.5312 -0.2533  1.1411
18750TIP3   OH277740   3.264   3.662   4.600 -0.4052  0.3152  0.5932
18750TIP3    H177741   3.257   3.659   4.505 -1.0129 -0.2365  0.6485
18750TIP3    H277742   3.241   3.574   4.629  0.1056  0.3794  1.2374
18751TIP3   OH277743   4.533   1.428   0.386 -0.1334  0.0860 -0.2424
18751TIP3    H177744   4.572   1.510   0.415  0.6693 -0.2535 -0.3302
18751TIP3    H277745   4.488   1.449   0.305  1.5196  0.1102 -1.2035
18752TIP3   OH277746   4.425   5.848   2.502  0.2479 -0.7847 -0.5412
18752TIP3    H177747   4.407   5.941   2.517 -0.1201 -1.0320  0.6776
18752TIP3    H277748   4.343   5.813   2.468 -0.2924 -1.0723  1.0114
18753TIP3   OH277749   0.492   6.701   3.935  0.0516  0.1693 -0.4040
18753TIP3    H177750   0.411   6.673   3.978 -0.0540  0.3744 -0.4701
18753TIP3    H277751   0.487   6.662   3.848  0.1558 -0.0508 -0.3128
18754TIP3   OH277752   1.601   2.564  10.689 -0.5142 -0.2239 -0.2625
18754TIP3    H177753   1.648   2.482  10.673 -0.7623 -0.5119  0.4143
18754TIP3    H277754   1.552   2.548  10.771 -2.4424 -0.2284 -1.3457
18755TIP3   OH277755   0.585   1.694  12.960 -0.0151 -0.1720  0.1519
18755TIP3    H177756   0.625   1.761  13.016  1.5621 -0.2755 -0.8138
18755TIP3    H277757   0.616   1.713  12.872 -3.0536  0.4455 -0.9173
18756TIP3   OH277758   0.033   5.566  17.165  0.3037  0.0471  0.3520
18756TIP3    H177759  -0.037   5.631  17.170  0.0961 -0.2286  1.3684
18756TIP3    H277760   0.005   5.504  17.098 -0.6787 -0.3415  1.1030
18757TIP3   OH277761   3.216   2.222  16.091  0.3684  0.3977  0.6078
18757TIP3    H177762   3.195   2.164  16.018 -2.0828  1.0202  0.7486
18757TIP3    H277763   3.269   2.291  16.052 -0.6383  0.5466 -0.5476
18758TIP3   OH277764   1.223   3.977  14.822 -0.3011  0.1379 -0.1956
18758TIP3    H177765   1.286   3.961  14.753 -0.8360  1.7547 -1.1268
18758TIP3    H277766   1.182   3.892  14.838  2.5131 -1.1335  0.9479
18759TIP3   OH277767   2.082   0.331  12.685 -0.5980  0.1758  0.6809
18759TIP3    H177768   2.109   0.407  12.632  1.0295  1.1302  2.7275
18759TIP3    H277769   1.989   0.322  12.667 -0.4417  1.4445 -1.1005
18760TIP3   OH277770   0.756   4.136  16.085  0.6972  0.4513 -0.2465
18760TIP3    H177771   0.788   4.179  16.165  1.8374  0.1750 -0.5423
18760TIP3    H277772   0.667   4.170  16.074  0.5702  0.5936  1.0661
18761TIP3   OH277773   3.087   2.544  16.305  0.1925 -0.6929 -0.0457
18761TIP3    H177774   3.028   2.585  16.368  0.6978  0.1161 -0.0832
18761TIP3    H277775   3.067   2.588  16.222  0.8641 -0.3746 -0.0495
18762TIP3   OH277776   5.639   1.657  11.199  0.1303 -0.2220  0.7198
18762TIP3    H177777   5.571   1.677  11.134  0.4378 -1.5784 -0.0549
18762TIP3    H277778   5.719   1.646  11.148  0.3079 -1.6562  1.2569
18763TIP3   OH277779   5.251   1.974   4.523  0.0220  0.1052  0.4233
18763TIP3    H177780   5.323   1.945   4.467 -0.2311 -1.9692  1.0652
18763TIP3    H277781   5.261   2.069   4.528  3.1772 -0.1339  1.0752
18764TIP3   OH277782   4.964   1.750  12.343 -0.1270 -1.1701  0.0166
18764TIP3    H177783   5.044   1.760  12.293 -1.2792  0.0038 -1.7144
18764TIP3    H277784   4.958   1.831  12.395 -0.0567 -1.3653  0.3276
18765TIP3   OH277785   5.811   5.030  16.079  0.1205 -0.0417  0.2936
18765TIP3    H177786   5.841   5.011  15.990  1.0784 -2.1764  1.0005
18765TIP3    H277787   5.883   5.002  16.135 -1.1577 -0.4313  1.8167
18766TIP3   OH277788   4.618   4.869   3.510  0.2373 -0.5090 -0.0366
18766TIP3    H177789   4.647   4.936   3.571  1.4292 -0.8407 -0.2020
18766TIP3    H277790   4.681   4.873   3.438  0.1121 -1.5377 -0.2274
18767TIP3   OH277791   3.239   0.104   0.019 -0.2685 -0.7437 -0.5245
18767TIP3    H177792   3.300   0.153  -0.036  0.8118 -0.8747  0.5047
18767TIP3    H277793   3.221   0.023  -0.029 -0.9900  0.0446 -1.6107
18768TIP3   OH277794   6.352   1.592   2.106 -0.2543  0.2804  0.0991
18768TIP3    H177795   6.398   1.646   2.169  2.3157 -1.2097 -0.3597
18768TIP3    H277796   6.309   1.525   2.159  2.2711 -1.2447  0.3882
18769TIP3   OH277797   2.103   5.699  15.153  0.1332  0.0689  0.0959
18769TIP3    H177798   2.153   5.729  15.229  0.6861  1.2055 -0.6981
18769TIP3    H277799   2.019   5.670  15.190  0.5041  0.3237  1.1751
18770TIP3   OH277800   1.410   4.442  14.921  0.2475  0.0754  0.0656
18770TIP3    H177801   1.326   4.443  14.875 -0.7459  1.5825  1.8158
18770TIP3    H277802   1.470   4.488  14.862 -0.0091 -1.2781 -1.3365
18771TIP3   OH277803   1.100   4.404  15.430 -0.1004 -0.1495 -0.1839
18771TIP3    H177804   1.027   4.460  15.404 -0.7732 -0.1293  1.6700
18771TIP3    H277805   1.087   4.323  15.380  0.4021  0.9570 -2.2414
18772TIP3   OH277806   5.030   5.606   2.261  0.0948  0.2735 -0.3476
18772TIP3    H177807   5.007   5.520   2.298 -2.1633  0.9931  0.0515
18772TIP3    H277808   5.017   5.596   2.167 -1.8386  0.5835 -0.1598
18773TIP3   OH277809   0.393   2.838  15.568 -0.1136 -0.3361  0.0383
18773TIP3    H177810   0.427   2.758  15.528  0.5014  0.5316 -1.2637
18773TIP3    H277811   0.397   2.822  15.662 -1.6076 -2.4581 -0.1972
18774TIP3   OH277812   3.672   1.508  16.280 -0.1814 -0.2682 -0.2022
18774TIP3    H177813   3.729   1.533  16.208 -0.2100  0.1391 -0.0857
18774TIP3    H277814   3.635   1.590  16.312  0.0636 -0.4030  0.4681
18775TIP3   OH277815   2.294   0.521  16.782  0.1885 -0.1038  0.5518
18775TIP3    H177816   2.294   0.457  16.711 -1.1019  0.6904 -0.2154
18775TIP3    H277817   2.304   0.468  16.862  2.4790 -0.9445 -0.2125
18776TIP3   OH277818   0.323   1.861  12.662 -0.2797 -0.3441  0.1360
18776TIP3    H177819   0.369   1.896  12.738 -1.1477  1.8536 -0.2607
18776TIP3    H277820   0.233   1.846  12.693 -0.3148 -0.7066 -0.1339
18777TIP3   OH277821   5.729   5.445   0.170  0.0827  0.9328  0.7841
18777TIP3    H177822   5.637   5.468   0.155 -0.2471 -1.3048 -1.4749
18777TIP3    H277823   5.777   5.500   0.109 -0.1757 -0.3510 -0.6453
18778TIP3   OH277824   4.491   0.956  13.998 -0.1155 -0.5581 -0.3750
18778TIP3    H177825   4.540   1.026  13.957  0.6104 -1.5494 -1.2529
18778TIP3    H277826   4.503   0.970  14.092  0.2622  0.3083 -0.5484
18779TIP3   OH277827   3.858   4.662  15.737  0.0924 -0.2071  0.1673
18779TIP3    H177828   3.908   4.665  15.656 -1.6693  2.0270 -0.9500
18779TIP3    H277829   3.902   4.723  15.795 -0.7529  1.1043 -0.5151
18780TIP3   OH277830   1.953   0.052  13.705  0.1209  0.0312  0.2894
18780TIP3    H177831   2.002   0.057  13.623  0.5964  0.5483  0.6008
18780TIP3    H277832   1.902  -0.029  13.697 -0.1334  0.2755 -0.6758
18781TIP3   OH277833   5.921   1.672   5.435 -0.0264  0.2154  0.3995
18781TIP3    H177834   5.853   1.736   5.413  1.5030  1.6540 -0.3027
18781TIP3    H277835   5.948   1.695   5.524 -0.3055 -0.2307  0.6037
18782TIP3   OH277836   3.777   3.237  13.269 -0.2541 -0.2110 -0.0672
18782TIP3    H177837   3.798   3.191  13.187  0.2104 -0.2383  0.0625
18782TIP3    H277838   3.862   3.251  13.310 -0.4519  0.2033  0.1993
18783TIP3   OH277839   6.655   3.273   0.801  0.0761 -0.1810  0.0968
18783TIP3    H177840   6.647   3.344   0.865 -1.4408  1.7077 -2.0427
18783TIP3    H277841   6.571   3.228   0.805 -0.1674  0.1751 -0.7692
18784TIP3   OH277842   1.654   2.101   2.206  0.1914 -0.0445  0.2395
18784TIP3    H177843   1.599   2.130   2.133  0.3778  1.2346  0.5763
18784TIP3    H277844   1.613   2.140   2.283  1.7358  1.2239  0.4603
18785TIP3   OH277845   4.299   4.519   0.237 -0.0196 -0.3088  0.4989
18785TIP3    H177846   4.297   4.432   0.197 -0.7511  0.0672 -0.3013
18785TIP3    H277847   4.350   4.572   0.177  2.2748 -0.6362  2.0056
18786TIP3   OH277848   0.486   4.628  16.427 -0.1421  0.2085 -1.0000
18786TIP3    H177849   0.515   4.538  16.413 -1.5033  0.0023 -2.8533
18786TIP3    H277850   0.527   4.678  16.357 -0.8872  0.6681 -1.1257
18787TIP3   OH277851   5.951   4.409  10.962 -0.3145 -0.7126 -0.1601
18787TIP3    H177852   6.017   4.380  10.899  0.7761  0.9280  0.1775
18787TIP3    H277853   5.883   4.341  10.958 -0.6618 -0.3462 -3.6087
18788TIP3   OH277854   0.776   2.468  17.064  0.0559 -0.5079  0.0752
18788TIP3    H177855   0.829   2.389  17.052  0.0409 -0.4560 -0.3423
18788TIP3    H277856   0.700   2.454  17.007 -0.9090 -1.0483  1.4538
18789TIP3   OH277857   2.776   6.589  12.642 -0.5925 -0.3726 -0.2622
18789TIP3    H177858   2.835   6.599  12.567  0.1484 -0.9644  0.2260
18789TIP3    H277859   2.761   6.678  12.674  0.2915 -0.2453 -0.1969
18790TIP3   OH277860   1.941   2.677   5.538  0.0901  0.1294  0.1971
18790TIP3    H177861   1.941   2.656   5.632  0.4643  3.6694  1.1570
18790TIP3    H277862   1.901   2.601   5.496 -1.2025 -1.1121  3.3350
18791TIP3   OH277863   4.915   6.753   1.252  0.3486  0.1713  0.5517
18791TIP3    H177864   5.007   6.761   1.278  0.1652  0.6103  1.0852
18791TIP3    H277865   4.893   6.838   1.214  0.5256 -0.3657 -0.7902
18792TIP3   OH277866   6.668   3.511  15.530  0.2645  0.3779  0.1400
18792TIP3    H177867   6.716   3.431  15.509  1.5596  0.5367  2.1785
18792TIP3    H277868   6.583   3.480  15.562  0.0232 -0.0526 -0.8678
18793TIP3   OH277869   2.978   4.583  13.850  0.2161 -0.4789  0.0575
18793TIP3    H177870   3.022   4.566  13.933 -0.6074  0.2877  0.6812
18793TIP3    H277871   2.886   4.596  13.874 -0.3969 -2.1825 -1.2251
18794TIP3   OH277872   2.365   4.406  12.336 -0.0348 -0.6280  0.1054
18794TIP3    H177873   2.435   4.369  12.391 -0.1438 -0.6990  0.1973
18794TIP3    H277874   2.307   4.332  12.319  1.0976 -1.1468 -1.8640
18795TIP3   OH277875   1.728   0.138   0.717 -0.3279 -0.2141  0.2182
18795TIP3    H177876   1.665   0.207   0.735  1.1167  1.0045  0.8841
18795TIP3    H277877   1.764   0.116   0.803  1.9459  0.9471 -0.3680
18796TIP3   OH277878   4.845   2.615  13.558  0.3368 -0.0290  0.0504
18796TIP3    H177879   4.793   2.632  13.637  0.5441  2.8817 -0.3216
18796TIP3    H277880   4.913   2.682  13.559  0.0812  0.4163 -2.7890
18797TIP3   OH277881   2.239   1.784   5.295 -0.5097 -0.7007  0.2170
18797TIP3    H177882   2.299   1.824   5.358  0.8576 -0.8221 -0.9587
18797TIP3    H277883   2.159   1.766   5.345  1.1151 -2.4301  2.3623
18798TIP3   OH277884   3.313   2.460   3.220  0.0163 -0.4156  0.1586
18798TIP3    H177885   3.309   2.367   3.241  0.1318 -0.4426  0.0592
18798TIP3    H277886   3.406   2.479   3.208  0.0655 -0.1157  0.9331
18799TIP3   OH277887   2.219   6.443   4.219  0.3587 -0.1973 -0.1245
18799TIP3    H177888   2.239   6.412   4.307 -1.7489 -0.5634  0.2827
18799TIP3    H277889   2.218   6.538   4.226  0.9236 -0.1962  0.0440
18800TIP3   OH277890   4.415   2.618   6.046  0.2038 -0.5650 -0.3187
18800TIP3    H177891   4.337   2.610   6.101  1.4043 -1.6073  1.3171
18800TIP3    H277892   4.413   2.709   6.015 -1.5876 -0.5519 -0.2394
18801TIP3   OH277893   6.109   5.767  14.200  0.3283 -0.2375 -0.0911
18801TIP3    H177894   6.137   5.677  14.212  0.7756  0.1243  1.9992
18801TIP3    H277895   6.179   5.819  14.239  0.5805  1.1073 -2.1587
18802TIP3   OH277896   3.991   0.531  14.403 -0.3088  0.0487  0.0302
18802TIP3    H177897   3.923   0.597  14.390  0.6767  1.1770  0.4723
18802TIP3    H277898   4.061   0.556  14.343  0.0892 -0.6033  0.2086
18803TIP3   OH277899   6.323   2.120   6.046 -0.5146  0.5301 -0.3123
18803TIP3    H177900   6.297   2.093   6.133  1.1164  2.4298  0.8626
18803TIP3    H277901   6.271   2.199   6.029 -1.0622 -0.0086 -1.2278
18804TIP3   OH277902   1.734   4.009  11.209  0.3563 -0.9369  0.1966
18804TIP3    H177903   1.770   3.979  11.126  0.3158 -1.5230  0.3851
18804TIP3    H277904   1.796   3.978  11.275  0.7688  0.1400  0.3402
18805TIP3   OH277905   2.000   0.398   1.172  0.1445 -0.2874  0.2762
18805TIP3    H177906   1.987   0.489   1.197  0.1365 -0.2107  0.0024
18805TIP3    H277907   1.937   0.383   1.101  2.2541  0.4399 -1.9035
18806TIP3   OH277908   4.167   1.619  11.733  0.0652  0.6737 -0.3076
18806TIP3    H177909   4.234   1.638  11.667 -2.1277  0.0760 -2.8422
18806TIP3    H277910   4.120   1.702  11.743 -0.4172  0.4228 -0.4746
18807TIP3   OH277911   3.545   3.931  16.868  0.8137  0.7576  0.0496
18807TIP3    H177912   3.592   3.850  16.889 -0.7275 -0.0979  0.4141
18807TIP3    H277913   3.540   3.978  16.951  0.0644  0.3006  0.2765
18808TIP3   OH277914   3.293   1.844   2.700  0.3892  0.0767 -0.2831
18808TIP3    H177915   3.341   1.838   2.617 -0.3966 -0.4300 -0.7071
18808TIP3    H277916   3.225   1.909   2.683 -1.6753 -2.1407 -1.0305
18809TIP3   OH277917   6.711   2.487   6.353 -0.9208  0.0246 -0.0750
18809TIP3    H177918   6.729   2.543   6.429  1.1805  0.2793 -0.6871
18809TIP3    H277919   6.691   2.402   6.390  0.2826  0.0884  0.7950
18810TIP3   OH277920   4.760   4.431  15.618  0.3512 -0.3293  0.3019
18810TIP3    H177921   4.817   4.417  15.694  0.3426  0.8761  0.5466
18810TIP3    H277922   4.685   4.479  15.654  0.3027  0.1723 -0.4540
18811TIP3   OH277923   1.958   0.051   5.246 -0.5132  0.5888  0.0788
18811TIP3    H177924   1.956   0.146   5.264 -0.7132  0.7277 -0.6561
18811TIP3    H277925   1.866   0.024   5.254 -0.4538  0.4515  0.2996
18812TIP3   OH277926   3.201   0.391  13.144 -0.2731 -0.3692  0.0590
18812TIP3    H177927   3.287   0.350  13.138 -0.2849 -0.9432  2.6123
18812TIP3    H277928   3.215   0.468  13.199 -1.3326 -0.2647  0.2005
18813TIP3   OH277929   4.899   4.336  12.197 -0.0811  0.1006  0.0396
18813TIP3    H177930   4.834   4.267  12.212  0.7846 -0.6735  0.3435
18813TIP3    H277931   4.982   4.289  12.190  0.4533  1.0715 -0.3427
18814TIP3   OH277932   3.306   6.571   4.861 -0.0448 -0.3174  0.0214
18814TIP3    H177933   3.342   6.494   4.816 -0.8170 -0.4673 -0.3650
18814TIP3    H277934   3.324   6.556   4.953 -0.2446 -1.0047 -0.0422
18815TIP3   OH277935   5.806   5.810  11.463  0.2954 -0.2925 -0.0990
18815TIP3    H177936   5.854   5.785  11.542  0.6157 -1.0601 -0.5333
18815TIP3    H277937   5.719   5.834  11.495  1.3652  2.6848  0.9183
18816TIP3   OH277938   3.679   3.796   4.418 -0.3269  0.3532  0.0905
18816TIP3    H177939   3.639   3.863   4.362 -1.0218 -0.1129  0.0211
18816TIP3    H277940   3.733   3.744   4.359 -0.3143  0.4409  0.0251
18817TIP3   OH277941   5.138   1.365   4.898  0.0953 -0.3478  0.1155
18817TIP3    H177942   5.128   1.453   4.932  0.7047 -0.7271  1.3458
18817TIP3    H277943   5.233   1.349   4.899 -0.1020 -1.8302  2.2074
18818TIP3   OH277944   0.374   6.781  17.000  0.0891  0.4256 -0.3327
18818TIP3    H177945   0.466   6.795  16.975 -0.0232 -0.0694 -1.0570
18818TIP3    H277946   0.324   6.828  16.933 -0.1948  0.1662 -0.3056
18819TIP3   OH277947   0.162   0.085   5.843  0.0376  0.4965  0.7589
18819TIP3    H177948   0.156   0.109   5.935 -0.2726  0.2415  0.8061
18819TIP3    H277949   0.121  -0.001   5.838 -0.4701  0.7573  0.2872
18820TIP3   OH277950   1.740   1.504   6.318 -0.1494 -0.1740 -0.4077
18820TIP3    H177951   1.754   1.563   6.392 -4.0088  0.1846  0.2260
18820TIP3    H277952   1.819   1.451   6.315  0.3384 -0.0200  3.8309
18821TIP3   OH277953   4.629   2.436  14.272 -0.5095 -0.3583  0.1171
18821TIP3    H177954   4.605   2.382  14.348 -0.2633 -1.4312 -0.5463
18821TIP3    H277955   4.723   2.422  14.261 -0.3732  0.4799  0.1275
18822TIP3   OH277956   2.596   2.947   3.054  1.0826  0.3397 -0.1166
18822TIP3    H177957   2.538   2.983   2.987  0.3620 -0.5073  0.0393
18822TIP3    H277958   2.562   2.980   3.137  0.6101 -0.4109  0.0007
18823TIP3   OH277959   1.148   2.545   5.065  0.0057  0.4412 -0.5256
18823TIP3    H177960   1.133   2.457   5.098 -1.0837  0.4057 -1.0569
18823TIP3    H277961   1.238   2.544   5.033  0.8607  0.2618  1.6859
18824TIP3   OH277962   3.112   6.465  16.794  0.1846  0.0480 -0.1529
18824TIP3    H177963   3.117   6.510  16.878 -1.9049  1.1673 -0.5841
18824TIP3    H277964   3.022   6.432  16.789  0.5604 -0.8725 -1.5352
18825TIP3   OH277965   1.102   5.559   4.212 -0.3526  0.0353  0.2422
18825TIP3    H177966   1.041   5.488   4.233  0.0071 -0.3461 -0.0030
18825TIP3    H277967   1.185   5.532   4.252 -0.2738  0.4233  0.3414
18826TIP3   OH277968   3.514   5.518   4.754  0.1187  0.0559  0.4906
18826TIP3    H177969   3.507   5.423   4.746  1.2328  0.0135 -0.1667
18826TIP3    H277970   3.537   5.532   4.846 -0.1067 -0.3020  0.6053
18827TIP3   OH277971   0.122   1.635   0.413  0.0917 -1.0791  0.4327
18827TIP3    H177972   0.100   1.695   0.342 -0.2899 -0.1190  1.3391
18827TIP3    H277973   0.052   1.646   0.477  0.9739 -1.1329  1.4481
18828TIP3   OH277974   0.576   1.083  17.003  0.3316  0.1966  0.2056
18828TIP3    H177975   0.660   1.129  17.004  0.7151 -0.4879  1.7877
18828TIP3    H277976   0.586   1.016  16.936  2.0083 -1.5208  2.0584
18829TIP3   OH277977   4.037   0.304  13.728  0.0294 -0.3116  0.1619
18829TIP3    H177978   4.012   0.212  13.722  0.7170 -0.4074 -2.2661
18829TIP3    H277979   4.129   0.303  13.751 -0.0442 -0.1982  0.4764
18830TIP3   OH277980   6.236   4.516   3.747  0.4978  0.1386  0.3737
18830TIP3    H177981   6.295   4.451   3.709  0.9743  0.7760 -0.0013
18830TIP3    H277982   6.157   4.467   3.769  0.6038 -0.4413 -0.4973
18831TIP3   OH277983   1.090   3.189   5.111  0.5400 -0.6685  0.1850
18831TIP3    H177984   1.156   3.249   5.148  0.7392 -1.6134  1.4245
18831TIP3    H277985   1.070   3.226   5.025  0.5655  1.2574  0.9544
18832TIP3   OH277986   4.703   2.318  14.803  0.0989  0.0532 -0.0033
18832TIP3    H177987   4.664   2.405  14.797 -0.0426  0.1136  1.5564
18832TIP3    H277988   4.792   2.334  14.832 -0.3311 -0.3716  1.6352
18833TIP3   OH277989   0.144   2.812   5.333 -0.0484  0.1239  0.1016
18833TIP3    H177990   0.161   2.906   5.344 -1.1123  0.5506 -1.5136
18833TIP3    H277991   0.126   2.781   5.421 -0.8749  1.7090  0.5385
18834TIP3   OH277992   3.648   4.903   0.521  0.2225 -0.1994  0.2363
18834TIP3    H177993   3.671   4.916   0.613  1.0272 -0.8104  0.1293
18834TIP3    H277994   3.657   4.809   0.507  0.1527 -0.1046 -0.4866
18835TIP3   OH277995   1.688   3.103  16.253  0.6998  0.1390  0.2980
18835TIP3    H177996   1.748   3.127  16.182  0.3313  0.3645  0.0617
18835TIP3    H277997   1.604   3.139  16.227  0.9060  1.7555  1.6448
18836TIP3   OH277998   0.729   4.383   1.658 -0.1810 -0.3730 -0.2764
18836TIP3    H177999   0.758   4.430   1.580 -1.7860  0.9044 -0.1654
18836TIP3    H278000   0.688   4.303   1.625 -0.4439 -0.0587 -0.7168
18837TIP3   OH278001   1.182   1.931   4.707 -0.3280 -0.1449 -0.0296
18837TIP3    H178002   1.213   1.983   4.633  0.6671 -1.7963 -0.8318
18837TIP3    H278003   1.261   1.916   4.760 -0.0213 -2.7488 -1.0581
18838TIP3   OH278004   3.255   4.549   1.695 -0.5648 -0.7478 -0.0951
18838TIP3    H178005   3.336   4.507   1.666  0.5217 -0.1936  1.9527
18838TIP3    H278006   3.210   4.572   1.614  1.9359  0.1086 -1.3366
18839TIP3   OH278007   3.050   5.815  14.472 -0.1611  0.2134  0.1404
18839TIP3    H178008   3.088   5.894  14.433  1.4309 -0.4807  0.2240
18839TIP3    H278009   2.994   5.848  14.542  1.9689  1.2623  1.4623
18840TIP3   OH278010   2.717   0.714  14.902  0.2122 -0.3203  0.0646
18840TIP3    H178011   2.650   0.768  14.860 -0.1764 -1.6505 -1.1250
18840TIP3    H278012   2.675   0.628  14.911  0.7382 -0.4126  2.0635
18841TIP3   OH278013   2.736   5.245  13.935  0.2484 -0.0263  0.2500
18841TIP3    H178014   2.664   5.183  13.931  0.3207 -0.0500 -1.4758
18841TIP3    H278015   2.730   5.284  14.022 -1.6221 -0.2924  0.2682
18842TIP3   OH278016   3.999   5.286   0.626 -0.2205  0.6057 -0.0863
18842TIP3    H178017   3.952   5.222   0.680 -1.7473  2.3314  0.7821
18842TIP3    H278018   4.002   5.246   0.539 -0.7933 -0.7936  0.5000
18843TIP3   OH278019   4.241   6.091  11.474  0.2145 -0.3275 -0.0762
18843TIP3    H178020   4.283   6.174  11.494  0.6839 -0.8323  1.1235
18843TIP3    H278021   4.169   6.114  11.416 -0.0254  0.9881  0.7097
18844TIP3   OH278022   2.699   1.016  11.923  0.2937 -0.9225 -0.2656
18844TIP3    H178023   2.652   0.967  11.991 -0.2832 -1.2737 -0.8977
18844TIP3    H278024   2.639   1.015  11.848 -0.3210  1.8707  0.0751
18845TIP3   OH278025   6.613   3.653  11.026 -0.2057  0.5759  0.6488
18845TIP3    H178026   6.519   3.647  11.044 -0.4043  0.2526 -0.4554
18845TIP3    H278027   6.627   3.596  10.950  0.8337  0.8571  0.6166
18846TIP3   OH278028   2.824   5.419  15.828 -0.6751 -0.2241  0.6852
18846TIP3    H178029   2.754   5.430  15.763  2.0455 -1.2516 -2.6652
18846TIP3    H278030   2.857   5.331  15.814  2.0099  0.5862  1.3598
18847TIP3   OH278031   6.152   1.814  13.567 -0.6145 -0.4180 -0.2658
18847TIP3    H178032   6.185   1.760  13.496 -0.5593  1.3641 -1.6526
18847TIP3    H278033   6.057   1.808  13.560 -0.6530  1.3418 -1.8231
18848TIP3   OH278034   5.588   5.192   1.400 -0.2329  0.3212 -0.0631
18848TIP3    H178035   5.495   5.214   1.404 -0.0832  1.0640 -0.4169
18848TIP3    H278036   5.615   5.179   1.491 -1.2951 -2.6914 -0.0594
18849TIP3   OH278037   3.904   3.294  15.928  0.1255  0.0043  0.0363
18849TIP3    H178038   3.929   3.211  15.969  3.0088  0.9492  0.4313
18849TIP3    H278039   3.987   3.339  15.913 -1.3542  3.8228  1.9360
18850TIP3   OH278040   0.876   0.659  12.617  0.2255 -0.1734  0.2073
18850TIP3    H178041   0.819   0.651  12.540  0.8994 -0.0923 -0.3087
18850TIP3    H278042   0.903   0.569  12.636  0.0279 -0.1976  0.3706
18851TIP3   OH278043   0.034   3.222  12.070 -0.1099 -0.1338 -0.3264
18851TIP3    H178044   0.026   3.293  12.134  0.3216 -1.3247  1.0963
18851TIP3    H278045   0.116   3.179  12.092 -0.6559 -1.4532 -0.7510
18852TIP3   OH278046   4.508   2.579  11.079 -0.2704 -0.2773  0.7556
18852TIP3    H178047   4.491   2.545  11.167  1.8794 -1.5268  0.7485
18852TIP3    H278048   4.602   2.565  11.065 -0.4184  0.5438 -1.4756
18853TIP3   OH278049   1.354   3.473  13.167  0.0402  0.0755 -0.0844
18853TIP3    H178050   1.409   3.445  13.240 -1.4153 -1.5188  0.4745
18853TIP3    H278051   1.372   3.566  13.157  2.1616 -0.2058  0.6223
18854TIP3   OH278052   1.066   0.675  13.460 -0.4016  0.0026 -0.0477
18854TIP3    H178053   1.130   0.608  13.481 -0.5462 -0.2461 -0.3930
18854TIP3    H278054   1.033   0.651  13.374 -1.1814 -0.0492  0.2568
18855TIP3   OH278055   3.108   4.696  10.410 -0.2021  0.0500  0.7403
18855TIP3    H178056   3.082   4.734  10.494 -0.7720 -0.8472  0.9747
18855TIP3    H278057   3.036   4.719  10.350 -0.3810 -0.3652  0.7976
18856TIP3   OH278058   4.076   4.629  13.756  0.0553 -0.2654  0.7225
18856TIP3    H178059   4.092   4.718  13.726 -1.0867 -0.6691 -1.2507
18856TIP3    H278060   4.160   4.584  13.743 -0.3216 -0.3731 -1.8996
18857TIP3   OH278061   2.211   4.660  14.640  0.1175 -0.7982 -0.1500
18857TIP3    H178062   2.151   4.649  14.714  1.1023 -0.7709  0.6853
18857TIP3    H278063   2.268   4.582  14.644  1.5736  0.2591  0.4763
18858TIP3   OH278064   2.790   5.528   4.270 -0.3424  0.0522  0.1015
18858TIP3    H178065   2.793   5.565   4.358  0.3410 -1.0169  0.5444
18858TIP3    H278066   2.869   5.560   4.227  0.6153 -1.3828  0.7146
18859TIP3   OH278067   4.219   5.068   0.193 -0.0311  0.1318  0.4692
18859TIP3    H178068   4.249   5.032   0.276 -0.2038  0.4941  0.6897
18859TIP3    H278069   4.259   5.155   0.189  0.8744 -0.2986 -0.3309
18860TIP3   OH278070   1.286   0.181   4.689  0.6581  0.5792 -0.2128
18860TIP3    H178071   1.371   0.136   4.691  0.6563  0.4173 -2.2180
18860TIP3    H278072   1.287   0.231   4.607 -0.8077  1.3589  0.2124
18861TIP3   OH278073   4.505   4.460  14.628  0.1402 -0.2724  0.2556
18861TIP3    H178074   4.598   4.455  14.604 -0.1652 -1.5053 -0.7791
18861TIP3    H278075   4.476   4.368  14.632 -1.4347  0.1153 -1.1345
18862TIP3   OH278076   1.823   3.855   0.945  0.3865  0.0049  0.1686
18862TIP3    H178077   1.889   3.894   1.002 -0.2964 -1.3510  1.9929
18862TIP3    H278078   1.782   3.930   0.900  0.4569  1.2172  2.0288
18863TIP3   OH278079   0.097   1.328   6.115 -0.5814  0.7407 -0.1187
18863TIP3    H178080   0.138   1.323   6.029  0.0569  0.8305  0.1752
18863TIP3    H278081   0.003   1.325   6.097 -0.4593 -1.9037 -0.6443
18864TIP3   OH278082   2.454   4.718   4.460  0.6282  0.1485  0.1991
18864TIP3    H178083   2.517   4.762   4.403  0.3648 -2.8868 -2.8074
18864TIP3    H278084   2.397   4.788   4.492  2.4227  2.3747 -1.1576
18865TIP3   OH278085   2.972   5.075   4.709 -0.2956 -0.7942 -0.1547
18865TIP3    H178086   2.890   5.119   4.729 -0.4687  0.2272 -2.8081
18865TIP3    H278087   3.040   5.138   4.732 -0.4551 -0.0095 -1.7189
18866TIP3   OH278088   2.649   0.711  12.020  0.6466 -0.1451  0.2617
18866TIP3    H178089   2.620   0.718  12.111  1.3346 -0.2761  0.5047
18866TIP3    H278090   2.721   0.648  12.023 -0.2493 -1.2446 -0.6038
18867TIP3   OH278091   5.077   1.509  12.477 -0.1238 -0.0746 -0.4512
18867TIP3    H178092   5.119   1.435  12.432 -1.1948 -0.8895 -0.1378
18867TIP3    H278093   5.112   1.506  12.566  0.7979  0.5792 -0.7818
18868TIP3   OH278094   0.435   0.155  11.404 -0.2696 -0.6169  0.6617
18868TIP3    H178095   0.515   0.108  11.430 -0.6948 -1.1643  1.0101
18868TIP3    H278096   0.465   0.219  11.339  0.4413 -0.8627  0.7347
18869TIP3   OH278097   2.453   2.355  16.095  0.3396 -0.5790 -0.5771
18869TIP3    H178098   2.376   2.311  16.057 -0.6068  0.6126 -0.1135
18869TIP3    H278099   2.453   2.441  16.055 -0.9710  0.9264  2.3299
18870TIP3   OH278100   1.837   4.697   3.723  0.5282 -0.3710 -0.1468
18870TIP3    H178101   1.881   4.780   3.736 -0.7196  0.0450  2.1512
18870TIP3    H278102   1.831   4.659   3.811 -1.6338 -1.4273 -0.6647
18871TIP3   OH278103   5.904   1.058   6.627 -0.2752 -0.1009 -0.0667
18871TIP3    H178104   5.957   1.107   6.565 -1.8933  0.3606 -1.1628
18871TIP3    H278105   5.835   1.119   6.654  1.1435  0.2117  3.3619
18872TIP3   OH278106   4.305   0.683   4.314 -0.2404  0.0574  0.1898
18872TIP3    H178107   4.295   0.600   4.361 -2.0455 -0.3330 -0.8041
18872TIP3    H278108   4.245   0.743   4.358 -2.5063 -0.5034 -1.9375
18873TIP3   OH278109   4.877   2.377  13.797 -0.1450 -0.2016  0.1364
18873TIP3    H178110   4.784   2.386  13.776  0.0132  1.0430 -0.1326
18873TIP3    H278111   4.921   2.385  13.712  0.1976 -1.1569  0.2139
18874TIP3   OH278112   1.727   1.462  11.155  0.2196 -0.1398  0.8114
18874TIP3    H178113   1.731   1.448  11.060 -0.4122  1.0855  0.5904
18874TIP3    H278114   1.746   1.555  11.166  1.2533 -0.4657  1.9796
18875TIP3   OH278115   6.361   4.280   1.111 -0.2579 -1.1887 -0.1225
18875TIP3    H178116   6.302   4.270   1.185 -0.4760  1.6073  0.1902
18875TIP3    H278117   6.384   4.190   1.086 -1.5718 -2.2466  2.1683
18876TIP3   OH278118   3.004   3.550  13.170  0.6105  0.5859  0.4344
18876TIP3    H178119   2.966   3.610  13.106  0.5042  0.6716  0.5772
18876TIP3    H278120   3.092   3.532  13.137  1.2163  2.0379  1.1608
18877TIP3   OH278121   0.833   3.981   0.648  0.3361 -0.0025 -1.0840
18877TIP3    H178122   0.765   4.012   0.707 -0.3317  0.5946 -2.1324
18877TIP3    H278123   0.810   3.889   0.630  2.5061 -1.4221  2.2944
18878TIP3   OH278124   6.353   5.917   2.783 -0.1776 -0.0954 -0.7011
18878TIP3    H178125   6.354   5.822   2.770 -0.3598 -0.1392 -0.4080
18878TIP3    H278126   6.270   5.946   2.745 -0.9790 -0.2981  0.8036
18879TIP3   OH278127   1.249   1.523   3.282  0.1839  0.2905 -0.7302
18879TIP3    H178128   1.198   1.579   3.341 -0.3946  1.6082 -2.4058
18879TIP3    H278129   1.235   1.434   3.316  0.5225  1.0414  1.5512
18880TIP3   OH278130   2.712   5.797  15.631  0.3495 -0.1290 -0.0995
18880TIP3    H178131   2.668   5.875  15.596  1.9758  0.4707 -0.9053
18880TIP3    H278132   2.642   5.748  15.674 -1.3355  0.2983 -2.1320
18881TIP3   OH278133   4.846   2.924   1.459 -0.0101  0.1806 -0.2578
18881TIP3    H178134   4.867   2.840   1.416 -2.3585 -0.6875  0.1623
18881TIP3    H278135   4.873   2.911   1.550  2.7696  1.1848 -0.8196
18882TIP3   OH278136   1.267   4.367  16.835 -0.9166 -0.4341  0.2434
18882TIP3    H178137   1.246   4.440  16.894 -0.7284 -0.6871  0.6264
18882TIP3    H278138   1.362   4.372  16.823 -1.0244 -0.0460 -0.4911
18883TIP3   OH278139   5.769   0.028   0.489  0.1184 -0.3902  0.3369
18883TIP3    H178140   5.711   0.104   0.483  1.7576  0.8866 -0.1755
18883TIP3    H278141   5.731  -0.035   0.428  0.7793  1.5332 -2.2747
18884TIP3   OH278142   2.483   6.066  13.890  0.3353 -0.1638  0.0380
18884TIP3    H178143   2.491   6.111  13.974 -2.4476  0.4435  0.0520
18884TIP3    H278144   2.406   6.010  13.899  0.9488 -1.3716 -1.5856
18885TIP3   OH278145   6.525   3.403  12.454 -0.0090  0.1253 -0.2411
18885TIP3    H178146   6.479   3.329  12.415  1.0226  0.0378 -1.3594
18885TIP3    H278147   6.615   3.373  12.464  0.1602  0.8279  0.4074
18886TIP3   OH278148   6.290   5.515   4.179  0.0195  0.2320  0.0851
18886TIP3    H178149   6.284   5.450   4.249  0.6441  0.4129  0.3083
18886TIP3    H278150   6.207   5.507   4.132 -0.3389 -0.0042  0.7470
18887TIP3   OH278151   3.044   6.576  13.705  0.6356  0.6585  0.1778
18887TIP3    H178152   3.138   6.581  13.724  0.7073  0.2646 -0.0534
18887TIP3    H278153   3.040   6.553  13.612  0.4212 -3.8426  1.0304
18888TIP3   OH278154   6.207   0.201  15.691  0.1581 -0.4862 -0.0733
18888TIP3    H178155   6.161   0.166  15.614  0.5834 -0.3816 -0.3754
18888TIP3    H278156   6.247   0.282  15.660 -0.0945 -0.1804  0.3992
18889TIP3   OH278157   3.254   2.202  15.037  0.1576 -0.1118  0.5418
18889TIP3    H178158   3.234   2.168  15.124 -0.5323 -0.6618  0.1909
18889TIP3    H278159   3.195   2.276  15.026  0.3456  0.0450  0.6019
18890TIP3   OH278160   2.381   4.283   2.246 -0.1457  0.3173  0.4582
18890TIP3    H178161   2.403   4.237   2.166 -0.7438  1.2908 -0.2915
18890TIP3    H278162   2.465   4.318   2.277  0.2961 -1.1699  0.9988
18891TIP3   OH278163   5.850   4.718   4.916 -0.3733 -0.1029 -0.4894
18891TIP3    H178164   5.755   4.708   4.918 -0.4115  0.1502 -0.9646
18891TIP3    H278165   5.864   4.810   4.896 -0.0286 -0.2748 -1.0574
18892TIP3   OH278166   6.270   6.715  15.976  0.6614  0.0777  0.3942
18892TIP3    H178167   6.283   6.810  15.970  1.9336 -0.1289 -0.8650
18892TIP3    H278168   6.327   6.688  16.048 -0.4038  0.3654  1.3616
18893TIP3   OH278169   2.832   2.145  16.378  0.3291 -0.3974 -0.1634
18893TIP3    H178170   2.892   2.206  16.334  0.2138 -0.9527 -1.1206
18893TIP3    H278171   2.746   2.186  16.370  0.1172 -1.0406 -1.5501
18894TIP3   OH278172   6.413   6.277  11.414  0.1777  0.0363  0.0539
18894TIP3    H178173   6.399   6.237  11.500 -2.4583 -0.9649 -0.7536
18894TIP3    H278174   6.339   6.338  11.403 -0.7656 -1.4021 -2.3066
18895TIP3   OH278175   3.697   6.248  11.807  1.0253 -0.4161  0.2707
18895TIP3    H178176   3.709   6.188  11.734  1.5661  1.4436 -1.2751
18895TIP3    H278177   3.785   6.264  11.840  1.1274  0.8217 -0.5023
18896TIP3   OH278178   0.139   3.455   0.449 -0.1723  0.2443  0.2583
18896TIP3    H178179   0.102   3.389   0.391  0.5840 -0.7499  0.8709
18896TIP3    H278180   0.166   3.406   0.526  2.8289  0.8199 -0.3275
18897TIP3   OH278181   0.481   2.889   2.261 -0.4784  0.2374  0.1548
18897TIP3    H178182   0.428   2.848   2.330  0.4399  1.3346  1.5772
18897TIP3    H278183   0.556   2.925   2.308  0.6134  0.2901 -1.5646
18898TIP3   OH278184   5.238   3.412  10.847  0.2113 -0.4035  0.0659
18898TIP3    H178185   5.195   3.447  10.924 -0.5756 -0.4654 -0.3403
18898TIP3    H278186   5.218   3.474  10.777 -0.7890 -1.3797 -0.5458
18899TIP3   OH278187   5.681   2.715  11.398  0.1277 -0.2808 -0.1410
18899TIP3    H178188   5.709   2.662  11.472  2.1239 -0.7219 -1.1315
18899TIP3    H278189   5.645   2.652  11.335  1.1545 -0.3113 -0.7206
18900TIP3   OH278190   2.647   4.870   2.440 -0.4113  0.0656 -0.2865
18900TIP3    H178191   2.706   4.806   2.479  1.4399  1.3634 -0.7918
18900TIP3    H278192   2.682   4.955   2.469 -1.7788  0.8927 -0.9746
18901TIP3   OH278193   5.800   1.645   1.253 -0.0206  0.7774  0.1090
18901TIP3    H178194   5.778   1.568   1.307 -1.5118  0.8724 -0.3271
18901TIP3    H278195   5.824   1.608   1.168 -0.5804  0.7701 -0.0517
18902TIP3   OH278196   5.523   4.767   5.698  0.0627  0.0768 -0.0376
18902TIP3    H178197   5.453   4.739   5.757 -0.6412 -1.4720 -1.5136
18902TIP3    H278198   5.485   4.841   5.650 -0.5104 -0.6153 -0.6740
18903TIP3   OH278199   1.352   6.393  16.584 -0.4777 -0.5092 -0.0013
18903TIP3    H178200   1.333   6.399  16.678  1.5743  0.2072  0.4224
18903TIP3    H278201   1.309   6.312  16.556 -1.3759 -0.5801  1.4797
18904TIP3   OH278202   0.628   1.943  14.755  0.0292  0.1494  0.4374
18904TIP3    H178203   0.598   1.985  14.674  1.4321 -2.5857 -1.6823
18904TIP3    H278204   0.570   1.867  14.765  1.0672 -0.6106  0.8800
18905TIP3   OH278205   5.929   2.040   5.554 -0.4020  0.4134  0.0137
18905TIP3    H178206   5.853   2.026   5.611 -0.6142  0.6731 -0.1982
18905TIP3    H278207   6.003   2.046   5.614 -0.1390 -2.4305  0.0970
18906TIP3   OH278208   1.653   0.694  12.611 -0.9579  0.3393 -0.0339
18906TIP3    H178209   1.591   0.745  12.559  0.5683  0.6232 -1.6705
18906TIP3    H278210   1.661   0.611  12.564 -1.2253 -0.2949  1.0057
18907TIP3   OH278211   2.832   1.988  10.234 -0.0940  0.1319 -0.5000
18907TIP3    H178212   2.741   1.959  10.243 -0.6471  0.9939 -2.5622
18907TIP3    H278213   2.866   1.935  10.162  1.2081 -0.4866  0.5357
18908TIP3   OH278214   4.076   4.244   2.071 -0.0902  0.1586 -0.2463
18908TIP3    H178215   4.090   4.260   2.164 -0.9350 -0.7819  0.0554
18908TIP3    H278216   4.096   4.151   2.059  1.3318  0.5659 -1.2827
18909TIP3   OH278217   2.195   3.691   5.401  0.3119  0.0498 -0.0120
18909TIP3    H178218   2.145   3.663   5.324 -0.5872  1.8108 -0.1163
18909TIP3    H278219   2.247   3.765   5.371 -0.6832  1.3048  1.2181
18910TIP3   OH278220   2.121   1.981   3.065 -0.5203 -0.1628  0.3777
18910TIP3    H178221   2.066   2.040   3.116  0.4787  0.9748  0.1771
18910TIP3    H278222   2.134   1.905   3.122 -1.2455  0.1078  0.9175
18911TIP3   OH278223   3.681   3.225   3.389  0.5740 -0.1800  0.3892
18911TIP3    H178224   3.719   3.139   3.405  1.0589 -0.1267 -0.4375
18911TIP3    H278225   3.662   3.226   3.295  2.6924  1.4416 -0.0876
18912TIP3   OH278226   5.403   6.492  13.783 -0.3962  0.3853 -0.0370
18912TIP3    H178227   5.314   6.507  13.815 -0.5050  2.4161 -1.1640
18912TIP3    H278228   5.394   6.484  13.688  0.6133  0.4526 -0.1480
18913TIP3   OH278229   4.873   6.532  11.967 -0.3714  0.3819 -0.3332
18913TIP3    H178230   4.869   6.482  12.048 -0.3631  0.0858 -0.5143
18913TIP3    H278231   4.782   6.542  11.940 -0.3844 -4.0730 -3.0512
18914TIP3   OH278232   3.422   3.155  16.933  0.3043  0.6321 -0.1739
18914TIP3    H178233   3.412   3.186  17.023 -1.3352  0.4023 -0.2601
18914TIP3    H278234   3.439   3.234  16.882  0.5232  0.8469  0.2215
18915TIP3   OH278235   0.712   5.474   1.592 -0.0071 -0.2530  0.0515
18915TIP3    H178236   0.784   5.428   1.549 -0.2768 -0.0484 -0.6222
18915TIP3    H278237   0.658   5.508   1.521 -0.6229 -0.1628  0.5435
18916TIP3   OH278238   0.703   5.031  15.616 -0.0846  0.6503 -0.0594
18916TIP3    H178239   0.745   4.946  15.612  1.3697  1.3461 -0.0142
18916TIP3    H278240   0.766   5.088  15.660 -0.9131  1.8238 -0.3213
18917TIP3   OH278241   6.310   3.033   2.328  0.1206 -0.0911  0.0010
18917TIP3    H178242   6.371   3.106   2.322 -0.7312  0.5813 -0.8854
18917TIP3    H278243   6.225   3.071   2.305 -0.3721 -1.3214 -0.2972
18918TIP3   OH278244   3.545   2.684  16.246 -0.4896 -0.7423  0.4126
18918TIP3    H178245   3.569   2.649  16.160 -0.6026  0.7834 -0.2682
18918TIP3    H278246   3.481   2.622  16.280  1.1180 -2.5329  0.3664
18919TIP3   OH278247   2.727   5.802   1.695 -0.1207 -0.2841 -0.8753
18919TIP3    H178248   2.721   5.740   1.768 -0.0328  0.9188  0.2016
18919TIP3    H278249   2.708   5.750   1.617 -0.4256 -1.5709  0.0226
18920TIP3   OH278250   0.602   2.006   4.535  0.3986  0.1982  0.7945
18920TIP3    H178251   0.676   1.951   4.509  0.9218  1.5184 -0.7076
18920TIP3    H278252   0.624   2.036   4.623  1.5242  0.3374  0.4814
18921TIP3   OH278253   4.688   0.858   6.275  0.5782 -0.2788 -0.0356
18921TIP3    H178254   4.607   0.895   6.311  0.4913 -0.6180  0.1210
18921TIP3    H278255   4.668   0.840   6.183 -0.2993 -2.5269  0.5247
18922TIP3   OH278256   1.613   5.224  12.580 -0.4134 -0.2875 -0.2562
18922TIP3    H178257   1.694   5.183  12.610 -0.9532 -0.4716  0.9871
18922TIP3    H278258   1.543   5.171  12.618 -1.1262  0.6833 -0.1755
18923TIP3   OH278259   3.855   6.538  16.128 -0.2922  0.4382  0.5311
18923TIP3    H178260   3.785   6.527  16.064  1.0970 -0.4999 -0.8894
18923TIP3    H278261   3.841   6.626  16.163 -2.3032  0.1951  0.4935
18924TIP3   OH278262   5.921   2.555  14.349  0.3264  0.4459  0.0580
18924TIP3    H178263   5.973   2.593  14.278 -0.6007 -0.4520 -1.1499
18924TIP3    H278264   5.877   2.629  14.389  3.7179  1.5054  2.2413
18925TIP3   OH278265   4.532   6.209  10.738  0.3727 -0.2218  0.0481
18925TIP3    H178266   4.571   6.294  10.717 -0.4809  0.4599  1.1440
18925TIP3    H278267   4.454   6.204  10.683 -0.7027  0.6322  1.4477
18926TIP3   OH278268   4.406   0.009   0.475 -0.0513 -0.8991  0.1971
18926TIP3    H178269   4.381   0.092   0.435  0.6236 -1.0797 -0.6226
18926TIP3    H278270   4.469   0.034   0.543 -1.9885 -0.4914  1.9468
18927TIP3   OH278271   2.388   2.211  10.584  0.1921  0.3389 -0.5029
18927TIP3    H178272   2.458   2.263  10.545  0.5151  0.1874 -0.1289
18927TIP3    H278273   2.310   2.235  10.535  0.2864  1.3802 -0.1502
18928TIP3   OH278274   1.312   6.659   6.004  0.1487  0.3679 -0.6193
18928TIP3    H178275   1.360   6.589   6.049 -0.3648 -0.9939 -2.0944
18928TIP3    H278276   1.304   6.728   6.070  0.1232 -1.2069  1.1247
18929TIP3   OH278277   5.045   1.180   0.290  0.4383 -0.4016 -0.2237
18929TIP3    H178278   5.071   1.091   0.311  0.4638 -0.5514 -0.8698
18929TIP3    H278279   4.950   1.175   0.278 -0.0664  0.2448  2.6654
18930TIP3   OH278280   1.914   5.940  14.991  0.5554  0.0359  0.3005
18930TIP3    H178281   2.000   5.910  14.962  0.5112  1.3317 -1.3409
18930TIP3    H278282   1.921   6.035  14.995 -0.3016  0.0670  1.9165
18931TIP3   OH278283   6.237   6.545   3.117  0.0461 -0.4469 -0.3347
18931TIP3    H178284   6.279   6.468   3.079  0.2834 -1.3040  1.5462
18931TIP3    H278285   6.230   6.525   3.211  3.5326  3.2598  1.0248
18932TIP3   OH278286   0.320   2.519  14.051 -1.0732  0.8847 -0.3049
18932TIP3    H178287   0.232   2.552  14.066 -1.8576  0.0853 -2.7894
18932TIP3    H278288   0.311   2.453  13.983  0.8072 -2.6850  2.5379
18933TIP3   OH278289   2.786   0.864  10.275  0.3918 -0.0521 -0.4587
18933TIP3    H178290   2.800   0.795  10.211  2.0665  0.9998 -1.2746
18933TIP3    H278291   2.840   0.838  10.350 -1.1165 -0.9828  0.3666
18934TIP3   OH278292   3.728   3.336  14.666  0.0251  0.5392 -0.0422
18934TIP3    H178293   3.669   3.295  14.729  0.3433 -4.1269 -2.3653
18934TIP3    H278294   3.810   3.287  14.674  0.9345  1.5660 -2.2616
18935TIP3   OH278295   5.204   2.673   4.535  0.3327  0.6103 -0.2146
18935TIP3    H178296   5.198   2.619   4.456  0.0536  3.8563 -2.5884
18935TIP3    H278297   5.298   2.685   4.548  0.3684  0.3929 -0.2593
18936TIP3   OH278298   6.357   0.419  12.052 -0.3836  0.9722  0.5892
18936TIP3    H178299   6.296   0.492  12.043 -0.8449  0.6825  1.2963
18936TIP3    H278300   6.396   0.409  11.965  0.2001  2.4980  0.6425
18937TIP3   OH278301   0.862   3.376  15.527 -0.0394  0.2606 -0.4248
18937TIP3    H178302   0.879   3.377  15.621  0.3127  0.8026 -0.4838
18937TIP3    H278303   0.833   3.465  15.508  1.1684  0.5530 -1.0425
18938TIP3   OH278304   4.435   6.064  13.413 -0.3563  0.0283 -0.0075
18938TIP3    H178305   4.349   6.031  13.439 -0.2906 -0.8431 -0.8499
18938TIP3    H278306   4.419   6.155  13.387 -0.8044  0.2274  0.9494
18939TIP3   OH278307   3.589   3.890   1.771  0.6605 -0.1513  0.4376
18939TIP3    H178308   3.628   3.964   1.725  1.6753 -1.7964 -1.4623
18939TIP3    H278309   3.656   3.822   1.769 -1.1821 -2.0434 -0.2728
18940TIP3   OH278310   4.192   4.150   3.336 -0.3873  0.3391 -0.3350
18940TIP3    H178311   4.233   4.227   3.376  1.9675 -0.5996 -0.7778
18940TIP3    H278312   4.184   4.173   3.243 -0.8145  0.4909 -0.2626
18941TIP3   OH278313   6.721   1.866   1.840 -0.2860  0.4103  0.4894
18941TIP3    H178314   6.704   1.958   1.823 -0.8927  0.1611 -0.3556
18941TIP3    H278315   6.816   1.856   1.833 -0.4310  0.3843 -2.7213
18942TIP3   OH278316   3.020   5.094  15.303 -0.2063 -0.5377  0.0366
18942TIP3    H178317   2.965   5.163  15.265  2.6562  1.6052 -0.5607
18942TIP3    H278318   3.025   5.027  15.235 -1.2722 -0.3168 -0.2756
18943TIP3   OH278319   4.362   6.783   0.880 -0.2304 -0.0002  0.4008
18943TIP3    H178320   4.327   6.837   0.950  0.8731  4.7616 -2.2752
18943TIP3    H278321   4.293   6.783   0.813  0.8848  0.5427 -0.7773
18944TIP3   OH278322   4.879   1.639  15.074  0.4850  0.3279  0.4967
18944TIP3    H178323   4.836   1.573  15.020  0.8094  0.5750 -0.0655
18944TIP3    H278324   4.923   1.696  15.012 -1.4382  2.2806  0.8076
18945TIP3   OH278325   0.330   2.848  13.796 -0.2241 -0.2722 -0.5226
18945TIP3    H178326   0.342   2.943  13.796 -0.5109 -0.2045  1.0872
18945TIP3    H278327   0.419   2.812  13.793  0.0493  0.1102  1.3831
18946TIP3   OH278328   0.807   2.746  15.619  0.2615  0.2183 -0.1757
18946TIP3    H178329   0.855   2.829  15.616 -0.0634  0.4617  1.0507
18946TIP3    H278330   0.756   2.745  15.537 -1.0708  2.0515  0.5620
18947TIP3   OH278331   3.372   6.303   4.783 -0.1465  0.0070 -0.4140
18947TIP3    H178332   3.465   6.278   4.778 -0.3465 -1.3859  1.5865
18947TIP3    H278333   3.330   6.253   4.713  0.3918 -0.5827 -0.3243
18948TIP3   OH278334   5.965   4.202  15.866 -0.0767 -0.0283 -0.4028
18948TIP3    H178335   6.046   4.240  15.832 -0.1193 -1.0971 -1.7906
18948TIP3    H278336   5.993   4.124  15.915 -0.1783  0.3703  0.3100
18949TIP3   OH278337   5.744   4.436   5.400 -0.0088  0.6247 -0.0450
18949TIP3    H178338   5.797   4.511   5.373  0.7950 -0.1926 -0.7958
18949TIP3    H278339   5.709   4.400   5.318 -0.8022  0.4638  0.3487
18950TIP3   OH278340   5.405   3.499   2.889  0.2375 -0.1075  0.7199
18950TIP3    H178341   5.476   3.438   2.869  0.3223  0.0351  0.5814
18950TIP3    H278342   5.413   3.567   2.822  1.5566  1.2762  2.1648
18951TIP3   OH278343   3.133   0.578   4.252 -0.0779 -0.2369 -0.2717
18951TIP3    H178344   3.074   0.540   4.317  0.7338 -1.5860 -0.2899
18951TIP3    H278345   3.220   0.549   4.278  0.4785  0.9064 -0.8070
18952TIP3   OH278346   3.551   5.900  11.959 -0.2205 -0.0342 -0.3888
18952TIP3    H178347   3.554   5.806  11.940  0.4577  0.0102 -0.5499
18952TIP3    H278348   3.513   5.906  12.046 -0.2788 -0.4595 -0.3817
18953TIP3   OH278349   4.213   1.036   2.135 -0.1241  0.3308 -0.1119
18953TIP3    H178350   4.245   1.119   2.099 -0.2417  0.8633  0.9785
18953TIP3    H278351   4.216   1.048   2.230 -0.4004 -0.8210  0.0542
18954TIP3   OH278352   5.908   5.543   2.172 -0.7756  0.4631  0.0587
18954TIP3    H178353   5.968   5.499   2.232  1.2044  1.8862 -0.7865
18954TIP3    H278354   5.821   5.522   2.206 -0.0173 -3.6117  0.0292
18955TIP3   OH278355   4.249   1.825   4.649 -0.7981  0.5649 -0.0077
18955TIP3    H178356   4.248   1.779   4.733  1.3363  2.3746  1.1243
18955TIP3    H278357   4.158   1.827   4.621 -1.5097 -0.4937  2.0340
18956TIP3   OH278358   0.011   5.363  13.690  0.0139 -0.2832 -0.1490
18956TIP3    H178359  -0.014   5.308  13.615 -1.3606 -0.3148  0.3128
18956TIP3    H278360  -0.071   5.378  13.737  0.3726  2.0792 -0.1851
18957TIP3   OH278361   2.347   1.485  11.669  0.7010  0.3767  0.1520
18957TIP3    H178362   2.394   1.567  11.686  0.8524  0.0140  1.6850
18957TIP3    H278363   2.313   1.494  11.580  0.4205  2.2527  0.4073
18958TIP3   OH278364   3.562   3.658   1.426  0.4308 -0.3378  0.2914
18958TIP3    H178365   3.515   3.617   1.499 -0.1893 -0.4336 -0.1593
18958TIP3    H278366   3.577   3.586   1.364  1.1640 -0.3054  0.4247
18959TIP3   OH278367   0.756   3.238  12.153  0.2397  0.2745  0.4300
18959TIP3    H178368   0.829   3.235  12.215 -0.1704  0.2147  0.9130
18959TIP3    H278369   0.681   3.264  12.206  0.1606  1.6533 -0.3165
18960TIP3   OH278370   2.276   0.169  11.363  0.6400 -0.4474 -0.0189
18960TIP3    H178371   2.224   0.179  11.283  2.3137 -1.3402 -1.2910
18960TIP3    H278372   2.278   0.257  11.402 -0.5154 -0.0768 -0.7637
18961TIP3   OH278373   5.942   0.992  11.041  0.6234  0.0784  0.0752
18961TIP3    H178374   5.953   0.898  11.028  1.6547  0.1975 -0.0194
18961TIP3    H278375   6.030   1.028  11.026 -0.0856  1.2471 -1.4962
18962TIP3   OH278376   1.415   1.875  16.705  0.2714  0.2693  0.1594
18962TIP3    H178377   1.473   1.899  16.633 -2.2758 -0.9099 -2.4673
18962TIP3    H278378   1.465   1.811  16.755  1.4371 -0.4017 -1.7454
18963TIP3   OH278379   3.955   3.346   1.557  0.6121  0.3145 -0.6277
18963TIP3    H178380   3.886   3.310   1.502  1.3568 -0.6352 -0.9677
18963TIP3    H278381   3.910   3.374   1.637 -0.1049 -0.7846 -0.6271
18964TIP3   OH278382   1.553   6.537   1.209  0.0051  0.3218 -0.2062
18964TIP3    H178383   1.525   6.627   1.228  0.5720  0.5297 -0.3199
18964TIP3    H278384   1.575   6.539   1.115 -1.4288 -0.3302 -0.5824
18965TIP3   OH278385   2.731   1.075   2.686 -0.0898 -0.0307 -0.2129
18965TIP3    H178386   2.714   1.121   2.768 -0.6146 -1.4504  0.5052
18965TIP3    H278387   2.809   1.119   2.649 -0.1348  0.9252  0.7895
18966TIP3   OH278388   3.557   5.217  14.293  0.2481  0.3306  0.0266
18966TIP3    H178389   3.528   5.227  14.203  1.7925  0.9436 -0.4357
18966TIP3    H278390   3.527   5.130  14.319  0.5662 -0.2151 -1.3751
18967TIP3   OH278391   1.526   3.902  14.914  0.4669 -0.0679  0.2964
18967TIP3    H178392   1.497   3.842  14.845  0.2672 -1.1262  1.2712
18967TIP3    H278393   1.531   3.987  14.871  0.7775 -0.7766 -1.1374
18968TIP3   OH278394   6.168   2.134   3.565  0.1795 -0.2641  0.1435
18968TIP3    H178395   6.112   2.211   3.572 -0.6941 -0.7746 -0.8040
18968TIP3    H278396   6.254   2.163   3.596 -0.4588  0.7057  1.0618
18969TIP3   OH278397   1.665   5.072  12.878 -0.4012  0.3208  0.4679
18969TIP3    H178398   1.703   5.160  12.886 -0.6006  0.2372  3.2744
18969TIP3    H278399   1.573   5.088  12.857 -0.1106  0.6994 -0.5987
18970TIP3   OH278400   0.264   4.257   3.669  0.3180 -0.0252 -0.9849
18970TIP3    H178401   0.318   4.298   3.736 -2.2004  1.2135  0.4341
18970TIP3    H278402   0.296   4.294   3.586  1.6542  0.5905 -0.2265
18971TIP3   OH278403   5.223   1.796  11.471  0.4546 -0.3323 -0.3612
18971TIP3    H178404   5.296   1.791  11.533  1.0597  0.6914 -0.9528
18971TIP3    H278405   5.254   1.856  11.403 -0.9755  0.1658 -0.6000
18972TIP3   OH278406   3.550   1.869   3.895 -0.1536  0.2408 -0.6521
18972TIP3    H178407   3.519   1.798   3.839  1.4782  0.6108 -2.1002
18972TIP3    H278408   3.625   1.905   3.849 -1.0778  3.1128 -0.0930
18973TIP3   OH278409   4.580   1.384  11.263  0.0357  0.2857 -0.0678
18973TIP3    H178410   4.548   1.305  11.305  1.5645  0.6282  1.8880
18973TIP3    H278411   4.602   1.443  11.335  3.1489  0.7760 -1.2423
18974TIP3   OH278412   5.874   2.492   5.617  0.0671 -0.6993  0.0647
18974TIP3    H178413   5.895   2.583   5.640  1.4861 -0.5818 -1.4897
18974TIP3    H278414   5.782   2.481   5.643 -0.0936  1.1343  0.3987
18975TIP3   OH278415   6.573   2.489  17.037 -0.3210  0.2792 -0.6321
18975TIP3    H178416   6.599   2.523  16.951 -1.9476 -1.5818 -1.9670
18975TIP3    H278417   6.539   2.565  17.084  0.0001  1.2323 -1.8929
18976TIP3   OH278418   0.656   2.132   0.444  0.4395  0.2203  0.4221
18976TIP3    H178419   0.561   2.122   0.445  0.4017  0.5529  0.1397
18976TIP3    H278420   0.689   2.042   0.445  0.0998  0.0195 -1.6444
18977TIP3   OH278421   0.120   5.662   4.771  0.3469  0.4179  0.6809
18977TIP3    H178422   0.189   5.716   4.733 -1.5032  2.4468 -0.0158
18977TIP3    H278423   0.096   5.707   4.852 -0.2127 -0.1998  0.8618
18978TIP3   OH278424   3.797   4.249   2.026 -0.5371 -0.5883  0.3169
18978TIP3    H178425   3.892   4.255   2.036 -0.4648  1.8259 -1.0257
18978TIP3    H278426   3.762   4.311   2.090 -1.0402  0.3888 -0.8590
18979TIP3   OH278427   4.854   5.421  11.742  0.1022 -0.1536 -0.4204
18979TIP3    H178428   4.875   5.514  11.744 -1.3698  0.1962 -0.0028
18979TIP3    H278429   4.759   5.418  11.728  0.0011 -1.5631  0.3569
18980TIP3   OH278430   4.293   0.478   4.989 -0.2123  0.8009 -0.3536
18980TIP3    H178431   4.291   0.572   5.007 -1.9976  0.4509  1.6728
18980TIP3    H278432   4.293   0.437   5.076  3.6452 -1.1418 -1.0753
18981TIP3   OH278433   0.751   4.061  14.499  0.3508  0.0427 -0.2726
18981TIP3    H178434   0.806   4.070  14.421 -1.1343  2.2420 -1.1586
18981TIP3    H278435   0.700   4.141  14.502 -1.4357 -1.0661  1.6049
18982TIP3   OH278436   5.212   3.699  14.603 -0.6399 -0.2866 -0.0289
18982TIP3    H178437   5.226   3.726  14.512 -1.0066 -1.0916 -0.3339
18982TIP3    H278438   5.154   3.624  14.596 -1.5335  0.2931  0.9421
18983TIP3   OH278439   3.771   1.848   3.720 -0.4054 -1.0079 -0.5072
18983TIP3    H178440   3.728   1.896   3.649  0.7371  2.8849  1.1725
18983TIP3    H278441   3.862   1.876   3.717 -0.1621 -1.2745  2.0304
18984TIP3   OH278442   0.016   1.977   0.645  0.0330 -0.6772  0.3022
18984TIP3    H178443   0.101   1.962   0.688  0.6559  0.8955 -0.3142
18984TIP3    H278444  -0.047   1.975   0.717  0.8166 -0.0616  1.0321
18985TIP3   OH278445   5.663   5.142   3.313  0.2208 -0.5558 -0.1954
18985TIP3    H178446   5.609   5.196   3.256 -0.1431  0.2312  0.8524
18985TIP3    H278447   5.645   5.175   3.401  1.0341 -1.4930  0.3472
18986TIP3   OH278448   0.993   0.673   3.686 -0.0465  0.0059  0.3091
18986TIP3    H178449   0.916   0.619   3.671 -0.1797  0.7077 -1.9138
18986TIP3    H278450   0.964   0.742   3.744 -0.3694 -1.2067  1.6333
18987TIP3   OH278451   5.651   6.757   5.708  0.0419  0.3290  0.6820
18987TIP3    H178452   5.642   6.733   5.800  1.2359  1.0944  1.0211
18987TIP3    H278453   5.570   6.802   5.686 -0.3998 -0.1786  1.2535
18988TIP3   OH278454   1.047   6.150  13.481 -0.0895 -0.2463 -0.3820
18988TIP3    H178455   1.114   6.125  13.545 -1.3604 -0.5302  0.8949
18988TIP3    H278456   0.983   6.079  13.485 -0.9919  0.5256 -0.8018
18989TIP3   OH278457   5.337   1.446  15.313 -0.0498  0.2168  0.0895
18989TIP3    H178458   5.309   1.472  15.225 -1.6228 -0.4616  0.3524
18989TIP3    H278459   5.433   1.443  15.308 -0.1184  0.0054 -1.6419
18990TIP3   OH278460   1.688   2.567  12.005  0.1116  0.2217 -0.1961
18990TIP3    H178461   1.708   2.652  12.042  0.4612 -0.6333  1.7022
18990TIP3    H278462   1.609   2.538  12.052 -0.6688 -0.0377 -1.6105
18991TIP3   OH278463   3.769   5.253   5.964 -0.1053 -0.5435 -0.4482
18991TIP3    H178464   3.859   5.241   5.932 -0.6662 -1.7405 -1.6894
18991TIP3    H278465   3.738   5.164   5.981 -2.1266 -0.4947 -3.2124
18992TIP3   OH278466   0.240   3.410   5.188 -0.1763  0.1507 -0.4741
18992TIP3    H178467   0.151   3.436   5.165 -1.4907 -2.0066  1.7207
18992TIP3    H278468   0.246   3.425   5.282  1.0401 -1.5443 -0.2236
18993TIP3   OH278469   2.266   2.449  15.580  0.4658  0.1775 -0.8165
18993TIP3    H178470   2.186   2.499  15.597  1.2361  0.9039  0.8254
18993TIP3    H278471   2.324   2.510  15.534  0.2329 -0.2519 -1.7173
18994TIP3   OH278472   6.653   6.574  12.806 -0.3094 -0.2055 -0.8172
18994TIP3    H178473   6.738   6.617  12.797 -0.7150  0.5356 -1.2725
18994TIP3    H278474   6.628   6.553  12.716 -1.1814  0.7680 -0.8271
18995TIP3   OH278475   5.699   2.863   2.236 -0.0996  0.2757 -0.5143
18995TIP3    H178476   5.662   2.929   2.178 -2.2169 -0.7321 -0.4427
18995TIP3    H278477   5.646   2.784   2.218  0.1165 -0.4513  1.7469
18996TIP3   OH278478   4.564   0.337  13.598  1.0045  0.0542 -0.1585
18996TIP3    H178479   4.648   0.373  13.568  0.2048  1.4915 -0.7994
18996TIP3    H278480   4.564   0.350  13.692  0.4498  2.5275 -0.4363
18997TIP3   OH278481   5.146   5.731  16.797 -0.2698 -0.8612 -0.5769
18997TIP3    H178482   5.231   5.712  16.758 -0.1209  0.3750 -0.9115
18997TIP3    H278483   5.114   5.647  16.828  1.0419 -1.3611 -0.5144
18998TIP3   OH278484   3.196   0.855  13.131 -0.0124 -0.3340 -0.1329
18998TIP3    H178485   3.164   0.821  13.047 -0.0604 -1.4702  0.3340
18998TIP3    H278486   3.290   0.841  13.128 -0.0837 -0.8937  0.2325
18999TIP3   OH278487   6.148   5.678   0.669 -0.1903  0.0269 -0.3801
18999TIP3    H178488   6.149   5.753   0.609  0.4633  1.1431  0.9886
18999TIP3    H278489   6.055   5.661   0.684 -0.3720  1.8457  0.8196
19000TIP3   OH278490   3.588   1.163   5.494  0.4238  0.0169 -0.2794
19000TIP3    H178491   3.551   1.125   5.574  0.5280 -1.1293 -0.7618
19000TIP3    H278492   3.654   1.100   5.465  2.0111  1.5024 -0.0512
19001TIP3   OH278493   5.214   4.340  10.689  0.0378  0.3250  0.0736
19001TIP3    H178494   5.303   4.310  10.711 -0.1495  1.0874  2.0956
19001TIP3    H278495   5.181   4.274  10.629  1.7803 -0.2602 -0.3195
19002TIP3   OH278496   6.049   2.587  11.614  0.3226  0.2373 -0.2205
19002TIP3    H178497   6.105   2.664  11.607  0.8441 -0.1204 -0.0150
19002TIP3    H278498   5.962   2.623  11.630  0.6795  0.7692  0.6236
19003TIP3   OH278499   0.275   4.422   1.284 -0.0260 -0.1738  0.5683
19003TIP3    H178500   0.272   4.435   1.379  0.6663 -0.3178  0.6119
19003TIP3    H278501   0.294   4.509   1.248 -2.8262  0.4605  0.3708
19004TIP3   OH278502   5.515   6.640  14.020 -0.0490  0.3202 -0.4013
19004TIP3    H178503   5.593   6.696  14.021  0.3528 -0.1705  1.9134
19004TIP3    H278504   5.527   6.584  13.943  2.5708 -0.5921  0.5624
19005TIP3   OH278505   0.721   2.391  14.852 -0.1895 -1.1339  0.1263
19005TIP3    H178506   0.722   2.434  14.938 -2.2950 -0.7000 -0.0074
19005TIP3    H278507   0.789   2.324  14.858  1.1414  0.2420  1.3863
19006TIP3   OH278508   6.242   3.203  14.370  0.2338  0.2433  0.0159
19006TIP3    H178509   6.153   3.229  14.394  0.1146 -0.5273  0.4292
19006TIP3    H278510   6.250   3.113  14.400  1.5913  0.7132  1.1805
19007TIP3   OH278511   3.719   4.478   2.732  0.1375  0.5649  0.2882
19007TIP3    H178512   3.729   4.513   2.644  2.0912  0.3249  0.3797
19007TIP3    H278513   3.719   4.383   2.720 -1.9578  0.5108  0.3553
19008TIP3   OH278514   1.596   5.953  14.917 -0.0766  0.3046  0.0122
19008TIP3    H178515   1.581   5.924  14.827  0.1459  1.1078 -0.2882
19008TIP3    H278516   1.689   5.936  14.933  0.3687  2.0002 -0.6073
19009TIP3   OH278517   6.257   0.980  17.155 -0.3903 -0.2829  0.3037
19009TIP3    H178518   6.345   0.944  17.166 -0.6117 -0.3487  2.2816
19009TIP3    H278519   6.272   1.073  17.139  0.0495 -0.2987  0.5855
19010TIP3   OH278520   2.321   2.946  16.392 -0.0740 -0.4730  0.0133
19010TIP3    H178521   2.365   2.873  16.435  3.3593  1.0053 -0.6680
19010TIP3    H278522   2.328   2.927  16.298 -1.7461 -0.5894 -0.1169
19011TIP3   OH278523   6.275   1.557   2.531 -0.0492 -0.1663 -0.1233
19011TIP3    H178524   6.269   1.643   2.572 -0.9721  0.0389 -0.6705
19011TIP3    H278525   6.257   1.496   2.603 -1.7959  0.1960 -0.2062
19012TIP3   OH278526   5.718   3.441  13.357  0.3963  0.0746  0.4370
19012TIP3    H178527   5.628   3.457  13.386  0.5555  0.0726  0.9431
19012TIP3    H278528   5.725   3.346  13.353  0.1821  0.0820 -0.2361
19013TIP3   OH278529   0.079   4.070  11.312  0.0641 -0.3170  0.0390
19013TIP3    H178530   0.014   4.139  11.300  0.5208 -0.0180 -0.7414
19013TIP3    H278531   0.140   4.105  11.377  1.4840  0.9074 -1.8636
19014TIP3   OH278532   0.997   2.491  11.726  0.1772 -0.5319  0.5981
19014TIP3    H178533   0.941   2.529  11.794 -0.3571 -0.4721  0.1312
19014TIP3    H278534   0.998   2.557  11.656  0.4541 -0.7367  0.4075
19015TIP3   OH278535   0.263   5.077   0.477 -0.7663  0.0398 -0.2223
19015TIP3    H178536   0.334   5.013   0.470 -0.1442  0.6985 -0.0158
19015TIP3    H278537   0.306   5.162   0.469 -1.6102  0.4383 -0.6804
19016TIP3   OH278538   6.454   1.880  16.594  0.2053  0.2012 -0.2104
19016TIP3    H178539   6.528   1.829  16.626  0.7941 -0.7259 -2.8346
19016TIP3    H278540   6.391   1.879  16.666  1.8717 -0.7471  1.3052
19017TIP3   OH278541   3.291   2.772   1.800 -0.0403 -0.1133  0.4241
19017TIP3    H178542   3.228   2.719   1.750 -0.0305 -0.3796  0.6935
19017TIP3    H278543   3.357   2.796   1.735  0.1153 -0.6907  0.3641
19018TIP3   OH278544   2.226   5.783  12.923 -0.3885  0.0513  0.5158
19018TIP3    H178545   2.310   5.737  12.922  0.1426  0.9876 -0.2904
19018TIP3    H278546   2.197   5.782  12.832 -1.0472  0.0960  0.7247
19019TIP3   OH278547   3.847   0.658   3.719  0.6987 -0.3570 -0.0230
19019TIP3    H178548   3.773   0.660   3.658 -0.0057 -1.2557  0.7680
19019TIP3    H278549   3.815   0.706   3.796  0.9548 -0.7149  0.3057
19020TIP3   OH278550   0.514   2.786   1.489 -0.0556  0.6349 -0.0275
19020TIP3    H178551   0.551   2.712   1.537 -0.7516 -0.2522 -0.8309
19020TIP3    H278552   0.434   2.808   1.537  0.1845  0.9251  0.2486
19021TIP3   OH278553   4.339   6.776  13.351 -0.3682  0.0770 -0.2355
19021TIP3    H178554   4.431   6.753  13.369 -0.1912  1.3060  0.4875
19021TIP3    H278555   4.293   6.692  13.355  0.2819 -0.2274  2.1936
19022TIP3   OH278556   6.382   4.232   3.718 -0.9739  0.1877 -0.0477
19022TIP3    H178557   6.374   4.260   3.809 -0.8286  0.2384 -0.0504
19022TIP3    H278558   6.312   4.168   3.706 -2.1207  1.4508 -0.3925
19023TIP3   OH278559   6.668   6.162   6.119 -0.0738  0.3211 -0.1299
19023TIP3    H178560   6.742   6.103   6.103 -0.7309 -0.0908 -1.8556
19023TIP3    H278561   6.592   6.104   6.125 -0.5837  0.8966 -0.8268
19024TIP3   OH278562   0.720   2.465   1.371 -0.0869  0.3545  0.4757
19024TIP3    H178563   0.709   2.370   1.374  0.9061  0.2372  1.0101
19024TIP3    H278564   0.721   2.491   1.463  2.2079  0.5255  0.4632
19025TIP3   OH278565   2.233   0.291   1.813 -0.6456 -0.5505 -0.6613
19025TIP3    H178566   2.230   0.269   1.907  2.1067 -0.2486 -0.4308
19025TIP3    H278567   2.169   0.361   1.803  0.5440  0.9475  1.4907
19026TIP3   OH278568   6.217   1.407   2.299 -0.0432 -0.5100 -0.1285
19026TIP3    H178569   6.281   1.338   2.314 -0.1739 -0.5729  0.1483
19026TIP3    H278570   6.237   1.473   2.365 -0.2989 -0.5549 -0.0052
19027TIP3   OH278571   1.398   1.143   0.145 -0.1913  0.1336  0.3060
19027TIP3    H178572   1.470   1.088   0.175 -0.5246 -0.5222 -0.0866
19027TIP3    H278573   1.320   1.089   0.156 -0.6497  0.8801  0.8513
19028TIP3   OH278574   6.578   5.998   5.845 -0.3238 -0.0145 -0.0600
19028TIP3    H178575   6.536   6.081   5.823  0.0232  0.1492 -0.1166
19028TIP3    H278576   6.566   5.990   5.940  0.8870  0.8120  0.1886
19029TIP3   OH278577   3.315   6.285   1.469 -0.2430 -0.2247  0.0787
19029TIP3    H178578   3.273   6.282   1.383  1.9726 -2.0874 -1.0634
19029TIP3    H278579   3.408   6.298   1.449  0.3593 -0.9142  2.1913
19030TIP3   OH278580   5.741   6.418   1.337  0.2817  0.4040  0.0305
19030TIP3    H178581   5.816   6.463   1.298  1.4391 -1.6561 -0.2650
19030TIP3    H278582   5.780   6.351   1.394 -1.3653  1.1432  2.1697
19031TIP3   OH278583   4.830   1.429   4.204 -0.6437  0.0630 -0.0847
19031TIP3    H178584   4.898   1.378   4.161 -0.8809 -0.1004 -0.2647
19031TIP3    H278585   4.749   1.382   4.186 -0.8769  0.5481 -0.3234
19032TIP3   OH278586   6.037   4.681  11.177 -0.1899  0.6907  0.3309
19032TIP3    H178587   6.039   4.593  11.214 -1.7139 -0.4598 -2.0565
19032TIP3    H278588   6.128   4.700  11.154  0.3781  0.4007  2.1521
19033TIP3   OH278589   3.259   6.811  12.293 -0.6689  0.1741 -0.7553
19033TIP3    H178590   3.215   6.781  12.373 -1.0978 -0.4109 -1.1978
19033TIP3    H278591   3.218   6.760  12.223  0.0754  0.2941 -1.2889
19034TIP3   OH278592   6.728   4.755   4.159 -0.4042  0.1465  0.1269
19034TIP3    H178593   6.740   4.684   4.222  2.9601  0.4680  0.0221
19034TIP3    H278594   6.684   4.824   4.208 -3.0377 -1.6290  0.4453
19035TIP3   OH278595   5.119   6.669   0.183  0.3919 -0.0751 -0.6765
19035TIP3    H178596   5.097   6.661   0.276 -0.6455  1.3600 -0.7731
19035TIP3    H278597   5.042   6.632   0.138  0.9967 -0.9965 -0.9869
19036TIP3   OH278598   6.412   0.642   6.342  0.1088 -0.0873  0.5762
19036TIP3    H178599   6.385   0.719   6.293  2.0087 -0.0585 -0.5359
19036TIP3    H278600   6.330   0.602   6.372 -1.7839 -2.0737 -5.5624
19037TIP3   OH278601   1.834   4.148   0.979 -0.0590  0.6284 -0.1615
19037TIP3    H178602   1.870   4.236   0.993  1.1896  0.1584 -0.2962
19037TIP3    H278603   1.741   4.157   1.000  0.1104  1.9009  0.1565
19038TIP3   OH278604   2.777   0.046  13.968  0.2771  0.3882 -0.3631
19038TIP3    H178605   2.858   0.055  13.917  0.5698 -2.4094 -0.5666
19038TIP3    H278606   2.711   0.090  13.915  1.1489  0.1721 -1.6842
19039TIP3   OH278607   2.882   4.331   0.576 -0.7114 -0.2533  0.0019
19039TIP3    H178608   2.876   4.403   0.513  0.2416 -0.7710 -0.6983
19039TIP3    H278609   2.804   4.278   0.558 -0.9064  0.0769 -0.1361
19040TIP3   OH278610   2.542   0.412  16.291  0.2674  0.5836  0.0385
19040TIP3    H178611   2.582   0.426  16.205  0.2344  0.5901  0.0250
19040TIP3    H278612   2.573   0.326  16.318 -0.0920  0.3852 -0.1795
19041TIP3   OH278613   3.930   6.211   1.265 -0.5215 -0.1154  0.1810
19041TIP3    H178614   3.868   6.142   1.290 -1.0820 -0.3132 -1.6021
19041TIP3    H278615   3.993   6.214   1.337 -2.4495 -0.0530  1.9725
19042TIP3   OH278616   5.483   3.313  15.437  0.2159  0.4579  0.0187
19042TIP3    H178617   5.415   3.379  15.429  1.5765  1.9757  0.5144
19042TIP3    H278618   5.448   3.236  15.391 -1.2074  1.6616 -0.9768
19043TIP3   OH278619   3.696   4.709  11.410  0.3239  0.0441 -0.3670
19043TIP3    H178620   3.614   4.736  11.451  0.6779  0.6444 -0.0400
19043TIP3    H278621   3.676   4.626  11.368 -0.9489  1.0835 -1.8784
19044TIP3   OH278622   6.561   5.896   3.311  0.1438 -0.0027  0.1382
19044TIP3    H178623   6.608   5.979   3.303 -0.2801  0.3126  0.8436
19044TIP3    H278624   6.595   5.842   3.239  1.2030  0.4026  0.3116
19045TIP3   OH278625   0.475   1.169   4.342  0.1532  0.0804 -0.6272
19045TIP3    H178626   0.409   1.101   4.330  1.7302 -1.4271 -1.2429
19045TIP3    H278627   0.512   1.152   4.428 -0.5496  1.2115 -0.0832
19046TIP3   OH278628   1.933   0.830  11.694  0.2758 -0.2448 -0.5641
19046TIP3    H178629   1.857   0.889  11.701  0.3127 -0.2092 -0.4521
19046TIP3    H278630   1.923   0.788  11.609 -0.1984 -0.6915 -0.2983
19047TIP3   OH278631   4.020   6.078  16.585  0.7347  0.1007 -0.2420
19047TIP3    H178632   4.064   6.007  16.632  2.3793  0.1744 -1.5568
19047TIP3    H278633   3.976   6.129  16.654  2.1686 -0.3845  1.0978
19048TIP3   OH278634   2.932   4.670  15.633 -0.0796 -0.0398  0.4834
19048TIP3    H178635   2.874   4.714  15.571  0.5460 -0.3583 -0.3507
19048TIP3    H278636   3.007   4.728  15.642 -0.4178  0.2771  1.4088
19049TIP3   OH278637   5.767   3.547  16.159  0.0338 -0.0314  0.3494
19049TIP3    H178638   5.854   3.519  16.129  0.4627 -0.3038  1.7877
19049TIP3    H278639   5.710   3.474  16.136  0.6734 -1.0010  1.6855
19050TIP3   OH278640   3.104   0.965  10.186  0.2962 -0.1909 -0.7456
19050TIP3    H178641   3.179   1.025  10.187 -0.0125  0.2043 -0.9923
19050TIP3    H278642   3.032   1.017  10.222 -0.0292 -0.3397 -1.1805
19051TIP3   OH278643   3.431   2.259  13.917  0.0271  0.1664  0.5974
19051TIP3    H178644   3.524   2.247  13.902 -0.1120 -0.0534 -0.1682
19051TIP3    H278645   3.393   2.172  13.905 -0.2743  0.2531  0.8977
19052TIP3   OH278646   2.895   1.074  16.010  0.2342  0.5850  0.1577
19052TIP3    H178647   2.838   1.148  16.032  0.0324  1.0852 -1.8844
19052TIP3    H278648   2.841   0.997  16.023  0.5293  0.6913  2.5968
19053TIP3   OH278649   0.599   1.799  15.526 -0.2428  0.5035 -0.4824
19053TIP3    H178650   0.626   1.716  15.565 -1.6251  0.8262  1.3085
19053TIP3    H278651   0.599   1.783  15.432 -1.3529 -1.8200 -0.1540
19054TIP3   OH278652   2.488   2.724   5.324 -0.0407 -0.1025  0.4569
19054TIP3    H178653   2.420   2.736   5.258 -0.7436 -0.0489  1.1743
19054TIP3    H278654   2.522   2.812   5.340  0.3634 -0.1614 -0.0741
19055TIP3   OH278655   6.629   0.543   6.227 -0.1402  0.0793  0.4728
19055TIP3    H178656   6.634   0.490   6.307 -1.9338 -0.8530  0.0152
19055TIP3    H278657   6.543   0.585   6.231 -1.1722 -1.5809 -1.8806
19056TIP3   OH278658   6.690   2.797   3.093  0.8209  0.1247  0.2969
19056TIP3    H178659   6.635   2.872   3.069 -0.5811 -0.2224  2.1864
19056TIP3    H278660   6.705   2.751   3.010  1.4191  2.2497 -0.8520
19057TIP3   OH278661   1.127   1.166  15.863  0.9666  0.5253 -0.2787
19057TIP3    H178662   1.174   1.225  15.804  2.1724 -0.4605 -0.3439
19057TIP3    H278663   1.148   1.078  15.830  0.2471  0.0214  0.5807
19058TIP3   OH278664   4.296   5.231   2.974 -0.4981 -0.0417  0.3611
19058TIP3    H178665   4.238   5.302   2.945 -0.2573 -0.1086 -0.3118
19058TIP3    H278666   4.329   5.260   3.059  0.3959  1.1546 -0.3474
19059TIP3   OH278667   4.593   4.424  16.133 -0.0728  0.3038  0.9273
19059TIP3    H178668   4.523   4.456  16.190  1.0120  0.6046  2.1481
19059TIP3    H278669   4.623   4.502  16.086 -1.0073  0.0453 -0.1317
19060TIP3   OH278670   2.148   6.252  15.759  0.0044  0.4592 -0.8112
19060TIP3    H178671   2.061   6.250  15.798 -0.6451  0.3863 -2.1947
19060TIP3    H278672   2.147   6.328  15.701  1.9723  2.4250  1.4908
19061TIP3   OH278673   4.317   0.931  11.996  0.4595 -0.1263  0.0683
19061TIP3    H178674   4.338   0.844  12.030 -0.4449 -0.8490 -1.1715
19061TIP3    H278675   4.366   0.937  11.914  0.8330  0.7121  0.3389
19062TIP3   OH278676   1.090   4.869  11.536  0.0995 -0.1307 -0.1802
19062TIP3    H178677   1.058   4.852  11.625  0.5163  3.1257  0.7141
19062TIP3    H278678   1.184   4.880  11.547 -0.1377  2.9466 -0.4324
19063TIP3   OH278679   5.473   1.067   1.800  0.3018  0.5190 -0.6248
19063TIP3    H178680   5.381   1.062   1.828 -0.1855  2.4049 -1.6847
19063TIP3    H278681   5.471   1.124   1.723  2.5314  1.8809  0.2175
19064TIP3   OH278682   4.640   3.748   1.604  0.4796 -0.4693 -0.1602
19064TIP3    H178683   4.670   3.678   1.663  0.6036 -0.1309  0.1860
19064TIP3    H278684   4.589   3.703   1.537 -1.5722 -0.6467  1.4387
19065TIP3   OH278685   0.397   1.676  14.542  0.1548  0.0096  0.2155
19065TIP3    H178686   0.319   1.662  14.596  0.2641  1.6170  0.8451
19065TIP3    H278687   0.470   1.666  14.603  0.4220 -0.7977 -0.2238
19066TIP3   OH278688   5.485   0.328  13.557 -0.7387  0.0400  0.1850
19066TIP3    H178689   5.564   0.372  13.525  0.9182 -1.1116  2.4524
19066TIP3    H278690   5.441   0.300  13.477  1.2496  0.5218 -1.1809
19067TIP3   OH278691   2.027   1.334  14.773 -0.3340 -0.1961  0.1929
19067TIP3    H178692   2.032   1.417  14.726  1.5765 -0.9462 -1.0734
19067TIP3    H278693   2.111   1.291  14.754 -0.4106 -1.5215  2.5180
19068TIP3   OH278694   6.436   0.925   5.813  0.0280 -0.0497 -0.3063
19068TIP3    H178695   6.435   0.866   5.888 -2.4478  1.8797  1.3416
19068TIP3    H278696   6.511   0.982   5.828 -0.8772  0.8164  1.2367
19069TIP3   OH278697   0.813   6.005  13.571  0.0263 -0.0224 -0.2219
19069TIP3    H178698   0.724   5.979  13.595 -0.4415  2.9323  1.7810
19069TIP3    H278699   0.850   6.042  13.651  1.5791  2.5025 -1.9534
19070TIP3   OH278700   5.027   5.692   5.117 -0.1600  0.0379  0.2972
19070TIP3    H178701   4.949   5.690   5.062  0.8850 -1.1318 -1.2710
19070TIP3    H278702   4.998   5.661   5.202 -1.1270 -2.2147 -0.7538
19071TIP3   OH278703   1.631   5.228   5.849  0.2713 -0.0027  0.0480
19071TIP3    H178704   1.621   5.229   5.944  0.2738  0.8932  0.0531
19071TIP3    H278705   1.543   5.247   5.815  0.7966  2.7318 -0.0276
19072TIP3   OH278706   1.772   2.876   1.546  0.1624  0.3290  0.0862
19072TIP3    H178707   1.861   2.901   1.522  0.1278  1.2845  0.8716
19072TIP3    H278708   1.759   2.790   1.506  0.4227  1.3876 -2.4818
19073TIP3   OH278709   4.125   3.479   6.084 -0.2536 -0.4206  0.2710
19073TIP3    H178710   4.077   3.438   6.013  0.2495 -2.2591  0.9367
19073TIP3    H278711   4.064   3.479   6.158 -0.3235  0.2461  0.2180
19074TIP3   OH278712   5.706   2.138  11.323  0.1307 -0.1378  0.3504
19074TIP3    H178713   5.685   2.090  11.243  1.5384 -0.7433  0.3246
19074TIP3    H278714   5.672   2.226  11.308 -0.6650 -0.5635 -0.4235
19075TIP3   OH278715   1.140   1.304   3.562 -0.0636 -0.3477  0.5767
19075TIP3    H178716   1.112   1.291   3.472  3.3208  0.8821 -0.8209
19075TIP3    H278717   1.095   1.384   3.590 -2.3255 -1.5710  0.6189
19076TIP3   OH278718   4.314   1.446  11.913 -0.1738 -0.1362 -0.5204
19076TIP3    H178719   4.284   1.492  11.835 -0.6067 -1.5551 -1.2208
19076TIP3    H278720   4.238   1.397  11.943  0.1754 -0.1376  0.4085
19077TIP3   OH278721   0.653   3.276  14.872 -0.6181 -0.4088  0.4631
19077TIP3    H178722   0.682   3.279  14.781 -1.2560  0.7472  0.2755
19077TIP3    H278723   0.591   3.349  14.879 -1.1942 -0.9924  1.6107
19078TIP3   OH278724   4.549   6.039  16.092 -0.0950  0.3763 -0.0426
19078TIP3    H178725   4.483   6.061  16.157 -0.5823 -1.7204  0.2475
19078TIP3    H278726   4.555   6.117  16.036 -3.8359  0.2050 -0.9322
19079TIP3   OH278727   3.759   4.090  10.746  0.7553 -0.1108  0.4494
19079TIP3    H178728   3.849   4.099  10.715  0.5184  0.8329 -0.0021
19079TIP3    H278729   3.740   4.174  10.788 -0.4727  0.3638 -0.9728
19080TIP3   OH278730   6.421   1.333  12.204  0.1987  0.4586  0.0908
19080TIP3    H178731   6.449   1.263  12.263  0.2868  2.4068  2.5209
19080TIP3    H278732   6.502   1.367  12.167  0.6941  2.2332  2.5557
19081TIP3   OH278733   4.971   3.661   2.212  0.0733 -0.6494 -0.0189
19081TIP3    H178734   5.044   3.605   2.186  0.7227 -0.9083  2.1971
19081TIP3    H278735   4.982   3.740   2.159  0.3087 -1.7748 -1.7250
19082TIP3   OH278736   1.894   0.244  16.585  0.6015  0.0151  0.3908
19082TIP3    H178737   1.812   0.262  16.539  0.9554 -0.1017 -0.3110
19082TIP3    H278738   1.954   0.313  16.556  1.2114 -0.7903 -0.3417
19083TIP3   OH278739   6.716   5.353   5.486 -0.6637 -0.7088 -0.5583
19083TIP3    H178740   6.666   5.432   5.507  0.1492 -0.4535  0.4682
19083TIP3    H278741   6.670   5.283   5.532 -1.4940 -0.8869 -1.6199
19084TIP3   OH278742   4.816   3.976   1.372 -0.1181 -0.4385 -0.1056
19084TIP3    H178743   4.764   4.057   1.374 -0.0254 -0.3836  0.8323
19084TIP3    H278744   4.765   3.914   1.426  0.6815 -0.4402  0.6730
19085TIP3   OH278745   2.465   1.683  17.051 -0.3471 -0.0920 -0.5561
19085TIP3    H178746   2.394   1.621  17.036 -1.4460  1.0231 -0.0406
19085TIP3    H278747   2.427   1.753  17.103  1.3517  0.1147  0.5043
19086TIP3   OH278748   0.130   3.990  11.069 -0.2167 -0.3451 -0.4649
19086TIP3    H178749   0.125   4.016  11.161  1.0458  1.7306 -0.9062
19086TIP3    H278750   0.194   3.919  11.068  2.0014  1.5124  0.0094
19087TIP3   OH278751   2.954   0.265  11.206  0.0291 -0.1146  0.0408
19087TIP3    H178752   2.972   0.197  11.271  2.5228 -1.7076 -2.0677
19087TIP3    H278753   2.905   0.219  11.137 -0.1300  0.7765 -0.4482
19088TIP3   OH278754   4.688   3.410   5.787 -0.2011 -0.0104 -0.0443
19088TIP3    H178755   4.723   3.343   5.728  1.6533  0.6889  0.2000
19088TIP3    H278756   4.691   3.491   5.737  1.0976  0.5379  0.8683
19089TIP3   OH278757   3.067   0.258  15.882  0.3239 -0.0132  0.1950
19089TIP3    H178758   3.074   0.313  15.960  0.8308 -2.3914  1.9388
19089TIP3    H278759   3.015   0.183  15.911  0.3463 -0.8618 -1.8395
19090TIP3   OH278760   0.036   1.582   2.242 -0.1110 -0.4717 -0.1150
19090TIP3    H178761   0.060   1.652   2.182  1.1913  0.6525  1.6389
19090TIP3    H278762   0.025   1.625   2.327 -2.6965 -1.8744  0.3725
19091TIP3   OH278763   4.441   5.321   1.652 -0.0568 -0.2751 -0.5498
19091TIP3    H178764   4.431   5.366   1.735 -0.6068 -1.0207 -0.1957
19091TIP3    H278765   4.432   5.228   1.674 -0.0828 -0.4879 -1.4180
19092TIP3   OH278766   2.853   5.153  15.747 -0.2292  0.3463  0.1777
19092TIP3    H178767   2.850   5.067  15.788 -0.8583  0.2071 -0.1391
19092TIP3    H278768   2.818   5.138  15.658  1.1564  0.6268 -0.4380
19093TIP3   OH278769   2.977   2.386  12.057 -0.3077  0.4046 -0.0070
19093TIP3    H178770   3.041   2.322  12.088  0.8480  1.7906  0.5776
19093TIP3    H278771   2.954   2.355  11.969  0.2659 -0.7619  0.2256
19094TIP3   OH278772   4.072   2.817   1.372 -0.5849 -0.3267  0.1828
19094TIP3    H178773   4.048   2.897   1.324  2.4193  0.6814  0.1822
19094TIP3    H278774   4.143   2.779   1.322  1.6354 -0.0898  2.9023
19095TIP3   OH278775   5.144   5.445   5.077 -1.1674  0.0726  0.2296
19095TIP3    H178776   5.237   5.466   5.065 -0.9808  0.7835  2.4634
19095TIP3    H278777   5.101   5.530   5.087 -1.7523 -0.2995  1.0210
19096TIP3   OH278778   3.246   2.349   4.842 -0.0496  0.2216  0.6805
19096TIP3    H178779   3.243   2.294   4.764  0.6640  0.0680  0.7511
19096TIP3    H278780   3.303   2.422   4.817  0.8048 -0.2210  1.2967
19097TIP3   OH278781   2.386   1.449   4.993  0.5707 -0.5803  0.1028
19097TIP3    H178782   2.467   1.501   4.997 -0.6608  1.5154 -0.6142
19097TIP3    H278783   2.410   1.365   5.031  2.8575  0.2718  0.7350
19098TIP3   OH278784   4.266   0.139   5.198  0.3814 -0.2784  0.6832
19098TIP3    H178785   4.359   0.139   5.175 -0.0075 -1.0109 -1.0619
19098TIP3    H278786   4.229   0.065   5.150 -1.0568 -0.2107  1.6070
19099TIP3   OH278787   0.619   6.573  15.411 -0.1562 -0.5907 -0.3768
19099TIP3    H178788   0.572   6.615  15.339 -1.3238  0.5083  0.9669
19099TIP3    H278789   0.702   6.620  15.416 -0.3169 -0.2760 -0.6366
19100TIP3   OH278790   0.663   3.057  12.762  0.0631  0.5807 -0.8696
19100TIP3    H178791   0.576   3.075  12.799  1.4179  0.9445  2.5645
19100TIP3    H278792   0.689   3.138  12.719 -0.5214  1.1788 -0.1207
19101TIP3   OH278793   6.470   2.072   2.517  0.2145 -0.4287 -0.1877
19101TIP3    H178794   6.380   2.084   2.486 -0.7471 -0.5407  2.3230
19101TIP3    H278795   6.509   2.160   2.511  0.5865 -0.6772 -2.8617
19102TIP3   OH278796   2.768   0.234   4.818  0.0802 -0.0915 -0.0684
19102TIP3    H178797   2.829   0.258   4.888  1.2044  4.1168 -2.1524
19102TIP3    H278798   2.821   0.182   4.757  0.4578  0.2787 -0.0557
19103TIP3   OH278799   6.505   3.361   4.772  0.0950 -0.2203 -0.0992
19103TIP3    H178800   6.554   3.399   4.700  0.7895  1.3445  1.1500
19103TIP3    H278801   6.441   3.428   4.796 -0.6385 -1.0266  0.2573
19104TIP3   OH278802   1.100   0.568  16.421  0.1158 -0.5636 -0.9432
19104TIP3    H178803   1.089   0.639  16.485 -2.9297 -0.9137 -0.9273
19104TIP3    H278804   1.049   0.596  16.345 -1.0804 -2.6062 -0.9817
19105TIP3   OH278805   4.689   6.024  10.835 -0.0516 -0.4803  0.3064
19105TIP3    H178806   4.636   5.958  10.880  0.1540 -0.0530  1.2057
19105TIP3    H278807   4.626   6.086  10.798 -0.2252 -0.8795 -0.0666
19106TIP3   OH278808   1.108   4.298  14.834  0.5334 -0.0922 -0.2640
19106TIP3    H178809   1.049   4.223  14.842  1.1238 -0.5979 -0.4806
19106TIP3    H278810   1.073   4.364  14.894  1.2872 -1.3956  1.7206
19107TIP3   OH278811   0.527   6.748  14.792  0.5018  1.0015  0.5244
19107TIP3    H178812   0.444   6.755  14.745  0.2324  3.1531  1.2392
19107TIP3    H278813   0.508   6.780  14.880  1.6469 -0.3732  1.3098
19108TIP3   OH278814   2.713   2.698   1.337  0.2461  0.3599  0.3501
19108TIP3    H178815   2.752   2.785   1.345  0.2695  0.1849  3.0521
19108TIP3    H278816   2.785   2.642   1.308  0.5440  1.0169 -0.2005
19109TIP3   OH278817   5.549   1.696   6.062 -0.4617 -0.4968 -0.0760
19109TIP3    H178818   5.627   1.645   6.084  0.2359  0.8945  0.7853
19109TIP3    H278819   5.484   1.630   6.037  0.8891 -1.7022 -0.5364
19110TIP3   OH278820   6.228   4.566   5.230  0.5143  0.0246  0.2422
19110TIP3    H178821   6.155   4.622   5.202 -0.4135 -2.1793 -2.3067
19110TIP3    H278822   6.306   4.621   5.221 -0.4876  1.3688 -0.5969
19111TIP3   OH278823   1.169   6.206   2.139  0.8116  0.5881 -0.3223
19111TIP3    H178824   1.189   6.299   2.151  1.2869  0.6703 -1.5879
19111TIP3    H278825   1.201   6.185   2.051 -1.3485 -0.2112 -0.9929
19112TIP3   OH278826   5.401   0.127  10.435  0.1031 -0.3533  0.1961
19112TIP3    H178827   5.309   0.120  10.410  0.3671  0.2690 -1.0288
19112TIP3    H278828   5.435   0.038  10.425 -0.2623 -0.5020  0.2467
19113TIP3   OH278829   2.830   6.198   5.165  0.9040  0.0351  0.2207
19113TIP3    H178830   2.861   6.287   5.182 -1.8607  1.3689 -1.1087
19113TIP3    H278831   2.806   6.164   5.251  0.7271  1.1075  0.6181
19114TIP3   OH278832   3.241   4.845   2.941 -0.0032  0.8858  0.8011
19114TIP3    H178833   3.213   4.931   2.972  0.7021  0.5017  2.6815
19114TIP3    H278834   3.331   4.836   2.973 -0.2332 -0.7322  1.1146
19115TIP3   OH278835   2.028   5.745   3.105  0.1400  0.6324 -1.0211
19115TIP3    H178836   1.968   5.820   3.103  1.3170  1.6427  0.1049
19115TIP3    H278837   2.114   5.781   3.087  0.8311 -0.3188  0.1426
19116TIP3   OH278838   5.251   0.534   1.368  0.2666  0.3115  0.4763
19116TIP3    H178839   5.231   0.627   1.356  1.1988  0.8219  2.4805
19116TIP3    H278840   5.231   0.516   1.459  1.1375 -1.1871  0.4123
19117TIP3   OH278841   1.194   5.627  16.909 -0.6259 -0.0733  0.0358
19117TIP3    H178842   1.186   5.660  16.820 -1.9538 -1.8174 -0.5305
19117TIP3    H278843   1.243   5.696  16.955  2.8132 -0.4405 -2.6850
19118TIP3   OH278844   0.514   4.216  15.033 -0.0202  0.0685  0.1471
19118TIP3    H178845   0.543   4.308  15.037  0.8895 -0.2410  1.9090
19118TIP3    H278846   0.424   4.218  15.065 -0.2173  0.4122 -0.4147
19119TIP3   OH278847   0.805   3.041   4.131  0.4907 -0.0819  0.0395
19119TIP3    H178848   0.862   2.996   4.068  0.0003 -0.4329 -0.1644
19119TIP3    H278849   0.857   3.045   4.212  1.3635  0.9211 -0.5502
19120TIP3   OH278850   4.250   3.931   1.069 -0.7540 -0.5058  0.3887
19120TIP3    H178851   4.297   4.012   1.049 -0.2988 -1.0346 -0.7670
19120TIP3    H278852   4.172   3.959   1.118 -0.7610  0.6459 -0.2664
19121TIP3   OH278853   5.208   4.757  12.700 -0.2675 -0.1569 -0.6909
19121TIP3    H178854   5.178   4.796  12.781  1.1715 -1.3018  0.4555
19121TIP3    H278855   5.130   4.713  12.664 -0.6524 -0.6604  0.7018
19122TIP3   OH278856   5.957   6.535  11.513 -0.5162  0.1912  0.1823
19122TIP3    H178857   5.917   6.466  11.460  0.3810 -0.6228  0.5198
19122TIP3    H278858   5.910   6.614  11.490  1.0170  0.2791 -3.2855
19123TIP3   OH278859   5.162   6.672  17.032 -0.3216 -0.4776  0.5052
19123TIP3    H178860   5.194   6.594  16.986 -0.8551 -0.9132  0.8680
19123TIP3    H278861   5.084   6.642  17.079 -0.6707  0.3344  0.4521
19124TIP3   OH278862   3.001   1.142   1.830  1.0492 -0.5769 -0.0420
19124TIP3    H178863   3.011   1.139   1.735 -1.6991 -0.3296 -0.4181
19124TIP3    H278864   2.908   1.126   1.845  1.3231 -0.1433  2.5892
19125TIP3   OH278865   0.725   3.409  13.935 -0.2095 -0.6083  0.8557
19125TIP3    H178866   0.770   3.330  13.966  0.1428 -1.7887 -2.3252
19125TIP3    H278867   0.632   3.385  13.933  0.0308 -1.5271 -1.4578
19126TIP3   OH278868   3.194   3.979  15.023 -1.3344  0.3065  0.3255
19126TIP3    H178869   3.216   3.895  14.983 -0.4102  0.5267  0.3344
19126TIP3    H278870   3.151   3.956  15.105  1.2549 -0.2320  1.6308
19127TIP3   OH278871   5.199   3.384   2.578 -0.2066 -0.3423 -0.0330
19127TIP3    H178872   5.186   3.479   2.589  0.1990 -0.4994  2.2110
19127TIP3    H278873   5.118   3.345   2.611  0.6701 -0.8369  1.6254
19128TIP3   OH278874   2.221   2.822  13.375 -0.2363  0.4232 -0.5926
19128TIP3    H178875   2.271   2.809  13.295 -0.8425  0.7455 -1.0356
19128TIP3    H278876   2.245   2.909  13.405  1.4526 -0.4130  0.6566
19129TIP3   OH278877   0.440   1.384   1.300 -0.1323 -0.0794  0.5964
19129TIP3    H178878   0.524   1.338   1.309 -1.2292 -2.3850 -0.0583
19129TIP3    H278879   0.461   1.476   1.315  2.6157 -0.5014 -0.0975
19130TIP3   OH278880   2.879   1.001  16.630  0.2311  0.0142 -0.1059
19130TIP3    H178881   2.864   1.009  16.536  1.0870 -0.6552 -0.3154
19130TIP3    H278882   2.875   1.091  16.662 -2.1248  0.0941 -0.4168
19131TIP3   OH278883   4.865   6.488  11.577  0.0377 -0.1194 -0.5323
19131TIP3    H178884   4.865   6.582  11.596  3.1417  0.5808 -3.1634
19131TIP3    H278885   4.823   6.449  11.653  3.4320  2.9476  3.3957
19132TIP3   OH278886   0.987   5.067   6.501 -0.2551 -0.2476  0.5700
19132TIP3    H178887   0.899   5.097   6.480 -0.8911 -1.5116  1.3520
19132TIP3    H278888   1.040   5.147   6.498 -1.7867  0.9065  2.0751
19133TIP3   OH278889   2.046   2.485   1.962 -0.7536 -0.6013  0.0152
19133TIP3    H178890   2.042   2.579   1.977 -1.6483 -0.2894 -1.8037
19133TIP3    H278891   1.954   2.456   1.967 -0.6021 -1.1755 -0.3860
19134TIP3   OH278892   2.280   0.438   4.607  0.1797  0.0613  0.2704
19134TIP3    H178893   2.196   0.412   4.645  0.9114 -3.4823 -0.1940
19134TIP3    H278894   2.259   0.459   4.516 -0.1645 -1.4004 -0.0119
19135TIP3   OH278895   4.445   6.536  14.539 -0.3943  0.3926 -0.4982
19135TIP3    H178896   4.466   6.505  14.451  1.7347 -1.1891  0.4843
19135TIP3    H278897   4.429   6.456  14.589  4.3408  0.6024  1.9186
19136TIP3   OH278898   5.603   5.838   5.102  0.4680 -0.0846 -0.7928
19136TIP3    H178899   5.628   5.912   5.047  0.4355 -0.2582 -1.0418
19136TIP3    H278900   5.555   5.780   5.044 -2.3822  1.1829  0.0973
19137TIP3   OH278901   6.011   1.937   2.975 -0.1998  0.0272  0.1605
19137TIP3    H178902   6.043   2.026   2.960 -0.4250  0.0535 -0.1933
19137TIP3    H278903   6.059   1.906   3.051 -0.5480  0.6643  0.6472
19138TIP3   OH278904   5.023   0.198   3.854 -0.4322  0.0287  0.4463
19138TIP3    H178905   4.968   0.210   3.776  0.0008 -0.4985  0.0560
19138TIP3    H278906   5.013   0.279   3.903 -2.0506 -0.2802  0.6932
19139TIP3   OH278907   4.190   2.756  12.264 -0.3930  0.4251  0.1837
19139TIP3    H178908   4.137   2.678  12.247  1.2113 -0.5927 -0.4184
19139TIP3    H278909   4.219   2.746  12.355  2.0445 -1.1876 -0.6693
19140TIP3   OH278910   0.379   4.722  12.058 -0.1737 -0.0091 -0.1402
19140TIP3    H178911   0.363   4.697  12.149 -0.1419 -0.6421 -0.3082
19140TIP3    H278912   0.311   4.677  12.008  0.9268 -1.1623 -0.6394
19141TIP3   OH278913   2.409   0.635   4.734 -1.0008 -0.2383  0.2887
19141TIP3    H178914   2.348   0.568   4.702 -1.6165  1.0054 -1.2381
19141TIP3    H278915   2.378   0.656   4.822 -2.2770 -0.2270 -0.1475
19142TIP3   OH278916   4.814   2.064   5.040  0.4558 -0.0439 -0.1389
19142TIP3    H178917   4.880   2.116   4.994  0.0741  0.7148  0.1530
19142TIP3    H278918   4.791   2.117   5.117 -0.0793 -0.5579  0.0635
19143TIP3   OH278919   1.128   6.726   2.227 -0.1786 -0.2041  0.1524
19143TIP3    H178920   1.105   6.699   2.317  0.7358  0.2130  0.5248
19143TIP3    H278921   1.065   6.794   2.206 -1.1333 -1.0977  0.0301
19144TIP3   OH278922   1.272   1.052   3.476  0.3594  0.2813 -0.2612
19144TIP3    H178923   1.221   1.132   3.472 -0.9511 -0.5685 -1.5934
19144TIP3    H278924   1.219   0.993   3.531  0.2351 -0.3767 -1.0790
19145TIP3   OH278925   5.489   6.379   2.620 -0.0988  0.2044  0.0611
19145TIP3    H178926   5.581   6.386   2.594 -0.5902  0.8270 -1.6501
19145TIP3    H278927   5.488   6.312   2.688  1.4772 -0.6169 -0.6728
19146TIP3   OH278928   6.332   4.495   0.096 -0.1178 -0.6706  0.0864
19146TIP3    H178929   6.332   4.428   0.028 -0.8667  0.3662 -0.9712
19146TIP3    H278930   6.418   4.487   0.137  0.2218 -1.5346 -0.7454
19147TIP3   OH278931   3.288   5.951   2.426 -0.7177  0.5201  0.4179
19147TIP3    H178932   3.266   5.867   2.466  0.0101  0.7400  1.3240
19147TIP3    H278933   3.261   6.017   2.491  1.9134  0.8178  1.3146
19148TIP3   OH278934   5.908   1.528   4.173 -0.2113  0.2244  0.6357
19148TIP3    H178935   5.926   1.605   4.227 -3.1049  1.2219  0.3550
19148TIP3    H278936   5.888   1.564   4.086  0.4096 -1.0415 -0.0569
19149TIP3   OH278937   2.811   0.554   2.116  0.2528 -0.0602  0.2952
19149TIP3    H178938   2.777   0.485   2.058  1.7150 -0.2109 -0.4204
19149TIP3    H278939   2.793   0.635   2.069 -0.6211 -0.0036  0.7063
19150TIP3   OH278940   1.667   6.279  13.493  0.2411  0.0420  0.3109
19150TIP3    H178941   1.589   6.310  13.539  0.6313 -1.1874  1.8843
19150TIP3    H278942   1.633   6.239  13.413 -0.8782 -1.2434  1.3693
19151TIP3   OH278943   0.350   3.658  13.958  0.5123  0.2613  0.2761
19151TIP3    H178944   0.373   3.642  13.867  1.0901  1.5022  0.1870
19151TIP3    H278945   0.255   3.670  13.957  0.3925 -0.6780 -0.0112
19152TIP3   OH278946   3.695   6.686  14.755 -0.6396 -0.6234  0.4967
19152TIP3    H178947   3.682   6.686  14.850  1.8613 -1.6400  0.9251
19152TIP3    H278948   3.686   6.594  14.730 -0.1009 -0.5460 -0.0207
19153TIP3   OH278949   4.084   5.748  10.497  0.6994  0.2210  0.4329
19153TIP3    H178950   4.084   5.819  10.432 -1.0007 -0.3440 -0.2495
19153TIP3    H278951   4.083   5.668  10.444 -0.9319 -0.2469  1.1030
19154TIP3   OH278952   6.291   1.219  16.692 -0.2078  0.1889 -0.0603
19154TIP3    H178953   6.300   1.243  16.785 -2.0321 -1.2651  0.5730
19154TIP3    H278954   6.381   1.207  16.661  0.4404  0.6591  1.5366
19155TIP3   OH278955   2.594   1.917   5.251  0.0959 -0.1931  0.9674
19155TIP3    H178956   2.560   1.839   5.294 -0.0423 -0.1279  0.9779
19155TIP3    H278957   2.518   1.956   5.207  0.4623 -0.9159 -0.3615
19156TIP3   OH278958   5.900   1.514  15.985 -0.2413  0.5732 -0.3134
19156TIP3    H178959   5.938   1.546  15.903 -0.1959  1.4478  0.0327
19156TIP3    H278960   5.896   1.419  15.974 -1.1047  0.7380 -1.7073
19157TIP3   OH278961   2.434   5.856  13.230 -0.4906  0.3132  0.4302
19157TIP3    H178962   2.450   5.800  13.154 -1.2032  0.1585  0.3880
19157TIP3    H278963   2.521   5.873  13.265 -0.2303 -0.5156  0.2240
19158TIP3   OH278964   2.942   5.076  13.530  0.6469 -0.6474 -0.3748
19158TIP3    H178965   2.965   5.101  13.620 -1.8963 -0.1472  0.2285
19158TIP3    H278966   2.854   5.038  13.538  0.3190 -0.5037 -2.6711
19159TIP3   OH278967   6.796   2.193  13.534 -0.1477 -0.0765 -0.0763
19159TIP3    H178968   6.761   2.121  13.587  1.2636 -0.4756  0.3512
19159TIP3    H278969   6.759   2.272  13.574 -1.4941 -0.5271 -0.3816
19160TIP3   OH278970   0.187   4.265   5.216 -0.2509  0.5776  0.0673
19160TIP3    H178971   0.108   4.301   5.174  0.3801  0.5261 -1.2311
19160TIP3    H278972   0.257   4.324   5.188  0.6846 -1.1654 -1.4590
19161TIP3   OH278973   4.537   4.744   1.509  0.1247 -0.3769 -0.3225
19161TIP3    H178974   4.612   4.774   1.562 -0.7513  0.5103  0.4500
19161TIP3    H278975   4.461   4.781   1.553 -0.7115 -0.5272 -1.6075
19162TIP3   OH278976   6.211   0.367  16.119  0.6508 -0.1112  0.1406
19162TIP3    H178977   6.169   0.427  16.180  1.0865  1.0475 -0.6543
19162TIP3    H278978   6.257   0.424  16.057 -0.9008 -1.1662 -2.1089
19163TIP3   OH278979   6.501   4.476   0.474  0.6945  0.4110 -0.0660
19163TIP3    H178980   6.442   4.402   0.464  0.2139  0.3287  2.5294
19163TIP3    H278981   6.486   4.530   0.397  0.2261 -1.5984 -1.4490
19164TIP3   OH278982   5.086   1.349  16.585 -0.5460 -0.2875 -0.6823
19164TIP3    H178983   5.105   1.311  16.671 -3.2503  1.8535  1.0119
19164TIP3    H278984   4.990   1.346  16.578 -0.5437  1.6673 -2.5942
19165TIP3   OH278985   3.408   0.337   6.140  0.3216  0.7496 -0.4712
19165TIP3    H178986   3.394   0.423   6.181 -2.3819 -0.3317  1.0881
19165TIP3    H278987   3.489   0.305   6.181 -0.2196  1.3433  1.1314
19166TIP3   OH278988   1.730   5.986  14.251 -0.0478  0.4777  0.3470
19166TIP3    H178989   1.797   6.020  14.192 -0.0146 -0.2738 -0.0509
19166TIP3    H278990   1.779   5.941  14.320 -0.1395 -1.6065 -0.8641
19167TIP3   OH278991   1.648   1.709  16.422 -0.2005  0.3842  0.2065
19167TIP3    H178992   1.565   1.683  16.460 -1.3804 -1.1006 -2.9854
19167TIP3    H278993   1.650   1.804  16.430 -1.9378  0.3935  0.8175
19168TIP3   OH278994   5.563   2.436  10.890  0.0926  0.1176  0.9984
19168TIP3    H178995   5.548   2.520  10.934 -1.4922  0.5086 -0.2056
19168TIP3    H278996   5.612   2.384  10.954 -0.0789  1.4812  2.2938
19169TIP3   OH278997   4.204   3.274   0.269  0.1261 -0.7301 -0.0703
19169TIP3    H178998   4.230   3.194   0.224  1.2558 -0.4376  0.0408
19169TIP3    H278999   4.229   3.344   0.209 -0.5127 -0.4332 -0.0003
19170TIP3   OH279000   2.310   6.089  14.463 -0.5207  0.2108 -0.2339
19170TIP3    H179001   2.269   6.060  14.544  2.4886  0.6884  1.6484
19170TIP3    H279002   2.385   6.030  14.452  0.7606  1.9216 -1.0836
19171TIP3   OH279003   0.910   6.238   1.772 -0.2015  0.0521  0.4229
19171TIP3    H179004   0.828   6.203   1.737  0.1469 -0.6700  0.3169
19171TIP3    H279005   0.915   6.327   1.737 -0.6845 -0.0815  0.0099
19172TIP3   OH279006   3.428   2.502  10.312 -0.1607  0.6582 -0.2660
19172TIP3    H179007   3.471   2.443  10.375 -0.2497  0.2254 -0.6042
19172TIP3    H279008   3.492   2.571  10.296  0.4112  0.0309 -0.7452
19173TIP3   OH279009   0.242   3.443  13.058 -0.6277  0.1862  0.1924
19173TIP3    H179010   0.215   3.376  13.121 -0.7335  0.5498  0.5405
19173TIP3    H279011   0.323   3.478  13.094 -1.1157  0.9637  0.5632
19174TIP3   OH279012   5.476   3.939   2.286  0.2826  0.5820 -0.4754
19174TIP3    H179013   5.547   3.885   2.251 -0.0417 -0.1450 -0.0395
19174TIP3    H279014   5.445   3.989   2.210  0.2740 -0.2076 -1.0144
19175TIP3   OH279015   4.338   5.590  17.149 -0.6603  0.7197 -0.3095
19175TIP3    H179016   4.431   5.616  17.154 -0.6396  0.9664 -1.5863
19175TIP3    H279017   4.303   5.613  17.235  0.5313  0.3278  0.3136
19176TIP3   OH279018   5.953   0.375   4.104 -0.2283 -0.7571  0.3862
19176TIP3    H179019   5.986   0.292   4.138  2.2249 -0.0485 -0.0328
19176TIP3    H279020   5.889   0.404   4.168 -0.9185 -2.8014  0.6947
19177TIP3   OH279021   3.700   3.928   2.625  0.6228  0.1140  0.4832
19177TIP3    H179022   3.692   4.023   2.633 -0.3381  0.2379 -1.2684
19177TIP3    H279023   3.617   3.895   2.659 -0.5841  0.2135 -2.0665
19178TIP3   OH279024   5.100   6.248   5.133 -0.0789 -0.1783 -0.2534
19178TIP3    H179025   5.043   6.322   5.153 -0.3886 -0.6550  0.7180
19178TIP3    H279026   5.062   6.174   5.181  1.6868 -0.3834  0.9612
19179TIP3   OH279027   2.831   2.511  10.175  0.0236  0.3892  0.0947
19179TIP3    H179028   2.861   2.444  10.237  2.7429  0.5245 -0.9463
19179TIP3    H279029   2.807   2.462  10.096 -0.1774  0.4852  0.0939
19180TIP3   OH279030   3.802   1.248  14.730 -0.5992  0.0622 -0.1600
19180TIP3    H179031   3.727   1.302  14.705 -1.8875 -2.2671 -1.6688
19180TIP3    H279032   3.772   1.158  14.719  1.1251 -1.0875  3.1598
19181TIP3   OH279033   4.037   0.203  12.379 -0.0464  0.4715  0.3772
19181TIP3    H179034   3.951   0.204  12.422  0.4218 -0.1910  1.3567
19181TIP3    H279035   4.024   0.148  12.302 -1.2911  2.8892 -1.2789
19182TIP3   OH279036   6.804   5.132  15.497  0.1409 -0.0490 -0.0513
19182TIP3    H179037   6.810   5.189  15.421  0.7100  0.4872  0.3838
19182TIP3    H279038   6.736   5.171  15.551 -0.1545 -0.3413 -0.2105
19183TIP3   OH279039   6.796   4.867   2.671 -0.1284 -0.4971 -0.6664
19183TIP3    H179040   6.858   4.884   2.742  1.1311 -1.2768 -1.5438
19183TIP3    H279041   6.716   4.838   2.715  0.3900 -0.2670  0.4537
19184TIP3   OH279042   4.213   4.307  14.198  0.2692 -0.4089  0.0806
19184TIP3    H179043   4.190   4.237  14.259 -0.8409  1.5063  2.0033
19184TIP3    H279044   4.130   4.329  14.155  0.5253 -0.0170 -0.2141
19185TIP3   OH279045   5.204   5.937   2.114 -0.8507  0.0807 -0.0372
19185TIP3    H179046   5.173   6.022   2.083 -0.9116  0.3815  0.8271
19185TIP3    H279047   5.178   5.934   2.206  1.0402  0.0592  0.5579
19186TIP3   OH279048   5.752   2.323  17.198 -0.6958  0.1251 -0.1308
19186TIP3    H179049   5.707   2.239  17.190 -0.2215  0.0247 -2.3533
19186TIP3    H279050   5.726   2.372  17.120  0.0606  1.5592  0.4723
19187TIP3   OH279051   1.051   5.012  16.687 -0.0522  0.4868 -0.2129
19187TIP3    H179052   0.965   5.027  16.648 -0.7258  1.8402  1.6377
19187TIP3    H279053   1.095   5.097  16.679  0.8373  0.0107 -0.4613
19188TIP3   OH279054   0.999   4.722  16.943 -0.0424 -0.4762  0.1299
19188TIP3    H179055   0.904   4.726  16.931 -0.2228  0.2932  1.5574
19188TIP3    H279056   1.027   4.646  16.892 -1.2906 -0.1753 -1.0593
19189TIP3   OH279057   6.803   2.030  13.929  0.2414 -0.2010  0.5717
19189TIP3    H179058   6.792   1.995  14.018  1.0532  0.0734  0.7853
19189TIP3    H279059   6.747   2.107  13.927  0.6226  0.0936  1.0218
19190TIP3   OH279060   5.626   2.924   1.870  0.4978 -0.6345  0.0036
19190TIP3    H179061   5.535   2.940   1.895  0.3424  0.0450 -0.9532
19190TIP3    H279062   5.638   2.829   1.882  0.4152 -0.4139  2.4677
19191TIP3   OH279063   0.492   2.348  14.640  0.2685 -0.1803  0.6308
19191TIP3    H179064   0.537   2.367  14.723  0.2297  1.2248  0.3514
19191TIP3    H279065   0.559   2.360  14.573 -0.3677  1.5046  0.2457
19192TIP3   OH279066   3.105   5.631   0.480 -0.5321  0.1240 -0.0592
19192TIP3    H179067   3.028   5.577   0.496  0.3368 -0.8771  0.9891
19192TIP3    H279068   3.165   5.608   0.551 -0.2781  2.8095  0.7040
19193TIP3   OH279069   6.786   2.561  15.469 -0.4637  0.2908 -0.0833
19193TIP3    H179070   6.793   2.630  15.403  0.2446 -0.0016 -0.3160
19193TIP3    H279071   6.846   2.588  15.539  0.4086 -0.4692 -0.5224
19194TIP3   OH279072   5.793   3.485  13.994  0.4932  0.2722 -0.0149
19194TIP3    H179073   5.768   3.568  13.953 -0.3926  0.2112  0.3775
19194TIP3    H279074   5.871   3.458  13.946  1.0892  1.5705  0.1686
19195TIP3   OH279075   1.819   5.486   0.914 -0.1283  0.3613  0.1162
19195TIP3    H179076   1.891   5.423   0.921 -1.5174 -1.7326 -2.5677
19195TIP3    H279077   1.756   5.459   0.980 -0.1210 -0.2140 -0.1119
19196TIP3   OH279078   4.936   0.406   3.367  0.0279 -0.0495 -0.6098
19196TIP3    H179079   4.893   0.402   3.282 -0.2301 -0.3263 -0.4647
19196TIP3    H279080   5.018   0.454   3.350 -0.4353  0.6787 -0.8413
19197TIP3   OH279081   2.109   5.891  16.992 -0.0446  0.1836  0.1330
19197TIP3    H179082   2.167   5.966  17.002 -1.1454  0.9253  1.2656
19197TIP3    H279083   2.044   5.902  17.061  0.4243 -2.4505  1.1074
19198TIP3   OH279084   5.012   5.185  11.701  0.6298  0.0031 -0.5113
19198TIP3    H179085   4.962   5.267  11.707 -1.0335 -0.9044 -1.2625
19198TIP3    H279086   5.037   5.166  11.791 -0.6750  0.3260 -0.0632
19199TIP3   OH279087   2.556   6.214  12.052  0.4029  0.4385 -0.0297
19199TIP3    H179088   2.636   6.163  12.038  0.8858  0.8838  1.0250
19199TIP3    H279089   2.563   6.287  11.991  0.8336  0.5105  0.1016
19200TIP3   OH279090   1.148   1.596  13.778 -0.0759 -0.4339 -0.1058
19200TIP3    H179091   1.127   1.562  13.865 -0.4429  1.5316  0.6258
19200TIP3    H279092   1.063   1.603  13.734 -0.0073 -0.4181 -0.2365
19201TIP3   OH279093   6.601   3.394   1.777  0.1392  0.9229 -0.2177
19201TIP3    H179094   6.598   3.417   1.870 -0.1410 -0.4366  0.1431
19201TIP3    H279095   6.525   3.336   1.765  1.9426 -1.5728 -0.4949
19202TIP3   OH279096   1.621   2.755  16.894  0.0800 -0.3818 -0.3155
19202TIP3    H179097   1.597   2.757  16.987  0.6201 -1.9321 -0.1049
19202TIP3    H279098   1.611   2.845  16.864  0.0163  0.1646  1.2742
19203TIP3   OH279099   5.387   3.521  14.406  0.5934  0.0668 -0.1347
19203TIP3    H179100   5.448   3.555  14.472  0.8593  0.6178 -0.6537
19203TIP3    H279101   5.418   3.558  14.323 -0.6153  0.5832 -0.3718
19204TIP3   OH279102   6.135   6.603   1.176 -0.3047  0.4325 -0.2292
19204TIP3    H179103   6.200   6.535   1.157  1.4503  0.3182  4.6872
19204TIP3    H279104   6.094   6.621   1.092  3.7754 -1.8669 -3.0766
19205TIP3   OH279105   6.166   1.135  15.704 -0.5091  0.3857  0.2257
19205TIP3    H179106   6.235   1.093  15.653 -0.7593  1.9680 -1.5102
19205TIP3    H279107   6.105   1.064  15.725 -0.0447 -0.4454 -1.0954
19206TIP3   OH279108   1.760   0.545   3.784 -0.1896 -0.1002 -0.5504
19206TIP3    H179109   1.683   0.581   3.739  0.4679 -0.2535 -1.8534
19206TIP3    H279110   1.818   0.621   3.796  0.5390 -0.3929 -1.9232
19207TIP3   OH279111   2.302   3.901  15.153 -0.1222 -0.1033  0.6212
19207TIP3    H179112   2.282   3.908  15.246 -2.5988 -0.3935  0.1736
19207TIP3    H279113   2.350   3.819  15.145 -0.4083 -0.3758  1.5701
19208TIP3   OH279114   0.528   0.730   3.063 -0.7120 -0.2588 -0.2486
19208TIP3    H179115   0.500   0.788   3.134  2.0841  1.1059 -0.0868
19208TIP3    H279116   0.571   0.657   3.107  0.5056  0.3003 -0.4451
19209TIP3   OH279117   3.279   5.364  14.513  0.0966 -0.0556  0.4798
19209TIP3    H179118   3.370   5.392  14.522  0.2990  0.4223 -2.0959
19209TIP3    H279119   3.242   5.427  14.451 -2.3622  0.4668  2.3216
19210TIP3   OH279120   5.611   5.179  11.616  0.1001  0.0813 -0.4112
19210TIP3    H179121   5.518   5.203  11.612 -0.1033 -0.5423  0.2761
19210TIP3    H279122   5.649   5.215  11.536 -0.8216 -0.0249 -0.9035
19211TIP3   OH279123   0.139   6.252   3.889 -0.4259 -0.0984 -0.1406
19211TIP3    H179124   0.125   6.232   3.982  0.5288 -0.6983 -0.1203
19211TIP3    H279125   0.064   6.307   3.866 -1.4341 -1.0969  0.6158
19212TIP3   OH279126   1.445   5.605   4.695 -0.8470 -0.8730 -0.5083
19212TIP3    H179127   1.536   5.575   4.697 -0.8006 -0.7784 -1.1962
19212TIP3    H279128   1.439   5.661   4.617 -1.5575 -1.0753 -0.6057
19213TIP3   OH279129   2.668   3.430  14.329 -0.5577  0.0500 -0.1929
19213TIP3    H179130   2.588   3.388  14.298  0.4470 -1.0249 -1.4425
19213TIP3    H279131   2.738   3.392  14.275  0.4851  3.0649 -1.1605
19214TIP3   OH279132   2.237   4.909   1.693  0.2616 -0.4896 -0.3534
19214TIP3    H179133   2.160   4.858   1.719 -2.2747  3.2027  0.1218
19214TIP3    H279134   2.229   4.918   1.598  0.3789 -0.4688 -0.3620
19215TIP3   OH279135   1.277   5.396   1.765  0.0060  0.2441 -0.2370
19215TIP3    H179136   1.283   5.486   1.797  0.0417  0.5750 -1.1465
19215TIP3    H279137   1.366   5.363   1.768 -0.1579 -0.1151  1.0694
19216TIP3   OH279138   1.298   1.354   4.259  0.4457 -0.1587  0.1921
19216TIP3    H179139   1.232   1.320   4.199 -0.8364  0.3036  1.2996
19216TIP3    H279140   1.266   1.330   4.346  1.6208  0.2856  0.7704
19217TIP3   OH279141   0.440   3.497  14.192  0.0061 -0.0289  0.2264
19217TIP3    H179142   0.421   3.501  14.098 -0.2514  0.5112  0.2950
19217TIP3    H279143   0.531   3.525  14.199  0.2529 -0.7789  0.0714
19218TIP3   OH279144   2.907   6.497   1.499 -0.2924 -0.5684 -0.1964
19218TIP3    H179145   2.977   6.431   1.493  0.1987 -0.5519  3.1651
19218TIP3    H279146   2.828   6.446   1.514 -0.0177 -0.5146  1.7182
19219TIP3   OH279147   1.574   2.639   5.511  0.0922 -0.4643  0.1070
19219TIP3    H179148   1.566   2.624   5.605  1.8492  1.4800  0.6341
19219TIP3    H279149   1.489   2.674   5.485 -1.5777 -3.9819  0.2079
19220TIP3   OH279150   4.013   2.368  13.970 -0.4158 -0.2668  0.4721
19220TIP3    H179151   4.039   2.457  13.996 -0.4575 -0.6880  2.0354
19220TIP3    H279152   4.092   2.331  13.930  0.4566 -0.4146  2.2400
19221TIP3   OH279153   1.241   5.019  15.052  1.2574  0.6999  0.0149
19221TIP3    H179154   1.278   5.095  15.096  1.4682  0.5498  0.0961
19221TIP3    H279155   1.315   4.977  15.009  1.1122  0.6376 -0.1756
19222TIP3   OH279156   2.526   4.255   0.853  0.6289 -0.1376  0.0270
19222TIP3    H179157   2.606   4.227   0.808  0.1909  0.3885 -1.1329
19222TIP3    H279158   2.547   4.342   0.888  1.2828 -0.9346  1.7439
19223TIP3   OH279159   6.386   4.810  14.482 -0.8019  0.5600 -0.2553
19223TIP3    H179160   6.439   4.749  14.431 -1.9034 -0.5804 -0.0823
19223TIP3    H279161   6.322   4.844  14.420 -0.7571  0.8563 -0.1410
19224TIP3   OH279162   6.578   4.632  15.277 -0.0789 -0.1004  0.1614
19224TIP3    H179163   6.555   4.671  15.362  0.6169  0.7112 -0.0129
19224TIP3    H279164   6.565   4.538  15.290  2.2609 -0.2722  1.9461
19225TIP3   OH279165   0.354   5.166  13.929 -0.6397  0.2617  0.3280
19225TIP3    H179166   0.414   5.240  13.918 -0.8953  0.4325  0.0364
19225TIP3    H279167   0.381   5.125  14.011 -0.0584  0.2651  0.1416
19226TIP3   OH279168   1.997   4.089  16.780 -0.4729  0.4411 -0.1531
19226TIP3    H179169   1.967   4.157  16.720  1.8362  2.4267  0.7907
19226TIP3    H279170   1.945   4.102  16.860 -2.9063 -1.6340 -1.2407
19227TIP3   OH279171   2.162   1.287   3.924  0.3102  0.5544  0.9831
19227TIP3    H179172   2.079   1.332   3.944  1.1454  1.7936  1.8434
19227TIP3    H279173   2.226   1.358   3.918  1.1366 -0.2918 -0.7717
19228TIP3   OH279174   5.604   2.074   0.021  0.2020  0.4561  0.4563
19228TIP3    H179175   5.517   2.043  -0.000 -0.5399  1.3173  2.0441
19228TIP3    H279176   5.659   1.996   0.023 -0.5861 -0.1223 -0.2647
19229TIP3   OH279177   1.243   3.118  15.107 -0.2976  0.6142 -0.6950
19229TIP3    H179178   1.154   3.095  15.079 -1.3835  0.6643  2.2830
19229TIP3    H279179   1.240   3.213  15.121 -0.7307  0.3135  1.9360
19230TIP3   OH279180   2.399   0.804   1.457  0.3683 -0.2295 -0.2659
19230TIP3    H179181   2.337   0.811   1.529  2.1039 -0.0391  1.2917
19230TIP3    H279182   2.345   0.799   1.378 -1.5881 -0.3050  1.0284
19231TIP3   OH279183   3.752   2.266  17.166  0.1557  0.0506 -0.6665
19231TIP3    H179184   3.676   2.231  17.212 -0.3731  1.6264 -0.2519
19231TIP3    H279185   3.717   2.300  17.083  0.5925 -0.1524 -0.9363
19232TIP3   OH279186   3.335   0.875  11.142  0.4306  0.0957  0.3082
19232TIP3    H179187   3.330   0.919  11.058  0.2334  1.3043  0.9253
19232TIP3    H279188   3.398   0.804  11.128 -0.0011 -0.0594 -0.9802
19233TIP3   OH279189   5.744   4.146   1.693  0.8819  0.4698 -0.7429
19233TIP3    H179190   5.710   4.163   1.605 -1.2043 -3.4331 -0.9102
19233TIP3    H279191   5.670   4.107   1.740  2.2853  1.2994  2.4073
19234TIP3   OH279192   6.372   2.151   4.734  0.0891  0.1142 -0.1861
19234TIP3    H179193   6.278   2.166   4.734  0.2466  1.6810  2.4558
19234TIP3    H279194   6.407   2.219   4.676 -0.4419 -1.9986 -3.2352
19235TIP3   OH279195   6.102   5.475  14.582 -0.1681 -0.1034  0.1343
19235TIP3    H179196   6.110   5.526  14.662 -0.5693  0.7741 -0.3691
19235TIP3    H279197   6.111   5.384  14.610 -1.4216  0.1146  1.3245
19236TIP3   OH279198   3.170   6.168  15.006 -0.7286 -0.0884 -0.0510
19236TIP3    H179199   3.194   6.203  14.920  0.9264 -1.6407 -0.2928
19236TIP3    H279200   3.251   6.129  15.039 -1.4124  0.2075  2.0934
19237TIP3   OH279201   0.152   4.896   5.461 -0.1620 -0.4974 -0.3180
19237TIP3    H179202   0.233   4.925   5.419 -0.2831 -2.0179 -1.6860
19237TIP3    H279203   0.179   4.872   5.550  0.8877 -0.8952 -0.7302
19238TIP3   OH279204   2.562   3.381  11.285 -0.0284  0.0817  0.3792
19238TIP3    H179205   2.637   3.322  11.289  1.4657  1.8647  0.1134
19238TIP3    H279206   2.489   3.330  11.321  1.3776 -1.5821  1.0125
19239TIP3   OH279207   4.036   5.863  16.863  0.3789  0.1846  0.3133
19239TIP3    H179208   4.022   5.847  16.956  0.0471  2.2768  0.6910
19239TIP3    H279209   4.113   5.920  16.860  2.1163 -2.0616 -0.9474
19240TIP3   OH279210   3.513   3.361  12.803  0.1651  0.1267  0.4365
19240TIP3    H179211   3.439   3.364  12.864  0.2420  0.2282  0.5255
19240TIP3    H279212   3.517   3.449  12.766 -0.8843 -0.3495 -0.9173
19241TIP3   OH279213   4.075   3.307  12.508 -0.0865  0.1110  0.0951
19241TIP3    H179214   4.014   3.375  12.481  1.0205  0.5198 -1.5077
19241TIP3    H279215   4.020   3.229  12.520 -1.2804  1.1105  1.3931
19242TIP3   OH279216   3.030   3.288   0.793  0.0225 -0.0161 -0.3443
19242TIP3    H179217   3.061   3.198   0.801  1.1535  0.2970 -1.0205
19242TIP3    H279218   3.056   3.331   0.875  2.1478  0.4446 -1.2006
19243TIP3   OH279219   4.706   4.547   4.261  0.2047 -0.6774 -0.7090
19243TIP3    H179220   4.655   4.526   4.183  0.1930 -1.1687 -0.5722
19243TIP3    H279221   4.773   4.609   4.231 -1.0024  0.6908 -0.7248
19244TIP3   OH279222   2.259   2.897  11.778  0.6309  0.1849 -0.4678
19244TIP3    H179223   2.259   2.847  11.860  2.7851 -2.0780 -1.6995
19244TIP3    H279224   2.327   2.963  11.790  0.5915  0.1953 -0.2844
19245TIP3   OH279225   4.730   1.908  11.183  0.3892  0.3661 -0.1915
19245TIP3    H179226   4.709   1.873  11.096  1.8353 -2.4439  0.4805
19245TIP3    H279227   4.645   1.931  11.220 -0.4835 -0.6648 -1.4537
19246TIP3   OH279228   4.173   0.479  15.921  0.6298  0.4384  0.0779
19246TIP3    H179229   4.211   0.483  15.833 -0.2688 -0.0305 -0.3434
19246TIP3    H279230   4.218   0.548  15.969 -0.4213  2.2384 -1.3553
19247TIP3   OH279231   2.361   3.433  13.099 -0.6914 -0.2180 -0.3994
19247TIP3    H179232   2.347   3.432  13.005 -0.0959  1.2428 -0.5374
19247TIP3    H279233   2.318   3.514  13.129 -1.7107 -1.1323  0.7411
19248TIP3   OH279234   1.857   4.816  13.504  0.2484  0.4982 -0.4946
19248TIP3    H179235   1.796   4.861  13.563  0.1087  0.5343 -0.6633
19248TIP3    H279236   1.925   4.781  13.561 -1.4114 -2.0324  0.1038
19249TIP3   OH279237   2.347   2.607  16.988 -0.5697  0.3241  0.5920
19249TIP3    H179238   2.399   2.544  16.938 -0.6943  0.8962 -0.2919
19249TIP3    H279239   2.379   2.599  17.078  1.6209  1.1860 -0.0292
19250TIP3   OH279240   1.031   1.554  14.029  0.7404  0.3157  0.1744
19250TIP3    H179241   1.032   1.633  14.084 -1.4259 -1.4269  3.0108
19250TIP3    H279242   1.081   1.490  14.079  2.2727 -0.2750 -1.9808
19251TIP3   OH279243   6.479   6.060   4.440  0.4852  0.2970 -0.2080
19251TIP3    H179244   6.549   6.010   4.398 -0.7853 -0.0469 -2.0722
19251TIP3    H279245   6.438   6.109   4.368  0.5389  2.6546  1.2696
19252TIP3   OH279246   3.404   5.966   1.390 -0.2090 -0.9273  0.1472
19252TIP3    H179247   3.496   5.982   1.368 -0.2020  2.5062  2.0931
19252TIP3    H279248   3.355   6.017   1.326 -0.7503 -1.6864 -0.0600
19253TIP3   OH279249   5.945   5.914   4.951 -0.4750 -0.4239  0.3204
19253TIP3    H179250   5.956   5.970   4.875 -0.3511  0.3328  0.8867
19253TIP3    H279251   6.020   5.854   4.948  0.3764  0.5870  0.6686
19254TIP3   OH279252   2.640   2.176   5.732 -0.5474 -0.0969  0.0042
19254TIP3    H179253   2.667   2.158   5.642  2.1367 -2.0560  1.0861
19254TIP3    H279254   2.565   2.235   5.723  1.0289  1.6439 -3.4243
19255TIP3   OH279255   4.525   6.065  12.192 -0.4084 -0.2483 -0.3500
19255TIP3    H179256   4.539   5.991  12.132  2.0664 -0.9627  0.9748
19255TIP3    H279257   4.526   6.142  12.136  2.0392 -0.8768 -1.3083
19256TIP3   OH279258   1.702   5.666   5.969 -0.1143 -0.5666  0.0458
19256TIP3    H179259   1.633   5.723   6.001  1.0971  0.8322  0.2576
19256TIP3    H279260   1.745   5.634   6.049  1.5245  1.1840 -0.0775
19257TIP3   OH279261   4.266   4.707  15.906 -0.6188  0.2824  0.1989
19257TIP3    H179262   4.216   4.648  15.850  0.1568 -0.9437  0.7713
19257TIP3    H279263   4.319   4.759  15.844  0.0617 -0.9028 -0.2412
19258TIP3   OH279264   2.533   3.365   4.943 -0.4586  0.7474 -0.2883
19258TIP3    H179265   2.476   3.297   4.906  0.2635 -0.6474  1.0513
19258TIP3    H279266   2.535   3.433   4.876 -0.7984 -0.7735 -1.9325
19259TIP3   OH279267   4.138   4.691   2.745  0.2894  0.0186  0.3358
19259TIP3    H179268   4.213   4.657   2.793  1.1302  0.4243 -0.6465
19259TIP3    H279269   4.095   4.752   2.805 -0.6373 -1.9257  1.7449
19260TIP3   OH279270   6.796   4.440  15.113 -0.4136  0.3874  0.4173
19260TIP3    H179271   6.775   4.527  15.149 -1.0008  0.6361 -0.5037
19260TIP3    H279272   6.724   4.421  15.054 -1.1150 -1.4376  1.7689
19261TIP3   OH279273   6.752   4.598   5.999 -0.3098  0.2655  0.2023
19261TIP3    H179274   6.766   4.534   6.068 -0.9246 -0.3093 -0.1976
19261TIP3    H279275   6.707   4.549   5.929 -0.7539  1.1165 -0.1216
19262TIP3   OH279276   2.574   0.852   2.525  0.0192  0.3897 -0.3269
19262TIP3    H179277   2.561   0.873   2.617 -1.2634 -0.7983 -0.2123
19262TIP3    H279278   2.620   0.768   2.525 -2.5395 -1.1103 -0.6982
19263TIP3   OH279279   1.514   0.425  14.332  0.2572 -0.4566  0.3434
19263TIP3    H179280   1.513   0.378  14.249  0.1453  0.1838 -0.0252
19263TIP3    H279281   1.546   0.512  14.310 -1.5917  0.3332  0.6260
19264TIP3   OH279282   5.646   0.140   3.635  0.3148 -0.1820 -0.1194
19264TIP3    H179283   5.671   0.066   3.580  0.5415  0.7634 -1.3400
19264TIP3    H279284   5.684   0.121   3.721 -1.7198 -2.6605  0.3339
19265TIP3   OH279285   4.085   1.612   2.805 -0.1942  1.1361 -0.1489
19265TIP3    H179286   4.181   1.618   2.810 -0.1457  1.4635 -1.2057
19265TIP3    H279287   4.059   1.687   2.751 -0.9730  0.6058 -0.5306
19266TIP3   OH279288   4.653   1.360  14.563  0.3041  0.2823  0.3455
19266TIP3    H179289   4.699   1.299  14.505  1.9538 -1.7497  3.5021
19266TIP3    H279290   4.564   1.325  14.569 -0.0564  0.8423 -1.2990
19267TIP3   OH279291   2.311   1.635  16.733 -0.1750  0.4291 -0.3544
19267TIP3    H179292   2.216   1.626  16.729 -0.1659 -0.3093  0.5633
19267TIP3    H279293   2.328   1.725  16.708 -0.9881  0.1528 -2.0460
19268TIP3   OH279294   6.531   3.155   1.089  0.6391  0.4844  0.3120
19268TIP3    H179295   6.617   3.197   1.089  0.7621  0.2432  0.9589
19268TIP3    H279296   6.470   3.227   1.103  0.6531  0.7864 -1.0445
19269TIP3   OH279297   3.279   4.926   0.019  0.3851  0.5372 -0.2486
19269TIP3    H179298   3.267   4.997  -0.044  0.2613  0.0122 -0.8247
19269TIP3    H279299   3.198   4.874   0.012  0.1342  0.7783  0.7395
19270TIP3   OH279300   5.566   2.291  13.567 -0.2278  0.6979  0.4552
19270TIP3    H179301   5.514   2.223  13.610 -0.0176  0.3965  0.2337
19270TIP3    H279302   5.501   2.355  13.539 -0.5224  0.1575 -0.1233
19271TIP3   OH279303   3.225   2.251  16.975 -0.3720 -0.6473 -0.6779
19271TIP3    H179304   3.220   2.156  16.963  0.1384 -0.6862 -0.5713
19271TIP3    H279305   3.159   2.269  17.043  0.8749 -1.1878  0.7362
19272TIP3   OH279306   6.006   2.715  12.254  0.4788  0.4332 -0.0726
19272TIP3    H179307   5.934   2.662  12.289  0.4334  0.3986 -0.2164
19272TIP3    H279308   6.033   2.669  12.174  0.6819  0.4276 -0.0027
19273TIP3   OH279309   3.190   2.470   4.159 -0.0163 -0.0695 -0.3889
19273TIP3    H179310   3.228   2.423   4.233  0.4861 -0.2189 -0.7288
19273TIP3    H279311   3.139   2.404   4.112 -1.7732  0.4165  0.7605
19274TIP3   OH279312   2.877   2.945  16.077 -0.6366  0.9482  0.1390
19274TIP3    H179313   2.807   2.985  16.129 -0.5022 -1.6685  2.5937
19274TIP3    H279314   2.834   2.920  15.995 -1.8428  1.9395  0.4288
19275TIP3   OH279315   2.230   5.247  11.691 -0.3712 -0.1260 -0.6110
19275TIP3    H179316   2.320   5.280  11.693  0.1262 -1.3146 -1.7058
19275TIP3    H279317   2.180   5.317  11.649  0.2384  0.1700 -0.8639
19276TIP3   OH279318   4.994   0.966  13.463 -0.0603  0.1710  0.2935
19276TIP3    H179319   5.078   0.955  13.507 -0.4653 -0.6201  0.8902
19276TIP3    H279320   4.976   0.881  13.422 -0.6641  0.2700  0.3396
19277TIP3   OH279321   1.000   3.626  17.188  0.0754 -0.5232 -0.0803
19277TIP3    H179322   0.937   3.561  17.157 -0.4957 -0.4951  0.9534
19277TIP3    H279323   1.086   3.587  17.171 -0.2015 -2.9935  3.1730
19278TIP3   OH279324   0.915   2.234   6.818 -0.5682  0.5279  0.2960
19278TIP3    H179325   1.004   2.199   6.823 -0.6793  0.1167 -0.4223
19278TIP3    H279326   0.891   2.223   6.726 -1.2780  0.8508  0.4400
19279TIP3   OH279327   0.406   0.354   1.730  0.3778  0.1744 -0.2336
19279TIP3    H179328   0.435   0.341   1.640  2.2718  0.4391  0.2919
19279TIP3    H279329   0.359   0.273   1.752  0.6491 -0.2480 -1.1732
19280TIP3   OH279330   0.388   1.499  13.805  0.9024  0.2144  0.9886
19280TIP3    H179331   0.449   1.537  13.869 -0.3765 -0.7623  2.8977
19280TIP3    H279332   0.377   1.408  13.833  0.0669 -0.1612 -0.4761
19281TIP3   OH279333   2.262   5.330  16.872 -0.4139  0.9368  0.0152
19281TIP3    H179334   2.204   5.345  16.797 -0.0481 -0.1912 -0.5266
19281TIP3    H279335   2.343   5.298  16.834 -0.2420  0.2802  0.8886
19282TIP3   OH279336   1.975   1.683   0.342  0.1599  0.2565  0.1860
19282TIP3    H179337   1.921   1.605   0.349 -0.5144  0.6966  0.0372
19282TIP3    H279338   2.029   1.668   0.264  2.2005 -1.3354  1.7969
19283TIP3   OH279339   2.037   5.076  12.360  0.7406  0.0223  0.5095
19283TIP3    H179340   2.121   5.033  12.340  0.7162 -0.2710  1.0245
19283TIP3    H279341   2.063   5.161  12.397  0.7910  1.5394 -2.6708
19284TIP3   OH279342   0.805   1.576   0.791 -0.6199  0.1713 -0.1763
19284TIP3    H179343   0.885   1.578   0.844 -0.8016  0.2022  0.0967
19284TIP3    H279344   0.828   1.623   0.711  0.0815 -1.0592 -0.7297
19285TIP3   OH279345   1.305   2.516  13.911  0.3785 -0.8199 -0.1415
19285TIP3    H179346   1.253   2.536  13.833 -0.3092 -2.1518 -0.0630
19285TIP3    H279347   1.244   2.469  13.969  1.1227 -0.6324  0.8229
19286TIP3   OH279348   1.552   5.469  13.316  0.0945 -0.3233 -0.3777
19286TIP3    H179349   1.570   5.447  13.407 -1.1574 -0.0800 -0.0594
19286TIP3    H279350   1.552   5.565  13.314 -0.1193 -0.3252 -0.5775
19287TIP3   OH279351   4.883   6.011  15.709 -0.5981  0.3278  0.2996
19287TIP3    H179352   4.870   6.090  15.657 -1.2378  0.5992  0.8554
19287TIP3    H279353   4.969   5.978  15.682 -0.7531  0.6718 -0.6352
19288TIP3   OH279354   2.439   5.197  16.716  0.5102  0.1812 -0.3232
19288TIP3    H179355   2.393   5.118  16.747  1.8076 -0.1108  0.9835
19288TIP3    H279356   2.492   5.167  16.642  1.1471 -0.2445  0.2900
19289TIP3   OH279357   6.011   2.541   1.260  0.2930 -0.0434 -0.0238
19289TIP3    H179358   6.001   2.487   1.339  0.5436 -1.8874 -1.2002
19289TIP3    H279359   6.030   2.478   1.190  0.8967  1.6141 -1.4161
19290TIP3   OH279360   1.529   3.526   5.034  0.1614  0.6092  0.0153
19290TIP3    H179361   1.491   3.531   4.946  1.8112 -1.3944 -0.9010
19290TIP3    H279362   1.517   3.614   5.071 -0.7141  1.4535 -2.1324
19291TIP3   OH279363   1.056   0.603  15.364 -0.5128 -0.4533 -0.1729
19291TIP3    H179364   1.039   0.694  15.343  0.3098 -0.6046 -1.6584
19291TIP3    H279365   1.103   0.569  15.288 -1.1929 -2.2336  0.1429
19292TIP3   OH279366   4.201   3.107  11.640  0.3216  0.2117  0.2474
19292TIP3    H179367   4.186   3.013  11.631 -0.6394  0.4398 -0.8631
19292TIP3    H279368   4.122   3.147  11.603  1.0412  1.4609  0.0115
19293TIP3   OH279369   4.908   4.377   1.484 -0.0745  0.5237 -0.0836
19293TIP3    H179370   4.937   4.297   1.441 -0.4035  0.8641 -0.9683
19293TIP3    H279371   4.831   4.405   1.435  1.8323  3.1050 -1.8883
19294TIP3   OH279372   0.335   2.941  11.895 -0.1550 -0.1283  0.4424
19294TIP3    H179373   0.400   2.999  11.935  2.1854 -0.9484 -1.8566
19294TIP3    H279374   0.251   2.979  11.918  1.1804  2.1643  1.9158
19295TIP3   OH279375   0.084   4.582  12.543  0.3722 -0.4323  0.7592
19295TIP3    H179376   0.146   4.512  12.520  1.2942  0.7370 -0.4754
19295TIP3    H279377   0.066   4.626  12.460 -0.2750  0.7159  1.4843
19296TIP3   OH279378   3.923   3.519   3.301 -0.4629  0.5533 -0.7666
19296TIP3    H179379   3.985   3.591   3.302 -0.9532  0.9905 -1.0035
19296TIP3    H279380   3.972   3.446   3.263  0.6370  0.1699  1.2539
19297TIP3   OH279381   1.572   1.995  15.398  0.6582 -0.0961  1.0255
19297TIP3    H179382   1.507   1.992  15.327  1.5306 -0.4984  0.2227
19297TIP3    H279383   1.558   1.914  15.447 -0.8196  0.7706  2.1562
19298TIP3   OH279384   0.297   3.860   1.555 -0.4298  0.3496 -0.3313
19298TIP3    H179385   0.334   3.859   1.467 -1.1420  0.1851 -0.6357
19298TIP3    H279386   0.372   3.849   1.613 -0.0184 -0.0714 -0.9381
19299TIP3   OH279387   1.594   2.938  13.609  0.0251 -0.0537 -0.1913
19299TIP3    H179388   1.565   2.922  13.519  1.0147 -0.2955 -0.4768
19299TIP3    H279389   1.647   2.861  13.631 -0.3282 -0.0638  0.6511
19300TIP3   OH279390   5.513   6.483   3.155 -0.2809  0.1418 -0.1071
19300TIP3    H179391   5.471   6.533   3.224  0.3852 -3.4995  3.2855
19300TIP3    H279392   5.443   6.428   3.119  0.4942 -2.9189  2.6657
19301TIP3   OH279393   5.305   0.750  14.427  0.2134  0.0499 -0.6951
19301TIP3    H179394   5.219   0.715  14.400 -0.3442 -1.1642  2.2344
19301TIP3    H279395   5.368   0.684  14.397 -0.0269  0.1961 -1.5466
19302TIP3   OH279396   6.403   2.012   0.201 -0.3076  0.2450  0.4319
19302TIP3    H179397   6.337   2.002   0.269 -0.5549 -0.2881  0.1267
19302TIP3    H279398   6.364   1.969   0.124  0.1576  0.4267  0.0932
19303TIP3   OH279399   5.256   2.771  12.128  0.4176 -0.2550  0.0657
19303TIP3    H179400   5.178   2.806  12.085  1.0836 -0.4387 -1.3467
19303TIP3    H279401   5.228   2.754  12.218 -0.4407  2.2268  0.3578
19304TIP3   OH279402   6.018   2.986  12.596 -0.1796  0.3962  0.1350
19304TIP3    H179403   6.069   2.907  12.616  1.6716  1.8123  1.3893
19304TIP3    H279404   6.013   2.988  12.501  0.7160 -0.6567  0.0396
19305TIP3   OH279405   3.430   0.703  13.146 -0.2636 -0.1913  0.0283
19305TIP3    H179406   3.357   0.673  13.200  0.0833 -2.4918 -0.6721
19305TIP3    H279407   3.508   0.687  13.199 -0.1536  1.0822  0.2824
19306TIP3   OH279408   2.659   6.114   4.840  0.1219  0.0363 -0.4263
19306TIP3    H179409   2.749   6.112   4.807  0.3822  0.5958  0.2455
19306TIP3    H279410   2.605   6.109   4.761  0.7361  0.9694 -0.9258
19307TIP3   OH279411   2.408   3.971  12.629 -0.3664 -0.0568  0.1006
19307TIP3    H179412   2.356   4.051  12.635 -0.1787  0.0374  0.4412
19307TIP3    H279413   2.437   3.968  12.538 -0.6848  0.0669 -0.0051
19308TIP3   OH279414   5.882   6.600  16.968 -0.7695 -0.1033 -0.1721
19308TIP3    H179415   5.897   6.695  16.972  0.8481 -0.3697  0.5939
19308TIP3    H279416   5.802   6.587  17.018 -1.0958  0.8670 -0.4111
19309TIP3   OH279417   3.975   4.979  15.002 -0.1433 -0.3363 -0.4914
19309TIP3    H179418   4.061   4.949  14.973 -0.7464 -0.4626 -2.2613
19309TIP3    H279419   3.918   4.969  14.925 -1.4343  0.9955  0.2283
19310TIP3   OH279420   6.021   0.936   3.018 -0.5592  0.2615 -0.2275
19310TIP3    H179421   6.055   0.848   3.006  0.6667  0.8901 -1.6167
19310TIP3    H279422   6.069   0.970   3.093  0.5243  0.4680 -0.9939
19311TIP3   OH279423   0.807   1.720   1.526 -0.2679 -0.4911 -0.5083
19311TIP3    H179424   0.876   1.764   1.476 -0.7591  0.9764  0.0351
19311TIP3    H279425   0.849   1.695   1.608 -0.1424 -0.4794 -0.5680
19312TIP3   OH279426   4.099   2.628  13.914  0.1640  0.0819  0.4875
19312TIP3    H179427   4.036   2.692  13.881 -0.0520 -0.1673  0.4148
19312TIP3    H279428   4.185   2.666  13.893  0.0561  0.7363  1.1942
19313TIP3   OH279429   4.145   4.693   3.148  0.2214  0.2934 -0.2875
19313TIP3    H179430   4.180   4.605   3.159 -0.1398  0.3783  1.8759
19313TIP3    H279431   4.189   4.727   3.070  1.0760 -1.4392 -0.5961
19314TIP3   OH279432   4.668   3.091   0.380 -0.6308  0.0839 -0.2400
19314TIP3    H179433   4.700   3.110   0.292  0.9431  0.7575  0.4410
19314TIP3    H279434   4.716   3.151   0.437  1.0123 -2.6611  1.4820
19315TIP3   OH279435   4.607   3.845  16.793 -0.3985  0.3406 -0.1052
19315TIP3    H179436   4.536   3.872  16.851 -0.5976 -0.5046  0.0622
19315TIP3    H279437   4.565   3.787  16.729 -0.3295  1.8294 -1.5759
19316TIP3   OH279438   5.296   5.232   2.095  0.1311  0.7151 -0.0572
19316TIP3    H179439   5.280   5.218   2.002 -0.6847  0.1853  0.1593
19316TIP3    H279440   5.334   5.150   2.126 -1.6049  0.0771  0.5128
19317TIP3   OH279441   4.403   3.630   6.641  0.1168 -0.2302  0.4319
19317TIP3    H179442   4.334   3.692   6.663 -0.2439 -1.1071  1.8753
19317TIP3    H279443   4.440   3.663   6.559 -0.0366  1.9015  1.1731
19318TIP3   OH279444   1.591   6.336  15.036  0.0581 -0.3739  0.3087
19318TIP3    H179445   1.668   6.287  15.066  1.5459  2.0275  0.6475
19318TIP3    H279446   1.578   6.307  14.946  2.8322  0.7755 -0.5661
19319TIP3   OH279447   2.369   0.142   0.279  0.3790  0.2489 -0.1394
19319TIP3    H179448   2.408   0.059   0.307  1.0237  0.2487 -0.9913
19319TIP3    H279449   2.398   0.205   0.345 -0.7944 -0.3385  0.9751
19320TIP3   OH279450   4.621   5.870   3.468  0.5134  0.4791 -0.5089
19320TIP3    H179451   4.629   5.917   3.551 -0.9755  0.9221 -0.5747
19320TIP3    H279452   4.704   5.885   3.424  1.4826 -0.0830  1.0396
19321TIP3   OH279453   0.738   2.023  16.287 -0.3632 -0.0085  0.3314
19321TIP3    H179454   0.741   2.117  16.306 -1.8173  0.1138  0.0716
19321TIP3    H279455   0.703   2.018  16.198  3.0038 -0.7019 -1.1216
19322TIP3   OH279456   4.208   1.175   2.934 -0.1376  0.4175  0.2703
19322TIP3    H179457   4.168   1.222   2.861  1.5318 -1.0801 -1.7165
19322TIP3    H279458   4.266   1.111   2.893  1.4323 -0.0231  2.9391
19323TIP3   OH279459   0.625   5.051   2.822 -0.0561 -0.2169 -0.5839
19323TIP3    H179460   0.536   5.018   2.821 -0.1288 -0.0155 -1.1493
19323TIP3    H279461   0.616   5.147   2.823  0.1393 -0.1469  2.2809
19324TIP3   OH279462   2.069   3.102  16.389 -0.1504 -0.4260 -0.5306
19324TIP3    H179463   2.159   3.070  16.392 -0.0398 -0.1547 -0.9423
19324TIP3    H279464   2.076   3.194  16.363 -0.3834  0.3001  1.7001
19325TIP3   OH279465   0.808   0.682  11.007 -0.1602 -0.2534 -0.1082
19325TIP3    H179466   0.806   0.775  10.984  0.9656 -0.3684 -0.7346
19325TIP3    H279467   0.794   0.637  10.924 -1.8634 -0.6630  0.3607
19326TIP3   OH279468   1.058   0.792  16.598  0.1753 -0.2158 -0.1538
19326TIP3    H179469   1.006   0.863  16.637 -1.4868 -1.8289  0.7440
19326TIP3    H279470   1.104   0.753  16.672 -0.8674 -1.5847 -0.1813
19327TIP3   OH279471   1.344   4.936  11.651 -0.4051 -0.0454  0.5621
19327TIP3    H179472   1.324   4.927  11.744 -0.0648 -3.1589  0.4369
19327TIP3    H279473   1.434   4.904  11.643 -0.9680 -1.3917 -1.0029
19328TIP3   OH279474   4.005   1.163   5.153 -0.0411  0.3008  0.1069
19328TIP3    H179475   4.044   1.229   5.210  2.1798 -0.1733 -0.7583
19328TIP3    H279476   4.016   1.198   5.065  1.0046 -1.0890 -0.3517
19329TIP3   OH279477   1.181   1.633   1.214 -0.4326 -0.3301  0.2472
19329TIP3    H179478   1.273   1.651   1.234 -1.2158  0.5703  3.4491
19329TIP3    H279479   1.158   1.559   1.270 -1.9231  0.1354  0.2912
19330TIP3   OH279480   5.041   4.557  12.060  0.1274  0.0548 -0.0105
19330TIP3    H179481   5.081   4.580  12.144 -2.3738  0.0052  1.2937
19330TIP3    H279482   4.977   4.488  12.082  0.3016 -0.8851 -2.1859
19331TIP3   OH279483   0.196   5.900  12.257  0.5069  0.0288 -0.1844
19331TIP3    H179484   0.148   5.980  12.237  0.5280  0.8551  2.7158
19331TIP3    H279485   0.233   5.915  12.344  1.8738 -2.5203 -0.2375
19332TIP3   OH279486   3.449   4.533  11.482 -0.0099 -0.8169 -0.0301
19332TIP3    H179487   3.469   4.614  11.529 -0.3162  0.1094 -1.4506
19332TIP3    H279488   3.354   4.531  11.475  0.0349 -0.8537 -0.7362
19333TIP3   OH279489   1.374   3.611   0.437 -0.4330 -0.3394  0.4376
19333TIP3    H179490   1.366   3.639   0.528  0.2947  2.6450 -0.2919
19333TIP3    H279491   1.290   3.634   0.397  0.4272  1.7720 -0.3402
19334TIP3   OH279492   5.613   2.219  12.664  0.3987  0.2747  0.2150
19334TIP3    H179493   5.584   2.162  12.735  1.1918  1.1848  1.3199
19334TIP3    H279494   5.551   2.292  12.665  0.0434 -0.0112 -0.4544
19335TIP3   OH279495   0.143   6.744   0.841  0.0304 -0.2414 -0.6040
19335TIP3    H179496   0.088   6.689   0.897  0.5146  0.2287  0.3621
19335TIP3    H279497   0.222   6.760   0.893  0.6305 -0.0241 -1.5405
19336TIP3   OH279498   4.671   1.075  12.655 -0.0220 -0.1418  0.2820
19336TIP3    H179499   4.682   1.126  12.735  2.0735  0.2223 -0.1900
19336TIP3    H279500   4.687   0.985  12.682  2.1662  0.1310  0.0606
19337TIP3   OH279501   5.435   4.889  15.676  0.0884 -0.2339  0.9663
19337TIP3    H179502   5.449   4.898  15.582 -2.4421 -1.1186  0.4264
19337TIP3    H279503   5.523   4.889  15.714  1.1427  0.8012 -1.3070
19338TIP3   OH279504   0.500   2.495  16.514  0.4874 -0.0019  0.6589
19338TIP3    H179505   0.568   2.429  16.504  1.8430  1.4873 -0.4540
19338TIP3    H279506   0.508   2.525  16.605 -0.2417 -1.3913  1.2234
19339TIP3   OH279507   4.681   5.501   2.749 -0.0842 -0.3401 -1.2861
19339TIP3    H179508   4.631   5.563   2.696  1.1247  0.3264 -1.6799
19339TIP3    H279509   4.684   5.421   2.697  0.1417 -0.0472 -1.7278
19340TIP3   OH279510   6.668   0.726  13.022  0.1678 -0.0538 -0.4114
19340TIP3    H179511   6.578   0.721  12.992 -1.0913  0.3198  2.8420
19340TIP3    H279512   6.676   0.813  13.060  1.5116 -0.4965  0.3913
19341TIP3   OH279513   6.580   4.856  14.699 -0.2175 -0.3090  0.6891
19341TIP3    H179514   6.531   4.832  14.620 -0.1961 -0.7008  0.7934
19341TIP3    H279515   6.639   4.782  14.714  0.1265 -0.0165  0.7940
19342TIP3   OH279516   4.807   1.331  13.690 -0.5582 -0.0175  0.5761
19342TIP3    H179517   4.752   1.328  13.611  0.9104 -0.3089 -0.4718
19342TIP3    H279518   4.874   1.396  13.670 -1.6704  1.9420  2.6650
19343TIP3   OH279519   5.487   0.980   0.484 -0.6567  0.1245 -0.0962
19343TIP3    H179520   5.542   0.916   0.529 -0.7855 -0.0305 -0.1622
19343TIP3    H279521   5.540   1.060   0.485 -1.6656  0.9034  2.7157
19344TIP3   OH279522   3.636   2.872   3.856 -0.1647  0.3006 -0.0040
19344TIP3    H179523   3.704   2.858   3.790 -0.6107  0.5017 -0.5099
19344TIP3    H279524   3.634   2.967   3.869  1.5429  0.1200  2.0327
19345TIP3   OH279525   2.939   4.948  12.611  0.2834  0.0400  0.9547
19345TIP3    H179526   2.965   5.040  12.604  0.9596 -0.1457  0.9370
19345TIP3    H279527   3.007   4.901  12.563  0.1911 -0.5057  1.3554
19346TIP3   OH279528   2.919   5.697  15.449  0.0228  0.5711  0.2913
19346TIP3    H179529   2.829   5.713  15.475 -0.0314 -1.2764  1.3842
19346TIP3    H279530   2.913   5.675  15.356 -0.0707  4.6769 -0.8702
19347TIP3   OH279531   3.157   2.536  11.589  0.3428  0.0449  0.1087
19347TIP3    H179532   3.092   2.585  11.539  0.5605  1.3006  1.0021
19347TIP3    H279533   3.237   2.542  11.536  0.4377  0.9145  0.3357
19348TIP3   OH279534   6.479   1.731  14.326  0.4419  0.4067 -0.5022
19348TIP3    H179535   6.449   1.644  14.353 -0.6359  1.1172  0.6754
19348TIP3    H279536   6.520   1.717  14.240 -0.2923 -1.1439 -0.6243
19349TIP3   OH279537   2.332   5.475   1.584  0.0432  0.4002  0.3137
19349TIP3    H179538   2.295   5.521   1.509 -0.9836 -1.5751 -0.4879
19349TIP3    H279539   2.350   5.543   1.648  1.0269  2.1643 -1.7242
19350TIP3   OH279540   3.223   4.320   3.023 -0.1682 -0.7055 -0.3030
19350TIP3    H179541   3.160   4.284   3.085 -1.6912 -0.8955 -1.8868
19350TIP3    H279542   3.174   4.328   2.941  1.2570  1.2286 -1.0295
19351TIP3   OH279543   5.911   5.848  13.403  0.1755 -0.1372  0.0933
19351TIP3    H179544   5.961   5.768  13.418 -0.2953 -0.3969  0.2848
19351TIP3    H279545   5.978   5.914  13.385  0.6143 -0.3781  0.7918
19352TIP3   OH279546   0.698   0.159   5.637 -0.0918  0.0820  0.2602
19352TIP3    H179547   0.755   0.083   5.648 -0.1873 -0.2870 -1.5028
19352TIP3    H279548   0.620   0.125   5.593 -0.8642  0.9192  0.9424
19353TIP3   OH279549   3.469   2.371   5.062 -0.1704  0.1441 -0.3434
19353TIP3    H179550   3.451   2.282   5.034  0.8818 -0.0783 -0.3255
19353TIP3    H279551   3.457   2.425   4.984  2.0494 -0.3802 -1.0890
19354TIP3   OH279552   1.017   3.161   3.507  0.1908 -0.1621 -0.0574
19354TIP3    H179553   0.999   3.252   3.530 -1.5408 -0.9433  2.1659
19354TIP3    H279554   0.938   3.131   3.463  0.5669 -0.6924 -0.3816
19355TIP3   OH279555   2.989   0.576  12.611 -0.5171  0.1190 -0.2448
19355TIP3    H179556   3.034   0.569  12.695 -1.7740 -1.2768  0.3427
19355TIP3    H279557   3.038   0.517  12.553  0.3674  1.1038 -0.5500
19356TIP3   OH279558   2.936   3.108  16.844 -0.4431 -0.1537  0.2434
19356TIP3    H179559   2.933   3.204  16.837  2.2378 -0.0299 -0.0760
19356TIP3    H279560   3.004   3.090  16.909  1.1548 -1.8214 -1.7451
19357TIP3   OH279561   1.265   2.109   4.505  0.4666 -0.2162 -0.3179
19357TIP3    H179562   1.231   2.117   4.416 -0.4625  0.9905  0.1154
19357TIP3    H279563   1.295   2.198   4.527  2.1536 -0.8285  0.0220
19358TIP3   OH279564   4.706   3.857  11.223  0.1106 -0.1163  0.0279
19358TIP3    H179565   4.731   3.817  11.140 -0.5015  1.1148 -0.7699
19358TIP3    H279566   4.679   3.946  11.200 -0.1968  0.2013  1.5264
19359TIP3   OH279567   1.404   2.032  15.188 -0.5502  0.0549  0.4779
19359TIP3    H179568   1.311   2.017  15.176 -0.6245  1.9156 -2.0119
19359TIP3    H279569   1.410   2.123  15.218  0.4693 -0.0052  0.4960
19360TIP3   OH279570   1.862   2.769  15.194  0.6651 -0.4963  0.0424
19360TIP3    H179571   1.915   2.848  15.182 -1.6561  1.0574 -0.7033
19360TIP3    H279572   1.824   2.780  15.282 -3.1957  1.6811 -1.6439
19361TIP3   OH279573   5.613   5.365  10.711  0.0916 -0.2770 -1.4558
19361TIP3    H179574   5.639   5.335  10.624  1.0283 -1.9584 -0.6438
19361TIP3    H279575   5.518   5.357  10.712  0.1000 -0.5700 -2.2024
19362TIP3   OH279576   5.881   5.365  11.636 -0.4740 -0.0785  0.3276
19362TIP3    H179577   5.815   5.360  11.566  0.1445  0.5187 -0.3128
19362TIP3    H279578   5.964   5.350  11.591  0.0453  1.4015  0.7453
19363TIP3   OH279579   0.777   3.211  15.125 -0.4821  0.2914  0.3299
19363TIP3    H179580   0.739   3.242  15.043  0.3908 -1.7629 -0.9217
19363TIP3    H279581   0.868   3.241  15.121 -0.5522  0.5637  0.7655
19364TIP3   OH279582   4.778   0.031  16.872 -0.0137  0.1094 -0.0522
19364TIP3    H179583   4.864   0.070  16.861 -0.1381  0.0451 -1.4806
19364TIP3    H279584   4.724   0.073  16.804 -1.3616  0.8273  1.3947
19365TIP3   OH279585   3.110   1.535  16.278  0.4733 -0.1023  0.4845
19365TIP3    H179586   3.078   1.500  16.195  1.2445  2.0563 -0.8226
19365TIP3    H279587   3.123   1.458  16.333  0.0044 -1.6302 -1.4143
19366TIP3   OH279588   5.614   5.592   3.508 -0.2369  0.6441 -0.2801
19366TIP3    H179589   5.624   5.687   3.505  1.4507  0.5673  1.3493
19366TIP3    H279590   5.559   5.576   3.585  0.3670  0.2766  0.0888
19367TIP3   OH279591   6.671   2.075  15.513  0.2862 -0.0314  0.4479
19367TIP3    H179592   6.660   2.166  15.485 -2.5005 -0.1344  0.8949
19367TIP3    H279593   6.738   2.079  15.581 -0.9955  2.0601  1.7222
19368TIP3   OH279594   1.689   2.606  13.244  0.1349 -0.2308  0.4534
19368TIP3    H179595   1.717   2.696  13.262 -0.0319 -0.1863  0.4967
19368TIP3    H279596   1.722   2.588  13.156  1.2684 -0.5774  0.9338
19369TIP3   OH279597   5.907   6.372  11.227 -0.0467  0.1988 -0.5829
19369TIP3    H179598   5.901   6.277  11.227  0.4709  0.0008  3.1744
19369TIP3    H279599   5.819   6.402  11.204 -0.5562 -1.2224 -0.5647
19370TIP3   OH279600   5.331   5.765   1.304  0.1054 -0.2838  0.4919
19370TIP3    H179601   5.327   5.723   1.390  0.1842 -1.0521  0.1328
19370TIP3    H279602   5.396   5.714   1.256 -0.2120 -0.0918 -0.1465
19371TIP3   OH279603   5.822   0.672  14.203 -0.2040 -0.0774 -0.0052
19371TIP3    H179604   5.902   0.622  14.186 -0.1149  0.6246 -1.8108
19371TIP3    H279605   5.810   0.666  14.298 -0.2595 -3.6155 -0.1098
19372TIP3   OH279606   2.495   3.248   3.659 -0.5975 -0.5636 -0.0266
19372TIP3    H179607   2.562   3.183   3.639  0.6321  1.0146 -1.2914
19372TIP3    H279608   2.531   3.299   3.732 -0.4945  0.1688 -0.5804
19373TIP3   OH279609   0.461   2.214   0.836  0.7394  0.1907 -0.6381
19373TIP3    H179610   0.365   2.204   0.837  0.6405  1.0879  0.0720
19373TIP3    H279611   0.491   2.147   0.775 -0.5064  1.2207 -2.4941
19374TIP3   OH279612   6.638   5.644   3.506  0.3589 -0.6156 -0.3648
19374TIP3    H179613   6.687   5.564   3.489  1.0368 -0.6639  1.6007
19374TIP3    H279614   6.649   5.697   3.427  2.2935 -1.2802 -0.5738
19375TIP3   OH279615   3.910   3.600  11.986 -0.0927  0.5815  0.0682
19375TIP3    H179616   3.962   3.595  12.067  0.2139 -0.7019 -0.2020
19375TIP3    H279617   3.935   3.523  11.936 -3.0684 -0.7684  0.4224
19376TIP3   OH279618   1.761   0.992   3.774 -0.4115 -0.6006 -0.1019
19376TIP3    H179619   1.837   1.014   3.721 -0.9937  0.1698 -0.6297
19376TIP3    H279620   1.686   1.000   3.715 -1.0665  0.1883  0.7938
19377TIP3   OH279621   6.610   4.857   5.729 -0.1546  0.7063  0.3652
19377TIP3    H179622   6.526   4.865   5.773  0.7215  0.8611  2.0911
19377TIP3    H279623   6.675   4.856   5.800  1.2951  0.4659 -0.9012
19378TIP3   OH279624   1.693   4.440  11.095  0.1353 -0.8270  0.2767
19378TIP3    H179625   1.717   4.403  11.010 -0.9528 -1.3825  0.1984
19378TIP3    H279626   1.652   4.524  11.074  1.7725  0.0450  0.4022
19379TIP3   OH279627   3.255   1.556  16.629  0.4078 -0.1388  0.3088
19379TIP3    H179628   3.242   1.485  16.692 -0.1039  0.9162  1.4220
19379TIP3    H279629   3.188   1.621  16.652 -0.9826 -0.4654 -2.4510
19380TIP3   OH279630   0.986   4.764  14.923 -0.2392  0.2067  0.1233
19380TIP3    H179631   1.046   4.701  14.962 -0.3359 -0.6275 -1.0113
19380TIP3    H279632   0.901   4.742  14.960 -0.1980 -0.0386  0.0764
19381TIP3   OH279633   3.955   0.335   1.529  0.3979 -0.2592  0.0863
19381TIP3    H179634   3.952   0.348   1.624  2.7235 -1.9703  0.4749
19381TIP3    H279635   3.892   0.265   1.512  1.2182 -1.1644  0.6655
19382TIP3   OH279636   4.063   2.199   1.977 -0.2411  0.1315 -0.0256
19382TIP3    H179637   4.034   2.279   1.934  1.0364  0.4304 -0.3859
19382TIP3    H279638   4.148   2.180   1.936 -0.4283 -1.2877  0.2059
19383TIP3   OH279639   2.580   0.939   6.026 -0.0411  0.1384 -0.0536
19383TIP3    H179640   2.577   1.029   5.994  0.9707 -0.3589 -1.7383
19383TIP3    H279641   2.654   0.900   5.979 -0.0869 -1.4164  1.0726
19384TIP3   OH279642   3.575   3.789   2.395  0.7314 -0.1722 -0.4177
19384TIP3    H179643   3.625   3.870   2.404  1.4660 -0.4185 -1.8798
19384TIP3    H279644   3.484   3.816   2.396  0.9043  0.4180  1.2210
19385TIP3   OH279645   0.491   2.482   4.615 -0.4416 -0.7087  0.0411
19385TIP3    H179646   0.584   2.478   4.595 -0.6743 -0.2725 -1.1743
19385TIP3    H279647   0.488   2.497   4.710  0.7440  0.5946 -0.0918
19386TIP3   OH279648   5.906   2.661   2.099  0.0387  0.4003 -0.4351
19386TIP3    H179649   5.931   2.745   2.060 -0.4093 -0.3075 -2.3865
19386TIP3    H279650   5.851   2.619   2.032  1.1043 -1.8849  0.0090
19387TIP3   OH279651   6.144   2.972   3.091 -0.0746  0.2940 -0.0975
19387TIP3    H179652   6.087   2.903   3.125  1.7859 -0.8057  0.9791
19387TIP3    H279653   6.209   2.985   3.160 -0.0966  2.8584 -0.4596
19388TIP3   OH279654   4.987   5.594   0.038 -0.1910 -0.0585  0.1251
19388TIP3    H179655   4.983   5.591   0.133  1.7301 -0.6432  0.2311
19388TIP3    H279656   5.040   5.671   0.019  1.9541 -1.5772 -0.3184
19389TIP3   OH279657   3.878   4.609   4.161  0.0192 -0.4083 -0.1967
19389TIP3    H179658   3.813   4.679   4.167  0.7827  0.4151 -1.2884
19389TIP3    H279659   3.864   4.557   4.240 -0.6479  0.8962  0.5719
19390TIP3   OH279660   0.689   0.116   5.975 -0.3123 -0.8836 -1.0175
19390TIP3    H179661   0.740   0.173   6.032  0.0415 -1.8135 -0.3739
19390TIP3    H279662   0.742   0.037   5.967 -0.7603 -1.1023 -1.9453
19391TIP3   OH279663   2.954   2.607   3.467 -0.8036  0.5014  0.4756
19391TIP3    H179664   3.049   2.612   3.470 -0.6823 -0.5796 -0.6817
19391TIP3    H279665   2.927   2.589   3.557  0.2096 -0.7728  0.5467
19392TIP3   OH279666   6.618   4.017   0.619 -0.8508 -0.5328  0.0605
19392TIP3    H179667   6.611   3.940   0.564 -0.7212  1.3690 -2.8386
19392TIP3    H279668   6.710   4.021   0.645 -0.9699 -1.5906  0.7019
19393TIP3   OH279669   2.958   6.395  12.091  0.2167 -0.2702 -0.4511
19393TIP3    H179670   3.047   6.394  12.126  0.4232 -2.3057 -0.9257
19393TIP3    H279671   2.918   6.473  12.131  1.3831 -0.7683  1.8911
19394TIP3   OH279672   0.149   2.149  14.813  0.2556 -0.1639  0.2214
19394TIP3    H179673   0.152   2.067  14.763  0.0123  0.1232 -0.2716
19394TIP3    H279674   0.068   2.143  14.864 -0.2718  0.1845 -0.5510
19395TIP3   OH279675   0.984   6.032   4.073 -0.5348 -0.1012  0.0317
19395TIP3    H179676   1.050   5.964   4.064  0.0380  0.5782 -1.1743
19395TIP3    H279677   0.903   5.985   4.095  0.2648 -0.9667  1.2200
19396TIP3   OH279678   3.576   1.492  16.597 -0.0897  0.0049 -0.2221
19396TIP3    H179679   3.505   1.435  16.627  0.8232 -1.2785 -0.4175
19396TIP3    H279680   3.539   1.537  16.520 -2.0124  2.3979  1.9171
19397TIP3   OH279681   1.331   6.274   2.933 -0.2245  0.0029 -0.0983
19397TIP3    H179682   1.369   6.225   2.860 -0.7297  1.9830 -1.7814
19397TIP3    H279683   1.312   6.360   2.897 -1.9126  0.5950  1.9892
19398TIP3   OH279684   0.728   6.684   2.757 -0.5600 -0.2563  0.0667
19398TIP3    H179685   0.785   6.714   2.828 -3.9224 -1.0402  3.3960
19398TIP3    H279686   0.682   6.762   2.728 -0.2308 -0.1761 -0.2466
19399TIP3   OH279687   3.429   1.102   4.145  0.0287 -0.0954 -0.5877
19399TIP3    H179688   3.353   1.076   4.196  0.0285  0.2009 -0.4322
19399TIP3    H279689   3.500   1.109   4.209 -0.3349  1.8542 -0.3322
19400TIP3   OH279690   2.333   0.510  16.429  0.0072 -0.4392 -0.2849
19400TIP3    H179691   2.375   0.481  16.348 -1.8704 -0.2466 -1.3903
19400TIP3    H279692   2.366   0.450  16.496  2.3429  0.0040 -0.9636
19401TIP3   OH279693   0.736   5.207   3.568 -0.4438  0.5955 -0.2119
19401TIP3    H179694   0.811   5.233   3.513 -0.3232  0.8378  0.0646
19401TIP3    H279695   0.772   5.201   3.656 -0.1272 -1.9696 -0.4532
19402TIP3   OH279696   6.450   5.106  13.331 -0.5075 -0.3585 -0.2790
19402TIP3    H179697   6.477   5.098  13.240 -1.0456 -1.8404 -0.3435
19402TIP3    H279698   6.411   5.021  13.352  0.1528 -0.2597  1.5240
19403TIP3   OH279699   5.418   6.211   2.849 -0.6368  0.3785 -0.4431
19403TIP3    H179700   5.434   6.157   2.926 -0.6020  1.1614  0.1176
19403TIP3    H279701   5.327   6.240   2.859 -0.7255  0.2473 -0.8522
19404TIP3   OH279702   5.735   3.886  13.055 -0.4143 -0.1792 -0.4638
19404TIP3    H179703   5.778   3.801  13.071  0.5134  0.6998  2.3434
19404TIP3    H279704   5.807   3.945  13.032 -0.6730  0.3881  0.1472
19405TIP3   OH279705   5.294   0.844   0.198 -0.1862  0.0947  0.8680
19405TIP3    H179706   5.241   0.864   0.275 -0.7029  1.8607  0.1140
19405TIP3    H279707   5.277   0.752   0.180 -0.0948 -0.3328  2.8129
19406TIP3   OH279708   6.572   3.180   3.280 -0.6777 -0.1443  0.1120
19406TIP3    H179709   6.577   3.128   3.360 -1.6629  0.2832  0.4672
19406TIP3    H279710   6.644   3.242   3.287 -1.6583  0.9231  1.4422
19407TIP3   OH279711   1.406   3.550   4.350  0.4932 -0.0390 -0.7239
19407TIP3    H179712   1.389   3.644   4.357  2.2076  0.2429  0.3330
19407TIP3    H279713   1.493   3.539   4.389  0.7570 -1.9242 -1.7430
19408TIP3   OH279714   0.653   5.314   0.709  0.6499 -0.2041  0.7319
19408TIP3    H179715   0.601   5.327   0.788 -0.1177  1.4281  0.0093
19408TIP3    H279716   0.735   5.361   0.725  0.1678  0.8153  0.2715
19409TIP3   OH279717   3.081   4.617  10.961 -0.2410 -0.1153 -0.7798
19409TIP3    H179718   3.129   4.652  10.885  1.0626 -1.5695 -0.6856
19409TIP3    H279719   3.073   4.523  10.942 -1.9437 -0.1228 -0.1559
19410TIP3   OH279720   4.542   2.644   6.495  0.2053 -0.1410 -0.1906
19410TIP3    H179721   4.533   2.605   6.582 -0.6220  0.7913  0.1614
19410TIP3    H279722   4.627   2.687   6.497  0.7420 -1.1709 -0.2842
19411TIP3   OH279723   1.391   1.941  12.993  0.2876 -0.2106 -0.5141
19411TIP3    H179724   1.459   1.876  13.011 -0.7837 -1.2143 -0.0045
19411TIP3    H279725   1.313   1.908  13.036 -0.4354  1.1563 -0.6980
19412TIP3   OH279726   5.557   6.708   1.819 -0.7065 -0.3980 -0.6016
19412TIP3    H179727   5.521   6.712   1.907  0.4672  0.3541 -0.1203
19412TIP3    H279728   5.531   6.622   1.785 -0.0568 -1.2605  0.9967
19413TIP3   OH279729   6.728   1.125  13.867  0.1090  0.2742 -0.0811
19413TIP3    H179730   6.708   1.031  13.858  1.9831 -0.2939  1.1789
19413TIP3    H279731   6.805   1.128  13.924  1.0767  2.5174 -1.3831
19414TIP3   OH279732   6.411   4.970   2.984 -0.1375 -0.3263 -0.5052
19414TIP3    H179733   6.385   4.917   3.059  1.3908  2.7629  2.5278
19414TIP3    H279734   6.334   4.973   2.928 -3.4863  1.4053  3.6273
19415TIP3   OH279735   6.295   6.165   0.438 -0.1294 -0.3542  0.3313
19415TIP3    H179736   6.293   6.259   0.421  1.0494 -0.4011 -0.1517
19415TIP3    H279737   6.223   6.130   0.385  0.4714  0.0908 -0.8149
19416TIP3   OH279738   3.432   0.141   5.952  0.5396  0.4347 -0.1724
19416TIP3    H179739   3.418   0.205   6.022  0.3918 -1.1409  1.3121
19416TIP3    H279740   3.345   0.109   5.931  0.7536 -0.5270  0.3512
19417TIP3   OH279741   0.098   0.596  12.947  0.1144  0.5146 -0.5563
19417TIP3    H179742   0.173   0.593  13.005 -0.0603 -1.4773 -0.3675
19417TIP3    H279743   0.033   0.648  12.994  1.0029  1.4045 -0.2858
19418TIP3   OH279744   4.800   2.380   2.360  0.3577 -0.0858 -0.0791
19418TIP3    H179745   4.710   2.413   2.361  0.2572 -0.3461 -0.6329
19418TIP3    H279746   4.831   2.394   2.271  0.6624 -0.5477 -0.0516
19419TIP3   OH279747   1.184   0.549   5.538 -0.4902  0.2284 -0.4007
19419TIP3    H179748   1.167   0.587   5.624 -0.6293 -0.6270 -0.0388
19419TIP3    H279749   1.100   0.514   5.509 -0.3689  0.2023 -0.7358
19420TIP3   OH279750   4.895   6.032  16.295  0.7489 -0.1587  0.2740
19420TIP3    H179751   4.887   6.019  16.200  2.6741 -1.5153  0.2344
19420TIP3    H279752   4.833   5.970  16.332 -0.3181  0.6715 -0.0876
19421TIP3   OH279753   0.366   4.941   5.692  0.4755 -0.2947 -0.2728
19421TIP3    H179754   0.319   4.944   5.776 -1.6146 -2.2568 -1.2890
19421TIP3    H279755   0.377   5.033   5.669  0.5907  0.2932  1.8591
19422TIP3   OH279756   6.432   2.181   5.636  0.5710 -0.5212 -0.5675
19422TIP3    H179757   6.346   2.212   5.666  0.4236 -1.3976 -0.0462
19422TIP3    H279758   6.495   2.228   5.690  0.4190  0.0671 -0.8981
19423TIP3   OH279759   4.959   2.371  15.228  0.5364  0.7754 -0.3296
19423TIP3    H179760   4.921   2.458  15.219 -1.1104  0.0520 -0.9197
19423TIP3    H279761   4.893   2.321  15.278  0.8193 -0.4623 -1.1385
19424TIP3   OH279762   5.336   2.111  13.533 -0.7413 -0.1177  0.1230
19424TIP3    H179763   5.286   2.103  13.615  0.8236 -3.2137  0.9171
19424TIP3    H279764   5.270   2.103  13.464 -1.7198 -1.0285  1.1208
19425TIP3   OH279765   6.033   2.757   6.739 -0.0414  0.2845  0.2602
19425TIP3    H179766   6.104   2.722   6.793  1.7854  0.4119 -1.9257
19425TIP3    H279767   6.012   2.686   6.678  0.3459  1.2787 -1.0766
19426TIP3   OH279768   2.183   5.899  15.372 -0.1513  0.6097 -0.6957
19426TIP3    H179769   2.185   5.994  15.384 -2.8799  0.8307 -1.3951
19426TIP3    H279770   2.123   5.867  15.439 -0.9181 -0.3344 -1.7818
19427TIP3   OH279771   1.546   5.816  11.130  0.1677 -0.3686  0.0596
19427TIP3    H179772   1.559   5.866  11.050 -0.6740 -0.7131 -0.3118
19427TIP3    H279773   1.451   5.810  11.139  0.2495 -0.3522  1.0764
19428TIP3   OH279774   4.072   2.688  14.811  0.0788 -0.2709 -0.3181
19428TIP3    H179775   4.130   2.757  14.843  1.0776 -0.6211 -1.2931
19428TIP3    H279776   4.087   2.614  14.869  0.2046 -0.1829 -0.2388
19429TIP3   OH279777   2.033   6.494   3.197 -0.1122  0.1193  0.1306
19429TIP3    H179778   1.949   6.459   3.228 -0.6127 -0.0825 -1.3662
19429TIP3    H279779   2.046   6.453   3.112  0.3299  1.9531 -0.7415
19430TIP3   OH279780   1.269   1.879   0.298  0.2012 -0.2275  0.8326
19430TIP3    H179781   1.252   1.950   0.235 -0.7468 -3.2116 -2.6452
19430TIP3    H279782   1.195   1.881   0.358 -1.5981 -0.1728 -1.2498
19431TIP3   OH279783   3.295   2.649  14.765 -0.1275  0.5092 -0.2228
19431TIP3    H179784   3.205   2.628  14.790  0.7821 -2.0243  1.3257
19431TIP3    H279785   3.322   2.716  14.827 -1.3494  2.4398 -1.6675
19432TIP3   OH279786   0.447   3.386  13.902  0.0576  0.2558 -0.4389
19432TIP3    H179787   0.431   3.435  13.821  1.9631  1.1789 -0.2995
19432TIP3    H279788   0.362   3.389  13.947 -0.6197  1.0729 -1.6756
19433TIP3   OH279789   5.075   4.829  16.882  0.4645 -0.0441 -0.5501
19433TIP3    H179790   5.157   4.802  16.924  1.4846 -0.9285 -2.9393
19433TIP3    H279791   5.080   4.925  16.879  0.2651  0.0590  1.4277
19434TIP3   OH279792   5.131   2.728  13.853  0.3688 -1.1593 -0.1355
19434TIP3    H179793   5.045   2.752  13.887  0.5272 -0.4308 -0.2299
19434TIP3    H279794   5.173   2.812  13.834  1.5624 -1.4760  1.0258
19435TIP3   OH279795   4.078   1.594   1.991  0.3978 -0.1501 -0.0144
19435TIP3    H179796   3.988   1.625   1.979 -0.4068 -2.0005  0.8417
19435TIP3    H279797   4.119   1.603   1.905  0.1065  2.7093  0.0535
19436TIP3   OH279798   6.610   6.430  16.093 -0.0288  0.0022  0.1888
19436TIP3    H179799   6.625   6.391  16.179 -2.3772 -0.8152  0.2958
19436TIP3    H279800   6.673   6.386  16.036  0.9204 -0.1274  1.2979
19437TIP3   OH279801   1.897   3.712   1.395  0.1091 -0.9839 -0.2077
19437TIP3    H179802   1.856   3.697   1.480 -1.7970  0.5147 -0.7858
19437TIP3    H279803   1.848   3.656   1.335 -0.6670  0.2875 -0.7959
19438TIP3   OH279804   2.225   0.838  14.750  0.0624  0.1225  0.1188
19438TIP3    H179805   2.232   0.752  14.708 -1.3392 -0.5272  1.1196
19438TIP3    H279806   2.139   0.871  14.722  0.4464  1.0558  0.0165
19439TIP3   OH279807   0.115   0.796  14.069 -0.2131 -1.0322 -0.4682
19439TIP3    H179808   0.068   0.806  14.152  0.8424  0.0619  0.0364
19439TIP3    H279809   0.053   0.824  14.002 -0.0651  1.1993  0.2493
19440TIP3   OH279810   1.877   3.808  16.246 -0.2538 -0.6609 -0.8004
19440TIP3    H179811   1.888   3.755  16.324 -0.2537 -0.7097 -0.8330
19440TIP3    H279812   1.869   3.745  16.175 -2.7059 -0.7048 -0.5642
19441TIP3   OH279813   4.211   2.932   3.232 -0.0821 -0.2780 -0.0698
19441TIP3    H179814   4.116   2.924   3.232 -0.2526  1.0551  2.3565
19441TIP3    H279815   4.240   2.873   3.302  0.9114 -0.6834 -0.7933
19442TIP3   OH279816   4.340   3.794  13.102  0.4487 -0.4163  0.3821
19442TIP3    H179817   4.354   3.831  13.190 -1.0873 -2.6984  1.6985
19442TIP3    H279818   4.323   3.701  13.118 -2.3017 -0.4804 -2.0821
19443TIP3   OH279819   6.089   0.925   2.604 -0.1527 -0.1926  0.4045
19443TIP3    H179820   6.149   0.926   2.678  0.6002 -1.4296 -0.1354
19443TIP3    H279821   6.011   0.881   2.637 -1.3280  2.4931  1.4565
19444TIP3   OH279822   2.394   0.184  14.871  0.5981  0.5520 -0.0158
19444TIP3    H179823   2.453   0.250  14.908  0.6030  0.0457  0.9210
19444TIP3    H279824   2.410   0.188  14.777  0.7983  1.6846  0.0536
19445TIP3   OH279825   0.167   4.643   5.786 -1.1038 -0.0814 -0.1031
19445TIP3    H179826   0.131   4.727   5.814  0.2160  0.9593 -1.3948
19445TIP3    H279827   0.177   4.593   5.867 -0.2389  1.6842  0.9310
19446TIP3   OH279828   5.522   0.500  11.385 -0.5838  0.7283 -0.9351
19446TIP3    H179829   5.488   0.520  11.472  0.9395  0.5566 -0.2687
19446TIP3    H279830   5.508   0.406  11.375  1.1383  0.3233  0.0421
19447TIP3   OH279831   2.751   3.814  16.307 -0.1574 -0.7260 -0.5631
19447TIP3    H179832   2.728   3.894  16.353 -0.3868 -0.6920 -0.7357
19447TIP3    H279833   2.672   3.790  16.260  1.0104  1.3262 -4.0000
19448TIP3   OH279834   5.216   3.705  13.979 -0.2273  0.1835 -0.2531
19448TIP3    H179835   5.265   3.717  13.898 -2.1919  1.4549 -1.3176
19448TIP3    H279836   5.162   3.627  13.963 -1.1310  0.8414 -0.4585
19449TIP3   OH279837   3.976   4.979   1.319  0.3749  0.1003 -0.0920
19449TIP3    H179838   3.889   4.992   1.356  1.0471 -0.3947  1.7961
19449TIP3    H279839   4.000   4.890   1.344  1.2345  0.0702 -0.9769
19450TIP3   OH279840   2.139   2.956  14.812  0.1739  0.4948 -0.4450
19450TIP3    H179841   2.078   3.012  14.764 -0.7628  0.0206  0.1703
19450TIP3    H279842   2.084   2.887  14.849  0.9423  0.6042  0.9385
19451TIP3   OH279843   0.426   6.392   0.038 -0.1152 -0.4174 -0.2781
19451TIP3    H179844   0.375   6.368   0.116 -0.6805 -0.6676 -0.7209
19451TIP3    H279845   0.382   6.348  -0.034 -0.3400  0.8315 -0.9237
19452TIP3   OH279846   5.224   2.506   4.265  0.5262 -0.2514  0.2355
19452TIP3    H179847   5.201   2.597   4.246 -0.4133 -0.7073 -0.8979
19452TIP3    H279848   5.318   2.500   4.247  0.7584  0.6584  1.0516
19453TIP3   OH279849   2.532   3.036  13.108  0.3202 -0.2057  0.5669
19453TIP3    H179850   2.570   3.118  13.140  0.7681 -0.4856  0.7618
19453TIP3    H279851   2.501   3.056  13.020 -1.4819  0.7507  1.3631
19454TIP3   OH279852   3.291   6.670   0.197 -0.3719 -0.3708  0.2459
19454TIP3    H179853   3.279   6.702   0.107 -0.5678  0.1629  0.4598
19454TIP3    H279854   3.208   6.691   0.241 -0.1413 -0.3001  0.6484
19455TIP3   OH279855   5.257   2.428   0.842 -0.1342 -0.1405 -0.0374
19455TIP3    H179856   5.292   2.354   0.892  0.6376 -1.2435 -2.0682
19455TIP3    H279857   5.335   2.475   0.812 -0.6157  1.4771  1.1194
19456TIP3   OH279858   5.669   6.429   1.068  0.3866 -0.0202  0.0352
19456TIP3    H179859   5.739   6.373   1.035  1.3457  0.4368  1.2134
19456TIP3    H279860   5.659   6.404   1.160  0.3612  1.2370  0.4025
19457TIP3   OH279861   2.765   1.138   3.269  0.8211  0.6779 -0.0233
19457TIP3    H179862   2.769   1.080   3.194 -1.1599  0.7572 -0.2285
19457TIP3    H279863   2.807   1.219   3.239 -0.5722  0.9598 -1.3199
19458TIP3   OH279864   4.447   5.056   4.427 -0.2113  0.0466  0.2734
19458TIP3    H179865   4.365   5.080   4.470 -1.1424 -0.6249 -1.0414
19458TIP3    H279866   4.423   5.044   4.335  0.6246 -3.3681  0.3476
19459TIP3   OH279867   3.154   4.684  12.632  0.2474 -0.4942  0.1534
19459TIP3    H179868   3.175   4.708  12.723  0.9270  2.1374 -0.6111
19459TIP3    H279869   3.069   4.641  12.638  0.0671  0.0292  1.9962
19460TIP3   OH279870   1.804   2.565   2.601  0.0087 -0.2000 -0.5982
19460TIP3    H179871   1.849   2.518   2.671  1.5389  0.8788 -0.8128
19460TIP3    H279872   1.822   2.514   2.522 -1.4350 -1.2286 -0.3124
19461TIP3   OH279873   2.430   4.050   4.560  0.1332 -0.2066  0.6791
19461TIP3    H179874   2.420   4.143   4.580 -2.1250 -0.2315  0.0001
19461TIP3    H279875   2.401   4.005   4.639 -0.6362 -0.3141  0.3435
19462TIP3   OH279876   6.719   2.185  16.623  0.2232  0.6254  0.3527
19462TIP3    H179877   6.650   2.165  16.559 -0.4028  2.4033  0.4020
19462TIP3    H279878   6.677   2.169  16.708  0.1294  0.9377  0.3659
19463TIP3   OH279879   6.571   0.195   2.757  0.6672 -0.3789  0.2914
19463TIP3    H179880   6.660   0.224   2.735 -0.7322  1.6613 -3.5426
19463TIP3    H279881   6.559   0.115   2.706 -0.4739  0.8332 -1.4536
19464TIP3   OH279882   0.145   3.439  12.707  0.1878 -0.6264 -0.0545
19464TIP3    H179883   0.181   3.479  12.627 -0.1551  1.3627  0.7162
19464TIP3    H279884   0.218   3.443  12.769 -0.7498  1.8376  0.9928
19465TIP3   OH279885   3.172   6.076  15.745  0.4036 -0.7426 -0.5560
19465TIP3    H179886   3.207   6.157  15.709  0.5428 -1.0348 -1.0950
19465TIP3    H279887   3.221   6.063  15.827  0.4336 -0.3299 -0.5049
19466TIP3   OH279888   6.220   0.455   1.200 -0.3440  0.5590  0.1304
19466TIP3    H179889   6.147   0.515   1.215 -0.7318 -0.1855  1.3759
19466TIP3    H279890   6.193   0.373   1.240  1.0796  0.1919  0.4230
19467TIP3   OH279891   4.444   2.845  15.546 -0.5114 -0.2947  0.2056
19467TIP3    H179892   4.532   2.866  15.514 -0.5423 -0.3083  0.1119
19467TIP3    H279893   4.393   2.924  15.531 -0.7819 -0.6181 -0.7002
19468TIP3   OH279894   0.663   5.844   3.279  0.1710 -0.5741 -0.2785
19468TIP3    H179895   0.727   5.776   3.302  1.8589  0.9897 -0.0942
19468TIP3    H279896   0.588   5.828   3.336  0.7236 -1.9904  0.0741
19469TIP3   OH279897   5.288   0.866  11.960 -0.2745 -0.2782 -0.4973
19469TIP3    H179898   5.309   0.953  11.927 -0.1290 -0.8599 -1.9989
19469TIP3    H279899   5.197   0.873  11.990  0.4166  0.9582  1.5472
19470TIP3   OH279900   3.809   0.560  12.196  0.3210 -0.3049  0.8176
19470TIP3    H179901   3.727   0.585  12.155  0.1016 -1.4080  0.5687
19470TIP3    H279902   3.785   0.494  12.262  1.1311 -1.7390 -0.2583
19471TIP3   OH279903   1.492   3.206   6.468 -0.3962  0.1989  0.5443
19471TIP3    H179904   1.531   3.119   6.478 -1.1862 -0.1697  0.5008
19471TIP3    H279905   1.504   3.228   6.376  1.4665  0.9633  0.9211
19472TIP3   OH279906   4.477   1.932   0.492  0.1490  0.1331  0.0729
19472TIP3    H179907   4.434   1.867   0.547 -0.5399 -0.3104 -0.9451
19472TIP3    H279908   4.473   1.895   0.404  3.0017 -0.1361 -0.0634
19473TIP3   OH279909   1.453   4.800  11.031 -0.2156 -0.3676 -0.2663
19473TIP3    H179910   1.487   4.735  10.970  1.2396  1.1727 -1.1795
19473TIP3    H279911   1.383   4.844  10.983  1.3015  1.2268 -1.1328
19474TIP3   OH279912   1.994   1.410   6.311 -0.6542 -0.0148  0.0768
19474TIP3    H179913   2.021   1.341   6.251  1.8613 -1.1261  2.2683
19474TIP3    H279914   2.045   1.486   6.283  0.1615 -0.4015  0.4762
19475TIP3   OH279915   3.555   0.534   5.186  0.2889 -0.0873  0.2701
19475TIP3    H179916   3.637   0.560   5.144  0.8655  0.4768  1.6794
19475TIP3    H279917   3.555   0.438   5.181  0.3588 -0.0437 -0.9286
19476TIP3   OH279918   2.169   4.521  12.031  0.5421 -0.4532  0.0754
19476TIP3    H179919   2.100   4.566  11.981  0.2777 -2.3443 -1.3635
19476TIP3    H279920   2.123   4.451  12.077  1.1107  0.0232  1.4093
19477TIP3   OH279921   0.873   0.622   0.416 -0.2051  0.8379  0.3808
19477TIP3    H179922   0.879   0.567   0.494 -0.3184 -1.5574 -1.2153
19477TIP3    H279923   0.779   0.630   0.400 -0.2384  2.3065  1.0660
19478TIP3   OH279924   2.050   2.234  12.605 -0.0302  0.4328  0.1139
19478TIP3    H179925   2.105   2.206  12.678  0.4721 -0.6861 -0.6625
19478TIP3    H279926   2.030   2.153  12.557  1.3113  1.3248 -2.1139
19479TIP3   OH279927   5.662   3.791  11.524  0.4488  0.2073  0.4675
19479TIP3    H179928   5.674   3.713  11.469  0.7575  0.9004 -0.4762
19479TIP3    H279929   5.623   3.758  11.605 -0.6026 -0.7781 -0.4066
19480TIP3   OH279930   1.494   4.425  13.707 -0.2644  0.3070  0.5831
19480TIP3    H179931   1.529   4.420  13.618 -0.8363  0.6181  0.3384
19480TIP3    H279932   1.475   4.334  13.729 -0.8190  0.2935  0.0963
19481TIP3   OH279933   3.220   0.926   1.907  0.0297 -0.0355  0.0258
19481TIP3    H179934   3.305   0.951   1.870  0.2723  0.1619  0.6999
19481TIP3    H279935   3.175   1.009   1.922 -0.3639 -0.1487 -0.5094
19482TIP3   OH279936   1.957   5.012  11.204  0.3315  0.7030  0.1508
19482TIP3    H179937   1.927   5.018  11.295 -1.3545 -2.5388 -0.0532
19482TIP3    H279938   1.877   4.992  11.154  1.6580 -0.5409 -1.5857
19483TIP3   OH279939   3.144   6.146   6.584 -0.0250  0.3132  0.0953
19483TIP3    H179940   3.240   6.152   6.582  0.0649 -0.8768  0.1763
19483TIP3    H279941   3.118   6.215   6.644  0.8200  0.3852  0.4005
19484TIP3   OH279942   3.563   1.154   1.488  0.2764 -0.6214  0.1400
19484TIP3    H179943   3.644   1.147   1.439  1.3896 -0.0353  1.8141
19484TIP3    H279944   3.523   1.067   1.482  2.0649 -1.5636  0.9723
19485TIP3   OH279945   5.180   1.954  10.944 -0.4229  0.4987 -0.4257
19485TIP3    H179946   5.260   1.978  10.898  0.4598 -0.3768  0.5938
19485TIP3    H279947   5.109   1.975  10.883  0.6979 -0.7543 -2.2439
19486TIP3   OH279948   2.713   3.604   2.277  0.2078 -0.5162  0.3983
19486TIP3    H179949   2.790   3.620   2.223  0.1812 -0.9695  0.2247
19486TIP3    H279950   2.640   3.598   2.214  0.0869 -0.4513  0.5316
19487TIP3   OH279951   1.675   5.917   6.193 -0.3273 -0.6117  0.2958
19487TIP3    H179952   1.761   5.880   6.176  0.3784  0.0673  2.1286
19487TIP3    H279953   1.636   5.859   6.258 -2.1305 -2.0446 -1.9049
19488TIP3   OH279954   5.436   1.799  11.645 -0.0382 -0.0239  0.3693
19488TIP3    H179955   5.437   1.712  11.686 -1.4311 -0.6211 -0.7866
19488TIP3    H279956   5.510   1.845  11.686 -0.4972 -1.0313  2.5192
19489TIP3   OH279957   2.381   1.427  15.741 -0.5703  0.1909  0.5241
19489TIP3    H179958   2.404   1.340  15.708  1.8577  1.5177 -1.7276
19489TIP3    H279959   2.466   1.469  15.758 -1.5779  2.5942  0.0750
19490TIP3   OH279960   5.251   4.372   1.200 -0.1866 -0.4605  1.1856
19490TIP3    H179961   5.317   4.315   1.162  2.0519  0.7999  2.9416
19490TIP3    H279962   5.214   4.419   1.125  1.1790 -0.9299  0.1831
19491TIP3   OH279963   3.551   3.403   3.540  0.0369  0.3276 -0.1553
19491TIP3    H179964   3.607   3.351   3.483  0.3477 -0.1861  0.5908
19491TIP3    H279965   3.470   3.414   3.491  0.2716 -0.1624 -0.6620
19492TIP3   OH279966   0.229   4.139   4.530 -0.2745  0.2926 -0.5410
19492TIP3    H179967   0.176   4.160   4.608  0.6128  0.8588 -0.0756
19492TIP3    H279968   0.307   4.194   4.539  0.7875 -1.1267 -0.7896
19493TIP3   OH279969   0.713   2.637  12.569  0.8571 -0.1822 -0.1844
19493TIP3    H179970   0.743   2.724  12.542  0.1542  0.3378  0.6694
19493TIP3    H279971   0.630   2.653  12.612 -0.2469 -1.4928 -1.7155
19494TIP3   OH279972   0.793   1.575   3.820 -0.4800  0.3739 -0.5548
19494TIP3    H179973   0.805   1.539   3.907  0.5519  0.0411 -0.8235
19494TIP3    H279974   0.698   1.576   3.807 -0.7459  1.6813  1.0812
19495TIP3   OH279975   6.559   0.889  10.413 -0.4138  0.8283 -0.9177
19495TIP3    H179976   6.626   0.941  10.369 -0.6142  1.0323 -0.9805
19495TIP3    H279977   6.491   0.951  10.437  0.7618  1.1711  1.8941
19496TIP3   OH279978   5.019   6.004   4.487 -0.2137  0.0996 -0.2366
19496TIP3    H179979   4.991   6.093   4.505  0.5417  0.4594 -0.7632
19496TIP3    H279980   4.961   5.974   4.417 -0.6756  0.0662  0.1653
19497TIP3   OH279981   0.473   1.880   5.785 -0.7797  1.0427  0.9270
19497TIP3    H179982   0.415   1.874   5.709  1.4061  0.3108 -0.8134
19497TIP3    H279983   0.459   1.799   5.833 -1.4188  1.0195  0.7071
19498TIP3   OH279984   6.398   3.680   4.114 -0.8633 -0.2350  0.1628
19498TIP3    H179985   6.344   3.606   4.088 -0.1448 -0.4945 -0.6486
19498TIP3    H279986   6.350   3.757   4.084 -0.9470 -0.4470 -0.2568
19499TIP3   OH279987   6.161   5.932   4.003  0.2909 -0.6161  0.0903
19499TIP3    H179988   6.257   5.931   4.005  0.3699  1.9360  0.9949
19499TIP3    H279989   6.136   5.964   4.089 -1.3560 -0.5807 -0.3775
19500TIP3   OH279990   2.597   4.211   6.252  0.0467 -0.2308  0.8140
19500TIP3    H179991   2.620   4.218   6.159  1.3148  1.1114  1.1887
19500TIP3    H279992   2.528   4.145   6.255  0.4183 -0.7520 -1.0076
19501TIP3   OH279993   0.367   3.396   5.448 -0.5676 -0.1488 -0.2037
19501TIP3    H179994   0.320   3.397   5.532 -1.6643  0.0678 -0.8035
19501TIP3    H279995   0.385   3.303   5.432 -0.8858 -0.2489 -0.0074
19502TIP3   OH279996   1.463   6.077  15.612 -0.0811 -0.5168 -0.4243
19502TIP3    H179997   1.452   6.169  15.636  0.3867  0.2869 -2.9560
19502TIP3    H279998   1.378   6.037  15.629 -0.1753  0.2428  1.1075
19503TIP3   OH279999   0.947   4.607   4.412 -0.0750 -0.1850 -0.1573
19503TIP3    H180000   0.864   4.564   4.434  0.6515 -1.6858 -0.1787
19503TIP3    H280001   1.008   4.577   4.479  0.3796  1.1965  0.0751
19504TIP3   OH280002   0.316   6.752  14.025  0.4033 -0.0713 -0.0695
19504TIP3    H180003   0.249   6.817  14.003  1.0930  0.3366 -1.0811
19504TIP3    H280004   0.368   6.794  14.093 -0.6144 -0.5756  1.0589
19505TIP3   OH280005   2.758   0.651  13.250 -0.0847  0.1651 -0.3957
19505TIP3    H180006   2.730   0.604  13.328 -0.2093 -0.1036 -0.6007
19505TIP3    H280007   2.781   0.739  13.281 -1.4961  0.5078 -0.2894
19506TIP3   OH280008   6.574   2.026   2.760  0.2258  0.1778  0.1229
19506TIP3    H180009   6.524   2.038   2.680 -0.2639 -0.0290  0.3914
19506TIP3    H280010   6.662   2.003   2.730  0.4914  1.6884 -0.3719
19507TIP3   OH280011   5.574   0.348   1.924  0.3845 -0.2393  0.3058
19507TIP3    H180012   5.566   0.441   1.904  2.2757 -0.1600 -0.3019
19507TIP3    H280013   5.490   0.324   1.963 -1.3451  0.9962 -2.3531
19508TIP3   OH280014   1.420   1.141   1.549  0.3105  0.2041  0.1165
19508TIP3    H180015   1.424   1.049   1.525 -1.3517 -0.0259  0.5892
19508TIP3    H280016   1.366   1.182   1.482  0.9617  0.8327 -0.0431
19509TIP3   OH280017   6.039   3.172   1.225 -0.2223  0.4433  0.2315
19509TIP3    H180018   6.009   3.249   1.177 -2.6923 -0.3050  0.4232
19509TIP3    H280019   6.057   3.106   1.158 -0.6782  0.3740  0.1730
19510TIP3   OH280020   1.124   1.421   6.305 -0.0463  0.1909  0.6163
19510TIP3    H180021   1.125   1.398   6.397 -0.3081 -2.1404  0.1017
19510TIP3    H280022   1.084   1.345   6.261 -1.6928  1.9944 -1.2286
19511TIP3   OH280023   3.514   0.128  14.792  0.6838 -0.1239 -0.8746
19511TIP3    H180024   3.527   0.080  14.874  2.1323 -0.8015 -1.4559
19511TIP3    H280025   3.585   0.192  14.790 -0.1002  0.7535 -1.0135
19512TIP3   OH280026   6.293   5.485  12.254  0.2270 -0.0542  0.2304
19512TIP3    H180027   6.312   5.488  12.348  0.0062  0.3489  0.2666
19512TIP3    H280028   6.301   5.393  12.230  1.3792 -0.0099  0.4171
19513TIP3   OH280029   3.986   3.984   3.310 -0.2564  0.4480 -0.1511
19513TIP3    H180030   3.984   3.979   3.215  0.9438  0.4467 -0.1909
19513TIP3    H280031   4.061   4.041   3.329  1.7749 -2.3705  0.8550
19514TIP3   OH280032   1.873   6.663   0.957  0.3397 -0.4671 -0.0651
19514TIP3    H180033   1.800   6.613   0.919  1.6347 -1.6863 -1.0815
19514TIP3    H280034   1.944   6.599   0.966  1.4212  0.7613  0.5139
19515TIP3   OH280035   5.039   3.458   5.414  0.1744  0.1234  0.4655
19515TIP3    H180036   5.106   3.495   5.356 -0.4514 -1.1013 -1.0938
19515TIP3    H280037   5.015   3.531   5.471  0.4778  1.5228 -1.1242
19516TIP3   OH280038   2.174   1.666   3.042  0.7821 -0.1213 -0.7035
19516TIP3    H180039   2.197   1.650   2.951  0.4552 -0.0961 -0.7931
19516TIP3    H280040   2.247   1.716   3.077  0.3939  0.8620 -1.2637
19517TIP3   OH280041   5.601   0.677  16.533 -0.1449  0.1516 -0.3328
19517TIP3    H180042   5.673   0.645  16.588  2.3939  1.4835 -2.6118
19517TIP3    H280043   5.563   0.749  16.582  1.7714  1.0434 -0.0694
19518TIP3   OH280044   5.751   0.016   1.685  0.1492  0.4054  0.0928
19518TIP3    H180045   5.722  -0.042   1.756  0.7806  0.4089  0.3621
19518TIP3    H280046   5.693   0.092   1.691 -0.3238  0.0507  0.0883
19519TIP3   OH280047   0.307   3.084  16.288 -0.1602 -0.1420 -0.1644
19519TIP3    H180048   0.239   3.055  16.348  0.0663 -1.2417 -0.4272
19519TIP3    H280049   0.376   3.119  16.345 -0.8436  0.8126  0.1075
19520TIP3   OH280050   3.757   0.341   0.196  0.1281  0.3046 -0.3562
19520TIP3    H180051   3.740   0.300   0.281  1.6028  1.4419  0.5578
19520TIP3    H280052   3.702   0.294   0.134  0.0864 -1.5212  0.9956
19521TIP3   OH280053   1.343   4.049  15.321  0.3077 -0.3382 -0.0324
19521TIP3    H180054   1.421   4.003  15.290 -0.3886 -2.0836  0.6210
19521TIP3    H280055   1.303   4.086  15.242  1.0420 -0.6642 -0.5658
19522TIP3   OH280056   6.173   4.157   3.172 -0.2136  0.5921 -0.3852
19522TIP3    H180057   6.137   4.144   3.260 -0.6210  0.6933 -0.5344
19522TIP3    H280058   6.182   4.068   3.137  0.4092  0.5195 -0.0664
19523TIP3   OH280059   6.593   3.384   0.545 -0.1403 -0.3953  0.1663
19523TIP3    H180060   6.637   3.360   0.464 -0.6104 -0.6481 -0.0205
19523TIP3    H280061   6.652   3.355   0.615 -0.6158 -2.0021 -0.0457
19524TIP3   OH280062   1.761   3.068   1.187  0.4832  0.2619  0.7278
19524TIP3    H180063   1.819   3.113   1.248  1.2431 -1.4202  1.3078
19524TIP3    H280064   1.800   2.981   1.177 -1.1365 -0.4094 -0.0493
19525TIP3   OH280065   0.044   0.860  11.616  0.2801  0.1376  0.3969
19525TIP3    H180066  -0.035   0.901  11.581  1.2084  1.1704 -0.6128
19525TIP3    H280067   0.113   0.886  11.554  1.3913 -0.7980  1.1993
19526TIP3   OH280068   5.382   1.699   4.617 -0.5979 -0.7375  0.3816
19526TIP3    H180069   5.465   1.745   4.603  0.1632 -2.1394  0.1611
19526TIP3    H280070   5.321   1.742   4.556  0.0718 -0.0115  0.1999
19527TIP3   OH280071   1.691   4.926   5.991  0.1440 -0.2598 -0.0945
19527TIP3    H180072   1.599   4.945   6.009  0.0464 -1.1552  0.3716
19527TIP3    H280073   1.739   4.988   6.046 -0.1744 -0.6531  0.6314
19528TIP3   OH280074   2.429   1.599   0.264  0.2060 -0.4218  0.8591
19528TIP3    H180075   2.394   1.681   0.227 -0.1740 -1.2430 -0.6997
19528TIP3    H280076   2.508   1.582   0.212 -0.0889 -1.3860  0.7073
19529TIP3   OH280077   3.086   5.702  15.044  0.3552 -0.0991  0.3619
19529TIP3    H180078   2.992   5.720  15.033  0.0773 -0.9146  1.2102
19529TIP3    H280079   3.123   5.783  15.077 -0.4676 -0.3732  2.0679
19530TIP3   OH280080   5.739   3.399  17.181 -0.3476 -0.7037  0.0914
19530TIP3    H180081   5.705   3.488  17.169 -1.9297 -1.2535  0.2310
19530TIP3    H280082   5.763   3.396  17.273  0.1294 -0.2913 -0.0143
19531TIP3   OH280083   3.431   3.370   6.085  0.0873 -0.2831  0.1037
19531TIP3    H180084   3.366   3.317   6.130  0.5082 -0.2183  0.8070
19531TIP3    H280085   3.453   3.320   6.007  1.2515 -1.6875  1.2759
19532TIP3   OH280086   5.776   6.158   0.077  0.4015  0.0459  0.2970
19532TIP3    H180087   5.758   6.207  -0.003  0.0274  0.3146  0.5407
19532TIP3    H280088   5.844   6.096   0.052 -0.4461 -0.5943 -0.5148
19533TIP3   OH280089   2.658   0.212  15.284  0.0482 -0.5502 -0.3928
19533TIP3    H180090   2.685   0.229  15.374  1.0414  0.9170 -0.9026
19533TIP3    H280091   2.568   0.245  15.278  1.0820  2.5730 -0.6926
19534TIP3   OH280092   3.691   2.142   1.562 -0.4261 -0.3717 -0.1999
19534TIP3    H180093   3.684   2.223   1.512  0.5005 -0.2813 -0.2055
19534TIP3    H280094   3.604   2.102   1.556 -0.3384 -0.3659 -1.8897
19535TIP3   OH280095   1.838   0.908   5.308 -0.1675 -0.3645  0.1861
19535TIP3    H180096   1.844   1.002   5.323 -2.2516 -0.1201 -0.2716
19535TIP3    H280097   1.795   0.874   5.387  0.8574 -1.0122  0.4928
19536TIP3   OH280098   0.264   2.875  12.535  0.1139 -0.1596  0.0348
19536TIP3    H180099   0.282   2.836  12.450  0.4067 -0.6265  0.3044
19536TIP3    H280100   0.218   2.806  12.583 -2.1048  0.8690 -0.5059
19537TIP3   OH280101   2.490   5.737   0.252  0.1082 -0.2398 -0.2679
19537TIP3    H180102   2.514   5.828   0.274  3.0079 -1.2542  1.4255
19537TIP3    H280103   2.465   5.740   0.160 -2.2375  2.6095  0.3223
19538TIP3   OH280104   5.906   3.778   4.432  0.0544 -0.0804 -0.0150
19538TIP3    H180105   5.941   3.799   4.345 -0.5389  1.4660  0.0977
19538TIP3    H280106   5.949   3.839   4.491 -1.6787  0.8683  0.3360
19539TIP3   OH280107   1.264   3.219   0.549 -0.6877 -0.2121  0.0769
19539TIP3    H180108   1.203   3.146   0.563 -2.1251  1.0842  0.9311
19539TIP3    H280109   1.313   3.225   0.631 -0.5202 -0.2638 -0.0197
19540TIP3   OH280110   5.624   3.642  17.178 -0.7915  0.2819  0.3604
19540TIP3    H180111   5.649   3.717  17.123  0.1700  0.6823  1.3134
19540TIP3    H280112   5.545   3.607  17.136  0.5055 -0.1049 -1.9152
19541TIP3   OH280113   1.243   1.544  15.783 -0.1401  0.1605 -0.2782
19541TIP3    H180114   1.215   1.502  15.865  0.6483 -0.4907 -0.3344
19541TIP3    H280115   1.303   1.613  15.812  0.0553  0.0001 -0.3011
19542TIP3   OH280116   5.879   2.329  14.982  0.4257  0.1877  0.2688
19542TIP3    H180117   5.866   2.278  14.902 -0.1980  0.0600  0.4466
19542TIP3    H280118   5.925   2.270  15.041 -0.2108 -0.1399  0.4400
19543TIP3   OH280119   5.010   1.241  16.846 -0.3897  0.0134  0.6882
19543TIP3    H180120   5.038   1.191  16.922 -1.2154 -0.4969  0.6590
19543TIP3    H280121   4.951   1.308  16.881 -0.2713  0.1796  0.5740
19544TIP3   OH280122   3.823   5.987   3.763 -0.3216  0.3744 -0.0237
19544TIP3    H180123   3.767   6.022   3.693 -1.3300  1.5788  1.3338
19544TIP3    H280124   3.773   5.915   3.800  0.9760 -1.4381 -1.6272
19545TIP3   OH280125   2.237   6.241   4.002 -0.2814 -0.0426  0.3211
19545TIP3    H180126   2.168   6.202   4.055 -0.5940  1.0677  0.7719
19545TIP3    H280127   2.234   6.334   4.025 -1.8149  0.9136 -3.1092
19546TIP3   OH280128   4.615   2.426   5.506 -0.0225  0.5987 -0.4751
19546TIP3    H180129   4.673   2.350   5.514 -0.0168  0.6305 -0.2235
19546TIP3    H280130   4.532   2.390   5.475 -0.3710  0.3382  0.7264
19547TIP3   OH280131   2.512   1.548   3.459  0.7975  0.3889  0.0773
19547TIP3    H180132   2.530   1.488   3.531  0.5401 -0.5779 -0.6329
19547TIP3    H280133   2.521   1.636   3.497 -1.3977 -0.0692  1.8062
19548TIP3   OH280134   0.248   5.623   3.264 -0.1137  0.0955  0.2341
19548TIP3    H180135   0.303   5.670   3.201 -0.2665 -0.8047 -0.6015
19548TIP3    H280136   0.305   5.555   3.300 -0.1999  0.2289  0.6284
19549TIP3   OH280137   0.318   4.362  16.291  0.8374 -0.1550 -0.4997
19549TIP3    H180138   0.225   4.374  16.308  0.9307  0.7592 -0.5622
19549TIP3    H280139   0.356   4.348  16.378  0.6920 -0.1125 -0.4279
19550TIP3   OH280140   1.077   1.286  17.042  0.0235  0.3806  0.2960
19550TIP3    H180141   1.159   1.236  17.035  0.3050  0.2987  3.1078
19550TIP3    H280142   1.094   1.350  17.110 -2.1271  0.6817  0.6156
19551TIP3   OH280143   5.290   5.976  15.230 -0.7131  0.2007 -0.2258
19551TIP3    H180144   5.338   5.895  15.213 -0.6196 -0.1495  1.5373
19551TIP3    H280145   5.296   5.988  15.325 -0.3953  2.4691 -0.4696
19552TIP3   OH280146   5.234   5.470  16.392  0.2654 -0.0913  0.0070
19552TIP3    H180147   5.309   5.501  16.443  0.3162 -2.0813  1.2130
19552TIP3    H280148   5.255   5.496  16.302  0.7052  2.4641  0.7746
19553TIP3   OH280149   6.495   1.530  14.710 -0.2240 -0.2040  0.3885
19553TIP3    H180150   6.561   1.468  14.740  0.1432  0.0574  0.1345
19553TIP3    H280151   6.472   1.499  14.623 -1.6043 -1.2129  1.0781
19554TIP3   OH280152   0.520   6.316  12.122 -1.6285  0.2763  0.6211
19554TIP3    H180153   0.613   6.330  12.110 -1.8897  0.9627 -0.7616
19554TIP3    H280154   0.480   6.401  12.105 -2.6357 -0.4095 -0.6919
19555TIP3   OH280155   2.220   0.501  14.621 -0.2093 -0.1752  0.1543
19555TIP3    H180156   2.289   0.545  14.572 -1.6858  1.0669 -0.9252
19555TIP3    H280157   2.246   0.409  14.625  0.7758  0.0089 -1.5004
19556TIP3   OH280158   1.308   4.217  12.597 -0.6642 -0.7171 -0.0627
19556TIP3    H180159   1.308   4.121  12.592  1.2677 -0.7419 -0.2834
19556TIP3    H280160   1.401   4.241  12.597 -1.1181  1.2082 -0.9068
19557TIP3   OH280161   5.333   3.627   3.653 -0.2536  0.1566 -0.4402
19557TIP3    H180162   5.316   3.536   3.629  0.7038 -0.0683 -0.2960
19557TIP3    H280163   5.278   3.642   3.730 -0.0159 -0.4706 -0.1379
19558TIP3   OH280164   5.101   3.333   3.685  0.8546 -0.2475  0.3067
19558TIP3    H180165   5.181   3.292   3.652  0.6330 -1.6981  1.4506
19558TIP3    H280166   5.128   3.379   3.765  1.4364  3.4497 -1.7974
19559TIP3   OH280167   2.454   5.388  11.791 -0.1254 -0.6088  0.0695
19559TIP3    H180168   2.537   5.414  11.750  0.4670 -2.1245  0.2387
19559TIP3    H280169   2.474   5.384  11.885 -0.8057  0.4242  0.2758
19560TIP3   OH280170   1.911   5.807   6.137 -0.2027  0.2148  0.3875
19560TIP3    H180171   1.938   5.849   6.056 -3.2744  0.6079 -0.5573
19560TIP3    H280172   1.947   5.718   6.132  0.5405  0.5739 -0.8858
19561TIP3   OH280173   5.693   5.606  11.265 -0.5099  0.3949  0.1948
19561TIP3    H180174   5.694   5.673  11.333 -0.0301 -0.1127  0.7002
19561TIP3    H280175   5.639   5.644  11.195 -0.4608  1.1970  0.5734
19562TIP3   OH280176   6.230   0.056   0.561 -0.0830 -0.1133 -0.0015
19562TIP3    H180177   6.294   0.040   0.492 -0.7653  1.4400 -1.0470
19562TIP3    H280178   6.276   0.112   0.623 -0.2530  0.6067 -0.5107
19563TIP3   OH280179   3.783   2.079   5.896 -0.1265 -0.3175 -0.6953
19563TIP3    H180180   3.767   1.996   5.850 -0.6679 -0.1882 -0.7438
19563TIP3    H280181   3.855   2.119   5.848 -0.5098 -0.3077 -1.2790
19564TIP3   OH280182   1.920   6.712  11.182 -0.0554  0.0809 -0.0473
19564TIP3    H180183   1.877   6.631  11.154 -1.0743  0.5969 -0.0206
19564TIP3    H280184   2.013   6.698  11.164 -0.1220 -1.3658  0.6217
19565TIP3   OH280185   6.741   5.470   3.167  0.1299  0.4146 -0.1486
19565TIP3    H180186   6.758   5.489   3.259  0.0843 -1.4740  0.2920
19565TIP3    H280187   6.790   5.390   3.150  0.4038  0.9104 -1.8796
19566TIP3   OH280188   4.525   2.226   4.711  0.1181 -0.2596 -0.0483
19566TIP3    H180189   4.462   2.200   4.778  0.6586 -0.1222  0.5246
19566TIP3    H280190   4.473   2.235   4.631 -0.5159 -0.5294  0.3280
19567TIP3   OH280191   1.796   1.902  10.317  0.0169 -0.5747  0.4709
19567TIP3    H180192   1.784   1.995  10.335 -0.8962 -0.7592  0.8609
19567TIP3    H280193   1.883   1.897  10.276 -0.2375  0.5462 -0.2790
19568TIP3   OH280194   1.249   4.474   6.692  0.1220  0.0052  0.0725
19568TIP3    H180195   1.326   4.531   6.686 -0.0452  0.2559  0.2838
19568TIP3    H280196   1.244   4.431   6.607  0.7459 -0.3395  0.2025
19569TIP3   OH280197   1.130   6.610  11.900 -0.9192 -0.6114  0.3409
19569TIP3    H180198   1.065   6.540  11.900 -2.2927  0.5683  2.2047
19569TIP3    H280199   1.142   6.631  11.992  1.8591 -0.4927  0.0439
19570TIP3   OH280200   3.004   0.278   4.942  0.4166 -0.3714 -0.4224
19570TIP3    H180201   3.010   0.359   4.892  0.0633 -0.6854 -0.9911
19570TIP3    H280202   3.032   0.301   5.030 -2.6824  1.1169  0.3058
19571TIP3   OH280203   0.145   2.231   0.780  0.2564  0.2134 -0.1900
19571TIP3    H180204   0.154   2.236   0.875 -1.1794  1.3009 -0.0769
19571TIP3    H280205   0.126   2.139   0.762  3.1525 -0.5525  0.2647
19572TIP3   OH280206   2.374   0.826   0.034 -0.0571  0.2933 -0.2478
19572TIP3    H180207   2.395   0.768  -0.039  2.4055 -1.6619  1.8260
19572TIP3    H280208   2.443   0.892   0.033  1.1191 -0.8368  1.2973
19573TIP3   OH280209   3.767   3.194  15.530  0.5799 -0.0555 -0.8250
19573TIP3    H180210   3.740   3.206  15.621  0.7231  1.1640 -0.9279
19573TIP3    H280211   3.847   3.142  15.535  2.4973  2.7559  0.0303
19574TIP3   OH280212   2.728   0.273   1.340  0.1677  0.4278  0.3679
19574TIP3    H180213   2.758   0.183   1.331  1.5562  0.8930  0.1702
19574TIP3    H280214   2.741   0.294   1.433 -0.2454  0.4040  0.4351
19575TIP3   OH280215   1.047   4.933   4.335 -0.3652  0.1459 -0.0862
19575TIP3    H180216   1.007   4.932   4.422 -3.1584  1.2257 -1.2411
19575TIP3    H280217   1.013   4.855   4.292  0.9041 -0.3113 -0.3117
19576TIP3   OH280218   0.754   5.351  12.047  0.4980 -0.2085  0.5873
19576TIP3    H180219   0.758   5.308  12.132  2.2497 -0.6350  0.3272
19576TIP3    H280220   0.686   5.303  11.999 -1.5217  0.9369  2.1758
19577TIP3   OH280221   6.371   3.362  17.065 -0.1326 -0.0840 -0.1610
19577TIP3    H180222   6.309   3.293  17.088 -1.4270  0.7701 -0.9331
19577TIP3    H280223   6.422   3.325  16.992 -0.1292 -0.5780  0.0860
19578TIP3   OH280224   0.589   5.445  11.433  0.3139 -0.6425  0.5579
19578TIP3    H180225   0.501   5.462  11.467  0.6413 -0.1436  1.1642
19578TIP3    H280226   0.581   5.361  11.387 -0.3606 -0.8501  1.0382
19579TIP3   OH280227   1.125   1.326  11.300  0.4470 -0.3307 -0.1309
19579TIP3    H180228   1.042   1.372  11.286  1.0566  1.0140  0.4558
19579TIP3    H280229   1.184   1.361  11.234  1.4718  1.2471  1.5250
19580TIP3   OH280230   1.388   2.761   1.286  0.6802  0.2232  0.1947
19580TIP3    H180231   1.309   2.748   1.234  1.0179 -0.8874 -0.0673
19580TIP3    H280232   1.357   2.802   1.367 -0.0866  0.3054 -0.1373
19581TIP3   OH280233   2.492   3.199  13.844 -0.2302 -0.4029 -0.2872
19581TIP3    H180234   2.476   3.251  13.766 -0.4900  1.1215  0.7398
19581TIP3    H280235   2.557   3.134  13.817  0.3552  0.6613 -1.5369
19582TIP3   OH280236   5.443   0.671   0.484  0.1827  0.0556 -0.6344
19582TIP3    H180237   5.415   0.756   0.450  1.2545 -0.0388 -1.8131
19582TIP3    H280238   5.498   0.634   0.415  1.0465 -0.9027  0.5179
19583TIP3   OH280239   6.426   0.736   3.362  0.3575  0.1391 -0.4080
19583TIP3    H180240   6.413   0.651   3.404  0.0382  0.5290  0.3076
19583TIP3    H280241   6.519   0.740   3.341  1.0138  0.7979  2.2424
19584TIP3   OH280242   3.753   6.370  16.573  0.5624 -0.4032  0.4950
19584TIP3    H180243   3.714   6.366  16.486 -0.8785 -1.5303  1.1497
19584TIP3    H280244   3.679   6.365  16.633  1.6368 -1.6985  1.7997
19585TIP3   OH280245   3.898   0.375   5.274  0.1128  0.1047 -0.2692
19585TIP3    H180246   3.864   0.286   5.263  0.6369 -0.1740  0.2961
19585TIP3    H280247   3.970   0.365   5.336 -0.0522  0.9805  0.0719
19586TIP3   OH280248   1.163   4.586   3.994  0.0523  0.0409  0.2999
19586TIP3    H180249   1.167   4.639   4.074 -1.1653 -1.0019  1.1025
19586TIP3    H280250   1.188   4.498   4.023 -0.0828 -0.2833 -0.5452
19587TIP3   OH280251   6.477   3.199  13.051 -0.0573 -0.5494 -0.5625
19587TIP3    H180252   6.426   3.238  13.122 -0.8151  1.7973 -2.2815
19587TIP3    H280253   6.411   3.157  12.996 -0.1052  1.5080 -2.1811
19588TIP3   OH280254   3.720   3.320   0.209  0.3540  0.0191  0.5893
19588TIP3    H180255   3.778   3.372   0.152 -1.9336 -0.4517 -2.4519
19588TIP3    H280256   3.774   3.299   0.285  3.9102  0.3112 -1.5949
19589TIP3   OH280257   2.217   2.042  13.446  0.0129  0.3355 -0.8516
19589TIP3    H180258   2.256   2.114  13.397  1.7203  0.5947  0.8264
19589TIP3    H280259   2.269   1.965  13.422 -0.8858 -0.1039 -1.5032
19590TIP3   OH280260   4.375   1.989  16.390  0.1074 -0.5987 -0.5946
19590TIP3    H180261   4.428   2.068  16.378 -0.0081 -0.6423 -1.3917
19590TIP3    H280262   4.307   1.995  16.323 -0.3974 -0.9644 -0.1227
19591TIP3   OH280263   0.024   2.068   0.005 -0.5241  0.3578  0.1617
19591TIP3    H180264   0.108   2.084  -0.037 -0.8534  0.7785 -0.3574
19591TIP3    H280265   0.045   2.019   0.084  0.3919  2.1997  1.1040
19592TIP3   OH280266   6.649   1.149  12.654  0.1672  0.5197  0.1326
19592TIP3    H180267   6.724   1.091  12.669 -0.9858 -1.3811 -1.0779
19592TIP3    H280268   6.664   1.185  12.567 -0.0015  0.6268  0.1482
19593TIP3   OH280269   3.632   3.181   3.128 -0.2219 -0.3354  0.0345
19593TIP3    H180270   3.569   3.128   3.080 -0.8967  1.5538 -1.2868
19593TIP3    H280271   3.717   3.158   3.090 -0.5011 -0.4805 -0.5102
19594TIP3   OH280272   4.530   6.422   0.084  0.0779 -0.0815  0.7024
19594TIP3    H180273   4.602   6.366   0.055  0.0758 -0.5073  1.4978
19594TIP3    H280274   4.559   6.511   0.063  1.7501 -0.0476  2.8394
19595TIP3   OH280275   5.380   0.494  14.145 -0.1357  0.4684  0.1810
19595TIP3    H180276   5.301   0.541  14.173  0.8277  2.8876 -0.9168
19595TIP3    H280277   5.438   0.495  14.220 -0.8652 -0.7878  0.7961
19596TIP3   OH280278   5.676   1.697  16.323 -0.6692 -0.1190  0.0232
19596TIP3    H180279   5.683   1.793  16.330 -1.0638 -0.0449 -0.5146
19596TIP3    H280280   5.757   1.664  16.361 -1.2736  0.3515  1.8468
19597TIP3   OH280281   6.248   1.742   5.563  0.0274 -0.0262  0.3018
19597TIP3    H180282   6.335   1.777   5.545 -0.0911 -0.2777 -0.8784
19597TIP3    H280283   6.248   1.655   5.523 -1.0161  0.2972 -0.4461
19598TIP3   OH280284   3.987   1.565  12.133  0.1755  0.4998 -0.1560
19598TIP3    H180285   3.937   1.484  12.143  0.5665  0.1569 -0.9312
19598TIP3    H280286   4.071   1.537  12.097  0.1149  1.3006 -0.9440
19599TIP3   OH280287   0.028   0.113   4.959 -0.2644 -0.0252 -0.1914
19599TIP3    H180288   0.064   0.036   4.916 -0.1266 -0.2473  0.3114
19599TIP3    H280289   0.017   0.086   5.051  0.8871  0.9183  0.2521
19600TIP3   OH280290   0.316   5.258  15.854 -0.1361 -0.5273 -0.0139
19600TIP3    H180291   0.253   5.192  15.883 -1.8267  0.7134 -0.6875
19600TIP3    H280292   0.262   5.333  15.828  1.6615  0.8037 -0.1116
19601TIP3   OH280293   0.644   0.046  16.613  0.0589 -0.0070 -0.0968
19601TIP3    H180294   0.718   0.070  16.668 -0.1872  0.0690  0.2024
19601TIP3    H280295   0.682   0.034  16.526  0.3894  0.2225  0.0137
19602TIP3   OH280296   0.165   6.362  11.448 -0.4543 -0.3208 -0.0545
19602TIP3    H180297   0.192   6.313  11.526 -0.8886 -0.1705  0.1922
19602TIP3    H280298   0.222   6.328  11.379  0.1691 -0.2181  0.3911
19603TIP3   OH280299   1.460   0.018   3.086 -0.4120  0.3541  0.0635
19603TIP3    H180300   1.448   0.108   3.114  0.4922  0.3669  0.4199
19603TIP3    H280301   1.525   0.022   3.016  0.2332 -0.1048  0.6275
19604TIP3   OH280302   4.815   3.482  15.978  0.5641 -0.0159  0.1160
19604TIP3    H180303   4.815   3.397  16.021 -1.6620  0.3364  0.9282
19604TIP3    H280304   4.742   3.479  15.916  0.9760  1.0154 -0.4577
19605TIP3   OH280305   2.607   2.156   1.563 -0.0192  0.4877  0.3162
19605TIP3    H180306   2.580   2.068   1.541  1.5294 -0.2480  1.1667
19605TIP3    H280307   2.584   2.209   1.486 -0.5491 -0.7300 -0.3802
19606TIP3   OH280308   6.639   1.339   5.696 -0.3228 -0.0362 -0.1944
19606TIP3    H180309   6.701   1.279   5.654 -1.0954 -1.2931  0.3898
19606TIP3    H280310   6.564   1.284   5.717 -1.9810  1.5877 -1.5556
19607TIP3   OH280311   4.207   3.471  11.635  0.0051 -0.0120 -0.4933
19607TIP3    H180312   4.131   3.525  11.656 -0.6829 -0.1660 -2.3471
19607TIP3    H280313   4.171   3.384  11.616  0.7972 -0.4211 -0.1914
19608TIP3   OH280314   6.805   0.617  15.912  0.0030  0.3566 -0.3688
19608TIP3    H180315   6.789   0.700  15.866  3.3711  0.3574 -1.8611
19608TIP3    H280316   6.867   0.640  15.981  0.7146 -0.8333 -0.5878
19609TIP3   OH280317   6.106   3.135   3.326  0.6151  0.1192 -0.0312
19609TIP3    H180318   6.165   3.210   3.334  1.5952 -0.5154 -1.0054
19609TIP3    H280319   6.082   3.134   3.233  1.6202 -1.4940 -0.2950
19610TIP3   OH280320   5.368   3.040  16.991  0.1119 -0.1663  0.4462
19610TIP3    H180321   5.293   3.080  16.946  0.6553 -1.4086 -1.7011
19610TIP3    H280322   5.431   3.111  17.000 -0.5664  0.4376  0.5535
19611TIP3   OH280323   5.731   6.202  14.258  0.0651 -0.0297  0.4549
19611TIP3    H180324   5.756   6.196  14.165 -0.0406 -1.0885  0.4797
19611TIP3    H280325   5.697   6.115  14.279  0.4680  0.0725  1.6038
19612TIP3   OH280326   4.424   4.850   3.850  0.1583  0.0280 -0.2869
19612TIP3    H180327   4.333   4.820   3.843  0.5219 -1.1876 -0.1022
19612TIP3    H280328   4.417   4.941   3.878 -1.0042 -0.4018  0.9780
19613TIP3   OH280329   6.111   3.962   5.004  0.2858 -0.1909 -0.1357
19613TIP3    H180330   6.163   3.976   5.084  0.7099 -1.6212 -0.1237
19613TIP3    H280331   6.049   4.034   5.003 -0.8894 -1.0511  2.4463
19614TIP3   OH280332   6.469   3.685  12.185 -0.4365 -0.1564 -0.2593
19614TIP3    H180333   6.500   3.611  12.236 -1.9565 -2.1638 -2.0663
19614TIP3    H280334   6.374   3.685  12.198 -0.5766  0.7889 -1.1602
19615TIP3   OH280335   3.600   2.426  10.535  0.0061  0.0474 -0.4310
19615TIP3    H180336   3.676   2.484  10.538 -0.2833  0.5188 -1.7670
19615TIP3    H280337   3.580   2.408  10.627  0.0177  2.1870  0.0255
19616TIP3   OH280338   1.406   3.096   5.495 -0.3504  0.0529  0.0946
19616TIP3    H180339   1.481   3.081   5.552  0.3481  2.1238 -0.2018
19616TIP3    H280340   1.434   3.064   5.410 -1.3573 -2.9513  0.7650
19617TIP3   OH280341   2.388   1.603   1.896  0.0821  0.1422 -0.0342
19617TIP3    H180342   2.405   1.626   1.805  0.6303 -1.0562 -0.2550
19617TIP3    H280343   2.295   1.621   1.909  0.1260  0.8433 -0.6605
19618TIP3   OH280344   1.624   2.773   4.993 -0.0574 -0.3694  0.3346
19618TIP3    H180345   1.675   2.854   5.002 -1.3223  0.3812  0.9162
19618TIP3    H280346   1.635   2.728   5.077  2.5241 -2.0135 -0.7198
19619TIP3   OH280347   5.471   3.145   4.873 -0.3578  0.3377  0.1765
19619TIP3    H180348   5.536   3.215   4.875  0.5753 -0.5188  1.3172
19619TIP3    H280349   5.449   3.136   4.780  2.9410 -0.8857 -0.6419
19620TIP3   OH280350   3.436   4.099   0.576  0.2391  0.1852 -0.1054
19620TIP3    H180351   3.395   4.175   0.536  0.9597  1.6535  1.7477
19620TIP3    H280352   3.363   4.044   0.604 -0.3651  1.0691  0.0912
19621TIP3   OH280353   0.896   6.779  16.761 -0.3359  0.5431  0.2238
19621TIP3    H180354   0.981   6.759  16.800  1.0818  1.6604 -2.0790
19621TIP3    H280355   0.836   6.717  16.803  1.8672 -1.2917  0.9147
19622TIP3   OH280356   1.061   1.824   5.420  0.2034  0.1022 -0.5675
19622TIP3    H180357   1.062   1.836   5.325  0.4782  1.8815 -0.3758
19622TIP3    H280358   1.148   1.852   5.449  0.5519 -1.5737  0.1212
19623TIP3   OH280359   4.094   1.843  16.216 -0.5349  0.6590 -0.1306
19623TIP3    H180360   4.047   1.788  16.279 -2.5889 -1.0490 -2.9126
19623TIP3    H280361   4.165   1.788  16.185 -0.8045  0.6786 -0.7895
19624TIP3   OH280362   1.804   3.422   1.381 -0.4638 -0.2366 -0.3037
19624TIP3    H180363   1.787   3.462   1.296  1.6967  0.4390 -0.4571
19624TIP3    H280364   1.726   3.443   1.433 -0.2729  2.4766 -0.9952
19625TIP3   OH280365   5.690   4.657   0.988  0.2016  0.0214 -0.0125
19625TIP3    H180366   5.702   4.650   0.893  1.1922 -2.1929  0.2156
19625TIP3    H280367   5.597   4.635   1.001  0.2964 -0.6276 -0.3953
19626TIP3   OH280368   4.337   5.705   5.598  0.9858  0.6455  0.2002
19626TIP3    H180369   4.328   5.676   5.507 -0.5792  0.6508  0.3265
19626TIP3    H280370   4.285   5.785   5.604 -1.7583 -1.0864  1.8263
19627TIP3   OH280371   2.412   5.410  13.823 -0.3986  0.4861 -0.1921
19627TIP3    H180372   2.443   5.354  13.894 -0.1606  1.0186  0.1363
19627TIP3    H280373   2.388   5.350  13.753 -2.2325 -0.1652  0.9377
19628TIP3   OH280374   2.711   3.700   5.519  0.1447 -0.4271 -0.4309
19628TIP3    H180375   2.792   3.657   5.545  0.3952  0.2703 -0.0384
19628TIP3    H280376   2.683   3.653   5.440 -0.7327 -2.7292  1.1206
19629TIP3   OH280377   2.395   5.978   2.768  0.0898 -0.0027 -0.6715
19629TIP3    H180378   2.301   5.962   2.762  0.1006 -0.3936  0.1520
19629TIP3    H280379   2.434   5.891   2.775  0.3300  0.2274  1.3632
19630TIP3   OH280380   0.074   3.737   2.891  1.0195  0.1893 -0.3046
19630TIP3    H180381   0.162   3.705   2.913  0.9308  0.4879  0.5053
19630TIP3    H280382   0.046   3.786   2.968  0.2159  0.2637 -0.6336
19631TIP3   OH280383   0.283   1.007  16.155  0.0680 -0.1420  0.6598
19631TIP3    H180384   0.347   0.982  16.222  0.5515  1.0217  0.6620
19631TIP3    H280385   0.218   1.060  16.203  0.3021  0.5198  0.2658
19632TIP3   OH280386   4.146   6.788  16.429 -0.1920  0.6152 -0.0717
19632TIP3    H180387   4.070   6.842  16.452  0.3340  1.6429 -0.6718
19632TIP3    H280388   4.116   6.698  16.440 -1.2374  1.0227  0.5042
19633TIP3   OH280389   5.576   6.323  10.941  0.2657  0.0063 -0.0644
19633TIP3    H180390   5.602   6.231  10.941  1.6435  0.3615 -0.9816
19633TIP3    H280391   5.524   6.333  10.861  1.8729  0.4358 -1.1117
19634TIP3   OH280392   1.000   3.664   2.793  1.0149  0.3143 -0.4979
19634TIP3    H180393   0.969   3.755   2.797 -0.5614 -0.2079 -0.0916
19634TIP3    H280394   1.060   3.656   2.867 -1.7228  0.0804  1.9050
19635TIP3   OH280395   3.795   2.656  13.737 -0.4322 -0.2325 -1.2495
19635TIP3    H180396   3.835   2.635  13.653  2.1781 -1.2280  0.0993
19635TIP3    H280397   3.800   2.752  13.743 -2.1216  0.0015 -2.8200
19636TIP3   OH280398   4.439   3.371   5.532  0.1548 -0.1427 -0.2504
19636TIP3    H180399   4.401   3.458   5.519 -0.0043 -0.0992  0.4578
19636TIP3    H280400   4.448   3.336   5.443 -0.6449  0.2284 -0.4959
19637TIP3   OH280401   3.957   6.450   3.245 -0.0330  0.0271 -0.1225
19637TIP3    H180402   3.896   6.492   3.306 -0.1171  0.2711 -0.3716
19637TIP3    H280403   3.901   6.393   3.192 -0.4320  1.8755 -1.8218
19638TIP3   OH280404   6.488   2.000  13.685 -0.0390  0.3485 -0.4396
19638TIP3    H180405   6.579   1.986  13.659  1.0598  1.7804  2.2841
19638TIP3    H280406   6.464   1.923  13.735 -0.1901  0.1641 -0.7931
19639TIP3   OH280407   3.717   1.198  15.877  0.5430  0.3466 -0.0097
19639TIP3    H180408   3.790   1.152  15.836 -0.7912 -0.1501 -1.9855
19639TIP3    H280409   3.712   1.282  15.830  0.7564  1.0205  1.1403
19640TIP3   OH280410   0.027   5.968  10.844  0.0965 -0.2101  0.2076
19640TIP3    H180411  -0.050   6.000  10.797  1.4648  0.3635 -1.7728
19640TIP3    H280412   0.015   5.998  10.934 -2.2044 -0.5757  0.0596
19641TIP3   OH280413   4.459   1.593  15.386 -0.7601 -0.0042 -0.0443
19641TIP3    H180414   4.375   1.555  15.362 -0.6219 -0.3978  0.0821
19641TIP3    H280415   4.501   1.615  15.302 -1.7830  2.0050 -0.0950
19642TIP3   OH280416   0.351   5.423   3.692  0.5374  0.6865 -0.0746
19642TIP3    H180417   0.383   5.445   3.779 -0.4420 -0.2307  0.5565
19642TIP3    H280418   0.348   5.327   3.691  0.9179  0.6640 -1.2761
19643TIP3   OH280419   2.622   0.096   5.877 -0.4591 -0.0900  0.1775
19643TIP3    H180420   2.587   0.098   5.787  1.9067  1.7830 -0.8187
19643TIP3    H280421   2.620   0.004   5.902 -0.3016 -0.8033 -2.1988
19644TIP3   OH280422   2.221   2.643  11.974  0.1843  0.4593  0.4400
19644TIP3    H180423   2.293   2.662  12.033  0.5166 -1.4149  0.6868
19644TIP3    H280424   2.183   2.561  12.007  1.0132 -1.2416 -2.4692
19645TIP3   OH280425   5.605   4.410   5.125 -0.2935  0.3266 -0.2241
19645TIP3    H180426   5.539   4.346   5.098  0.2622 -0.2364 -0.2614
19645TIP3    H280427   5.660   4.422   5.048 -0.0747  0.4523 -0.0496
19646TIP3   OH280428   5.195   5.954   1.110 -0.2580 -0.1174 -0.0302
19646TIP3    H180429   5.208   5.926   1.200 -0.3595 -0.9901 -0.2825
19646TIP3    H280430   5.192   5.873   1.059 -0.0729  0.3688 -0.8381
19647TIP3   OH280431   0.571   0.107  11.797 -0.1416  0.7379  0.0762
19647TIP3    H180432   0.485   0.149  11.805  0.0714  0.7297  3.8914
19647TIP3    H280433   0.563   0.025  11.846  1.4513 -0.3860 -1.4131
19648TIP3   OH280434   2.288   0.670  15.316 -0.4626  0.0347 -0.1966
19648TIP3    H180435   2.351   0.742  15.307 -2.4550  1.9829  0.2713
19648TIP3    H280436   2.241   0.669  15.232 -0.2794 -0.9280 -0.2953
19649TIP3   OH280437   5.644   4.179  15.174 -0.4130  0.0706 -0.3287
19649TIP3    H180438   5.572   4.236  15.148 -2.2841 -1.1944  1.7407
19649TIP3    H280439   5.666   4.208  15.263  1.4235  0.1680 -0.7733
19650TIP3   OH280440   3.752   4.210  15.529 -0.2488 -0.7982  0.1320
19650TIP3    H180441   3.701   4.129  15.535 -1.1223 -0.2923 -0.3283
19650TIP3    H280442   3.753   4.230  15.435  0.0233 -0.3029  0.2391
19651TIP3   OH280443   3.266   3.632   5.148  0.8627 -0.8101  0.2662
19651TIP3    H180444   3.349   3.664   5.183  1.6066 -2.0667 -0.2676
19651TIP3    H280445   3.291   3.559   5.091 -0.6367 -1.4411  0.3766
19652TIP3   OH280446   2.847   1.594   1.130  0.0871  0.5636  0.3554
19652TIP3    H180447   2.912   1.607   1.199  1.3041 -0.1193 -0.6186
19652TIP3    H280448   2.898   1.565   1.055 -1.5110 -1.4429 -0.0213
19653TIP3   OH280449   6.677   1.041  12.241  0.3596 -0.1992  0.1632
19653TIP3    H180450   6.659   1.007  12.329  0.4125  0.2081  0.3297
19653TIP3    H280451   6.744   1.108  12.253  0.2275 -0.0042 -0.1631
19654TIP3   OH280452   1.838   5.592   5.300 -1.0634  0.2301  0.1127
19654TIP3    H180453   1.779   5.667   5.301  0.5747  1.5472  0.1324
19654TIP3    H280454   1.850   5.570   5.393 -0.9405  0.4263  0.1434
19655TIP3   OH280455   5.798   4.619   6.422  0.1864 -0.1996 -0.3245
19655TIP3    H180456   5.721   4.654   6.466  0.5042  0.0431  0.0475
19655TIP3    H280457   5.764   4.576   6.344 -0.2817  0.3547 -0.4340
19656TIP3   OH280458   3.928   4.859  11.482 -0.1224  0.0806 -0.1174
19656TIP3    H180459   4.011   4.825  11.449 -0.1721  0.3410 -0.5276
19656TIP3    H280460   3.862   4.798  11.450 -0.2873  0.9114 -1.4558
19657TIP3   OH280461   6.525   2.589   1.268  0.2353  0.4613  0.2451
19657TIP3    H180462   6.606   2.623   1.228 -0.0770  0.9288 -0.0099
19657TIP3    H280463   6.478   2.549   1.195  0.0890  0.4809  0.3290
19658TIP3   OH280464   0.690   2.252   3.906  0.1681 -0.5624 -0.2733
19658TIP3    H180465   0.707   2.295   3.990 -1.8787  0.2980 -0.2294
19658TIP3    H280466   0.776   2.239   3.867  1.0455  0.7327  1.1305
19659TIP3   OH280467   5.632   4.350   3.236  0.1984  0.5248 -0.7098
19659TIP3    H180468   5.579   4.271   3.245  1.4674 -0.3606 -0.6220
19659TIP3    H280469   5.707   4.322   3.183  1.4993  1.2444  0.6818
19660TIP3   OH280470   6.480   1.267   1.548 -0.1574 -0.1742 -0.5100
19660TIP3    H180471   6.412   1.289   1.611 -3.0758 -0.8666 -3.1933
19660TIP3    H280472   6.501   1.175   1.565 -1.9692 -0.7809 -1.3606
19661TIP3   OH280473   4.815   3.505  14.901 -0.1409 -0.5287 -0.1059
19661TIP3    H180474   4.799   3.558  14.979  0.2726 -1.5350  0.6792
19661TIP3    H280475   4.792   3.562  14.828 -2.1604 -0.1090  0.7959
19662TIP3   OH280476   6.147   6.463   6.047 -0.2616  0.2438 -0.3441
19662TIP3    H180477   6.154   6.557   6.060 -0.3015  0.5808 -2.4244
19662TIP3    H280478   6.068   6.438   6.095 -0.6282  1.4023 -0.3099
19663TIP3   OH280479   4.217   1.484  12.701  0.0392  0.3339  0.3490
19663TIP3    H180480   4.275   1.408  12.703 -1.1365 -0.6016  2.3432
19663TIP3    H280481   4.273   1.556  12.673  1.3343 -1.1328 -1.0005
19664TIP3   OH280482   2.344   6.166   4.828 -0.4685  0.5928 -0.2718
19664TIP3    H180483   2.354   6.086   4.777 -1.3516  1.0812 -1.2397
19664TIP3    H280484   2.418   6.221   4.802 -0.7739  0.7381 -0.8424
19665TIP3   OH280485   2.833   3.186  15.159  0.4533  0.4020 -0.2136
19665TIP3    H180486   2.905   3.172  15.221  1.7009  0.6167 -1.5728
19665TIP3    H280487   2.844   3.118  15.094  0.1473  1.1673 -1.0853
19666TIP3   OH280488   3.981   1.482   4.732 -0.8404 -0.2936 -0.0816
19666TIP3    H180489   3.998   1.418   4.662  0.6913 -1.3021  1.1438
19666TIP3    H280490   3.886   1.488   4.736 -1.0570 -2.8045 -0.0271
19667TIP3   OH280491   1.034   3.940   1.559 -0.4139 -0.0101  0.5724
19667TIP3    H180492   1.011   3.980   1.643  1.8364  0.8228  0.8681
19667TIP3    H280493   1.017   4.008   1.494 -1.5052 -0.4180  0.4137
19668TIP3   OH280494   5.560   6.644   3.871 -0.2351  0.0942  0.2203
19668TIP3    H180495   5.617   6.640   3.794 -0.7892  1.1631 -0.2716
19668TIP3    H280496   5.614   6.612   3.943  0.6192  0.0447 -0.4268
19669TIP3   OH280497   6.293   0.867   1.611 -0.8475 -0.5764  0.0539
19669TIP3    H180498   6.254   0.952   1.632  2.0730  0.8178  0.3259
19669TIP3    H280499   6.259   0.847   1.523 -0.7525  1.4365 -0.4952
19670TIP3   OH280500   5.698   2.584   4.193 -0.3539 -0.8123  0.4152
19670TIP3    H180501   5.747   2.638   4.131 -2.0487  0.0371 -0.2301
19670TIP3    H280502   5.763   2.559   4.259  0.7952  0.8310 -0.0430
19671TIP3   OH280503   0.037   0.047   4.485  1.1322  0.0628  0.0673
19671TIP3    H180504   0.094   0.082   4.416  0.4925  0.4237 -0.2870
19671TIP3    H280505  -0.002   0.125   4.525 -0.7393 -0.2276 -1.0953
19672TIP3   OH280506   2.985   3.008   4.144  0.3397 -0.9420  0.3322
19672TIP3    H180507   2.911   2.993   4.085  0.1079 -0.3970  0.4688
19672TIP3    H280508   3.041   3.069   4.097  0.0454 -0.3327  0.7459
19673TIP3   OH280509   2.798   6.562   1.764  0.3200  0.4032 -0.2709
19673TIP3    H180510   2.876   6.534   1.716  1.7266 -0.2409  2.2196
19673TIP3    H280511   2.765   6.483   1.805  0.6750  1.2774  1.8243
19674TIP3   OH280512   4.050   0.543   6.362 -0.6531 -0.1935 -0.4134
19674TIP3    H180513   4.037   0.617   6.303  1.7995 -0.4372 -1.3359
19674TIP3    H280514   3.981   0.481   6.338  0.3322 -0.3382 -3.1693
19675TIP3   OH280515   0.116   6.076  13.907 -0.6140  0.3707 -0.2430
19675TIP3    H180516   0.148   5.985  13.907 -0.1401  0.5292  0.0037
19675TIP3    H280517   0.033   6.073  13.860 -0.3516 -0.1058 -0.6872
19676TIP3   OH280518   6.320   2.224   1.260 -0.2793 -0.3493  0.3263
19676TIP3    H180519   6.394   2.270   1.221  1.3836 -2.2104  1.0991
19676TIP3    H280520   6.340   2.131   1.249 -2.7546 -0.9597  0.1700
19677TIP3   OH280521   5.627   6.194  14.797 -0.0676  0.1477  0.7273
19677TIP3    H180522   5.697   6.213  14.735 -0.2866 -0.8730  0.1491
19677TIP3    H280523   5.562   6.264  14.783  0.2537  0.3807  0.3827
19678TIP3   OH280524   5.345   2.815   2.775  0.0528  0.2361  0.3543
19678TIP3    H180525   5.250   2.822   2.790  0.1712 -0.1024  1.3317
19678TIP3    H280526   5.383   2.886   2.826  0.3883 -0.1898  0.7049
19679TIP3   OH280527   2.835   2.227  15.337  0.0860  0.2916 -0.1616
19679TIP3    H180528   2.777   2.151  15.336 -1.7930  1.6498 -0.6583
19679TIP3    H280529   2.851   2.246  15.245  1.8929 -0.4425 -0.0221
19680TIP3   OH280530   2.276   0.338  16.097  0.1122  0.1767 -0.6086
19680TIP3    H180531   2.345   0.290  16.142  0.2201  1.2749  0.4543
19680TIP3    H280532   2.205   0.275  16.085  0.7739 -0.5970 -0.4991
19681TIP3   OH280533   6.631   2.283   6.515 -0.0183 -0.5513 -0.5144
19681TIP3    H180534   6.558   2.302   6.573 -2.0822 -1.1739 -2.7381
19681TIP3    H280535   6.676   2.210   6.556 -1.5907 -1.1928  0.1643
19682TIP3   OH280536   4.161   0.918  10.485  0.1336 -0.3754  0.0306
19682TIP3    H180537   4.217   0.849  10.520  0.4840 -0.4990 -0.7696
19682TIP3    H280538   4.222   0.988  10.460 -0.3025  1.0206  2.4796
19683TIP3   OH280539   1.918   3.260  12.219 -0.0478 -0.2359  0.3860
19683TIP3    H180540   1.903   3.332  12.279  0.8808  0.1135  0.2069
19683TIP3    H280541   1.991   3.289  12.164  1.0364 -1.7087  0.9808
19684TIP3   OH280542   6.743   3.173  12.726 -0.2192  0.2288  0.1576
19684TIP3    H180543   6.814   3.148  12.667  0.1249 -0.9791  1.0567
19684TIP3    H280544   6.786   3.191  12.809 -0.7596  1.4763  0.1947
19685TIP3   OH280545   3.668   6.018  13.160 -0.5404  0.3347  0.3650
19685TIP3    H180546   3.645   5.936  13.204  1.6967 -0.9114 -0.6024
19685TIP3    H280547   3.749   6.045  13.202 -0.2766  1.0535 -0.5698
19686TIP3   OH280548   2.123   4.102   2.086  0.3168 -0.0209 -0.0941
19686TIP3    H180549   2.136   4.057   2.002  0.2977 -3.0768  1.4031
19686TIP3    H280550   2.191   4.065   2.143 -0.9130  0.4728  1.7743
19687TIP3   OH280551   0.324   5.429  12.520 -0.0035  0.2938  0.5649
19687TIP3    H180552   0.241   5.461  12.484  1.6271  0.9523 -3.0571
19687TIP3    H280553   0.389   5.491  12.489  2.1150 -1.1935  1.7660
19688TIP3   OH280554   6.719   0.123   2.408  0.0930 -0.4785 -0.0115
19688TIP3    H180555   6.790   0.118   2.344  1.1527  1.3659  0.9149
19688TIP3    H280556   6.688   0.213   2.401  0.3705 -0.1518  2.1342
19689TIP3   OH280557   4.779   6.145  11.882  0.0225  0.5204 -0.1895
19689TIP3    H180558   4.840   6.181  11.945 -0.5011  0.2093  0.5140
19689TIP3    H280559   4.705   6.206  11.882  1.6516  2.8325 -3.5422
19690TIP3   OH280560   0.671   3.111  13.639  0.1014  0.4767  0.4943
19690TIP3    H180561   0.765   3.108  13.652  0.2617 -0.5715 -0.7369
19690TIP3    H280562   0.649   3.027  13.600 -1.2771  0.8764  0.3492
19691TIP3   OH280563   5.911   0.108   1.222  0.2286 -0.6658  0.3965
19691TIP3    H180564   5.982   0.060   1.265 -0.0215  0.3746  2.0986
19691TIP3    H280565   5.874   0.162   1.292 -1.2845 -0.0824 -0.8025
19692TIP3   OH280566   0.221   3.591  13.425 -0.3101  0.0035 -0.0892
19692TIP3    H180567   0.167   3.571  13.348 -1.1656  0.9607  0.2412
19692TIP3    H280568   0.159   3.624  13.490  0.5265  0.0386  0.7069
19693TIP3   OH280569   4.299   6.561   1.133 -0.0828  0.0116 -0.6430
19693TIP3    H180570   4.224   6.538   1.189 -0.1907 -1.3928 -1.3223
19693TIP3    H280571   4.317   6.652   1.154 -0.1530 -0.4359  1.6628
19694TIP3   OH280572   3.990   2.272   5.763 -0.2505  0.5623  0.1552
19694TIP3    H180573   3.980   2.359   5.724 -1.7621  0.4956  0.3237
19694TIP3    H280574   3.966   2.211   5.693 -1.5597  0.3930  0.7133
19695TIP3   OH280575   3.226   5.434   4.435 -0.0824 -0.1807 -0.3197
19695TIP3    H180576   3.165   5.363   4.450  0.3528 -0.6237 -0.6184
19695TIP3    H280577   3.297   5.419   4.497 -0.4094  0.5063  0.2422
19696TIP3   OH280578   4.163   2.326  15.344 -0.6876  0.2732 -0.2218
19696TIP3    H180579   4.169   2.277  15.262  1.8387 -0.1021  0.0969
19696TIP3    H280580   4.182   2.417  15.319  0.1543  0.1474 -0.0830
19697TIP3   OH280581   2.286   5.146   5.483  0.3724 -0.3103 -0.3781
19697TIP3    H180582   2.317   5.180   5.566  0.8241  0.6079 -0.9125
19697TIP3    H280583   2.328   5.201   5.417  0.2832 -1.2376 -1.2266
19698TIP3   OH280584   5.760   1.027   2.958 -0.2430 -0.2594 -0.3500
19698TIP3    H180585   5.845   0.983   2.972 -0.1087 -0.8032 -2.5424
19698TIP3    H280586   5.714   1.016   3.042  1.6992 -0.2379  0.7977
19699TIP3   OH280587   2.810   5.647   4.524 -0.1160  0.4176  0.1272
19699TIP3    H180588   2.834   5.734   4.555  1.0707 -0.3160  1.3336
19699TIP3    H280589   2.836   5.587   4.594 -4.1260 -0.6623  1.0049
19700TIP3   OH280590   4.655   2.968  16.546 -0.3148 -0.0021  0.0512
19700TIP3    H180591   4.674   3.024  16.622  2.0100  0.2297 -0.6177
19700TIP3    H280592   4.569   2.930  16.565  0.5046 -0.5883  3.1970
19701TIP3   OH280593   3.919   4.064   2.373 -0.5514  0.2394 -0.0119
19701TIP3    H180594   3.936   4.002   2.444  0.2812 -0.3983 -0.7462
19701TIP3    H280595   3.880   4.011   2.304 -1.4453  0.8742 -0.0074
19702TIP3   OH280596   3.940   1.002  13.058 -1.0745  0.1508  0.2098
19702TIP3    H180597   4.017   0.962  13.018 -1.1707 -0.6311  0.7696
19702TIP3    H280598   3.937   1.090  13.022  1.2647  0.9523  1.6927
19703TIP3   OH280599   3.506   4.979  12.217  0.1608 -0.3900 -0.3856
19703TIP3    H180600   3.456   5.001  12.138  2.4853 -0.1346 -1.8890
19703TIP3    H280601   3.565   4.909  12.189 -1.1357 -2.6837  2.0525
19704TIP3   OH280602   6.352   6.185  13.369 -0.2603  0.1318 -0.4034
19704TIP3    H180603   6.263   6.188  13.336 -0.6944  0.6598  0.7723
19704TIP3    H280604   6.356   6.254  13.435  0.5339 -0.9422  0.7183
19705TIP3   OH280605   2.586   5.651  12.509 -0.6127 -0.2391  0.2841
19705TIP3    H180606   2.634   5.672  12.589 -0.6512 -1.3114  0.5952
19705TIP3    H280607   2.576   5.736  12.465 -1.4437  0.5408  1.8779
19706TIP3   OH280608   3.719   4.902  16.627 -0.0875 -0.6974  0.0863
19706TIP3    H180609   3.753   4.820  16.592  1.2706 -0.5017  0.8801
19706TIP3    H280610   3.793   4.942  16.672 -1.2765 -0.0632  1.5859
19707TIP3   OH280611   5.413   2.342   5.472  0.3680 -0.4055  0.2961
19707TIP3    H180612   5.455   2.261   5.446  1.4956 -0.5963  2.5271
19707TIP3    H280613   5.408   2.394   5.391 -0.1835 -2.5428 -1.1277
19708TIP3   OH280614   6.075   5.960  11.618 -0.2227  1.1299  0.2432
19708TIP3    H180615   6.094   5.928  11.530 -0.6920  1.7597 -0.0943
19708TIP3    H280616   6.155   5.943  11.667  0.0248  0.7228 -0.2879
19709TIP3   OH280617   2.137   5.607  12.474  0.5696 -0.2745 -0.6859
19709TIP3    H180618   2.093   5.603  12.389 -0.8395 -1.8926  0.0580
19709TIP3    H280619   2.220   5.562  12.460  0.9633  0.6703 -1.5176
19710TIP3   OH280620   6.756   2.288   5.634 -0.0227  0.2958 -0.2312
19710TIP3    H180621   6.729   2.314   5.546  0.5299 -1.6292 -1.0375
19710TIP3    H280622   6.784   2.197   5.623 -0.7961 -0.2729  2.1201
19711TIP3   OH280623   6.558   3.505   5.470  0.2942  0.5706  0.1078
19711TIP3    H180624   6.633   3.472   5.420  0.7938 -0.2156  1.3132
19711TIP3    H280625   6.564   3.459   5.554 -3.2860 -1.8704 -0.7732
19712TIP3   OH280626   2.472   6.090   3.510  0.4304  0.0393  0.0990
19712TIP3    H180627   2.434   6.170   3.545  1.4909  0.4609  0.3090
19712TIP3    H280628   2.416   6.020   3.545  0.1349  0.6099  0.7895
19713TIP3   OH280629   1.571   2.753  11.187  0.2260  0.4598  0.1218
19713TIP3    H180630   1.581   2.845  11.213 -1.8251  1.3709 -1.8939
19713TIP3    H280631   1.493   2.723  11.233  0.3353  0.0433  0.0389
19714TIP3   OH280632   2.014   3.973   1.399  0.4055  0.3679 -0.1197
19714TIP3    H180633   2.071   3.903   1.430 -0.5179  0.0133  0.8193
19714TIP3    H280634   1.940   3.927   1.358  0.7078  0.8206 -1.2201
19715TIP3   OH280635   1.175   6.455   4.080  0.0692  0.0283  0.2371
19715TIP3    H180636   1.206   6.365   4.067 -0.8079 -0.0525 -1.5482
19715TIP3    H280637   1.115   6.449   4.155  0.1533 -0.8438  0.2402
19716TIP3   OH280638   3.946   3.289   4.955  0.3551 -0.1162 -0.0036
19716TIP3    H180639   4.017   3.296   4.890 -1.4777 -1.9939 -2.4216
19716TIP3    H280640   3.879   3.350   4.924 -0.1678 -0.3079  0.7216
19717TIP3   OH280641   0.563   3.716  16.325  0.2231  0.4839  0.2024
19717TIP3    H180642   0.627   3.787  16.329  0.4533  0.4907 -2.1772
19717TIP3    H280643   0.543   3.707  16.232  1.7171 -3.8721  0.0657
19718TIP3   OH280644   6.136   4.072   5.325  0.1533  0.2040  0.7030
19718TIP3    H180645   6.157   4.156   5.284  3.6127  0.1496  2.0809
19718TIP3    H280646   6.084   4.095   5.402  1.2700  1.1797  1.2060
19719TIP3   OH280647   2.222   2.636   5.702 -0.0378 -0.0827 -0.6892
19719TIP3    H180648   2.313   2.650   5.675 -0.1339  1.0685 -0.4381
19719TIP3    H280649   2.211   2.541   5.699  1.7191 -0.3971  0.9851
19720TIP3   OH280650   1.178   4.895   3.452  0.1171  0.1879 -0.0812
19720TIP3    H180651   1.235   4.830   3.413  1.6204  0.6823  1.1678
19720TIP3    H280652   1.204   4.898   3.544 -0.6262  1.7869  0.1203
19721TIP3   OH280653   5.677   3.480  14.915  0.1001  0.2151  0.1709
19721TIP3    H180654   5.620   3.436  14.977  0.2861  1.8879  1.6135
19721TIP3    H280655   5.618   3.531  14.860  0.0639  0.2534  0.2453
19722TIP3   OH280656   1.206   3.673   5.540  0.5136  0.0133 -0.2326
19722TIP3    H180657   1.288   3.625   5.555 -0.1206 -1.0345  0.0322
19722TIP3    H280658   1.207   3.694   5.447  0.6618 -0.8395 -0.4378
19723TIP3   OH280659   4.456   4.745  14.659  0.4471  0.3904  0.0715
19723TIP3    H180660   4.433   4.653  14.653  1.5899  0.1117 -0.3389
19723TIP3    H280661   4.383   4.786  14.706 -0.4442 -0.5670 -0.4611
19724TIP3   OH280662   1.740   4.402   2.118 -0.2988  0.2974  0.0083
19724TIP3    H180663   1.694   4.455   2.182 -2.0595 -0.0858 -0.8725
19724TIP3    H280664   1.810   4.359   2.168 -2.7125 -1.4525  2.1580
19725TIP3   OH280665   2.224   5.591  13.874 -0.7229 -0.5883  0.5341
19725TIP3    H180666   2.306   5.545  13.891 -0.4975 -0.9209 -1.2393
19725TIP3    H280667   2.198   5.561  13.787 -1.4292  1.4013  0.0178
19726TIP3   OH280668   5.783   5.874  12.685 -0.0502  0.2433  0.0521
19726TIP3    H180669   5.833   5.940  12.636 -1.9385  1.3838 -0.4274
19726TIP3    H280670   5.765   5.806  12.621  0.2886  0.1690  0.0359
19727TIP3   OH280671   5.234   3.437  15.215  0.0979  0.1407 -0.2607
19727TIP3    H180672   5.146   3.408  15.192 -0.4345  1.2165  0.3002
19727TIP3    H280673   5.223   3.482  15.299  1.2840 -0.1906  0.0935
19728TIP3   OH280674   2.518   2.577   5.620  0.7640 -0.1560  0.5091
19728TIP3    H180675   2.613   2.581   5.621  0.7753  0.8308 -1.0005
19728TIP3    H280676   2.494   2.601   5.530 -0.9031 -0.5148  0.8222
19729TIP3   OH280677   4.723   3.171   1.885 -0.3192 -0.0677  0.1819
19729TIP3    H180678   4.768   3.092   1.857  1.9829  0.4022  2.2401
19729TIP3    H280679   4.740   3.177   1.979 -2.5431  1.5846  0.5679
19730TIP3   OH280680   5.078   6.305   6.225  0.4710 -0.5994 -0.1652
19730TIP3    H180681   5.033   6.388   6.216  2.1927  0.3193 -0.8003
19730TIP3    H280682   5.076   6.266   6.137 -1.4169 -1.8817  0.3787
19731TIP3   OH280683   2.949   4.374   4.464  0.3619  0.4511  0.2210
19731TIP3    H180684   2.873   4.321   4.438 -0.3095  1.3072  0.3970
19731TIP3    H280685   2.930   4.461   4.429  1.2371  0.6934  0.3319
19732TIP3   OH280686   2.120   4.028  15.795  0.1253  0.3399  0.3315
19732TIP3    H180687   2.094   3.966  15.726  1.3523 -0.1223  0.2491
19732TIP3    H280688   2.100   4.114  15.759 -2.2667  0.0066  0.7230
19733TIP3   OH280689   5.965   5.259   3.307  0.3445  0.2185 -0.6312
19733TIP3    H180690   6.004   5.249   3.220 -0.0514  1.8203 -1.0181
19733TIP3    H280691   5.892   5.197   3.307  0.8870 -0.4423 -1.0893
19734TIP3   OH280692   5.794   5.107  14.305 -0.1506  0.3350 -0.2445
19734TIP3    H180693   5.774   5.014  14.296  0.4408  0.2793 -1.0918
19734TIP3    H280694   5.725   5.141  14.362  0.7019 -0.9977  1.6902
19735TIP3   OH280695   6.401   4.549   1.283 -0.1328 -0.0003 -0.6738
19735TIP3    H180696   6.375   4.484   1.218 -3.4711  0.1686  0.2774
19735TIP3    H280697   6.395   4.633   1.237 -0.8768 -0.0069 -0.6002
19736TIP3   OH280698   2.095   5.279   4.382 -0.0934 -0.1718  0.0511
19736TIP3    H180699   2.021   5.319   4.337 -0.2138  0.3266  0.6866
19736TIP3    H280700   2.168   5.286   4.319 -0.7018 -1.1520 -0.7899
19737TIP3   OH280701   1.706   2.380  15.343 -0.5580  0.1651  0.3581
19737TIP3    H180702   1.728   2.323  15.270 -3.1451 -1.4521  0.7279
19737TIP3    H280703   1.788   2.388  15.393  0.7719 -0.2037 -1.6605
19738TIP3   OH280704   6.549   2.285   6.050  0.2267  0.0994  0.2425
19738TIP3    H180705   6.574   2.286   6.142  1.9431 -0.2255 -0.1819
19738TIP3    H280706   6.486   2.213   6.043  1.2392 -0.8793  0.9019
19739TIP3   OH280707   3.819   4.237  11.759  0.4917  0.1506  1.0713
19739TIP3    H180708   3.746   4.237  11.821 -0.4812  0.6405 -0.0307
19739TIP3    H280709   3.897   4.254  11.813 -0.6226  3.4855  1.8559
19740TIP3   OH280710   6.121   4.032   1.809  0.5366 -1.0135 -0.3733
19740TIP3    H180711   6.097   3.952   1.856 -1.0604 -1.4732 -1.8483
19740TIP3    H280712   6.069   4.101   1.850  2.0640 -0.6557  1.0302
19741TIP3   OH280713   5.597   5.020   4.868 -0.0810  0.8489  0.3721
19741TIP3    H180714   5.514   5.013   4.915 -0.4122  2.2194  0.0402
19741TIP3    H280715   5.656   5.062   4.930  0.5988 -0.7369  0.8502
19742TIP3   OH280716   1.093   5.111   1.440 -0.4451 -0.0198  0.7354
19742TIP3    H180717   1.126   5.033   1.395 -3.5266 -1.4535  0.7325
19742TIP3    H280718   1.143   5.113   1.523  1.2573 -0.6184 -0.2188
19743TIP3   OH280719   0.494   0.308   4.202  0.5886  0.0781  0.1436
19743TIP3    H180720   0.469   0.325   4.293  0.0007  0.6153 -0.1055
19743TIP3    H280721   0.531   0.220   4.203 -1.5345 -0.8921  0.5318
19744TIP3   OH280722   1.340   0.393   0.009  0.2085  0.1387  0.2679
19744TIP3    H180723   1.414   0.343   0.043  0.6926 -0.3131 -1.3374
19744TIP3    H280724   1.370   0.484   0.008  0.0779  0.1998  1.2719
19745TIP3   OH280725   3.654   2.786   3.077 -0.1827  0.8738 -0.2346
19745TIP3    H180726   3.703   2.796   2.995 -0.7878  0.1581 -0.6893
19745TIP3    H280727   3.722   2.789   3.145  0.5351 -0.3082 -0.8642
19746TIP3   OH280728   5.923   6.396   4.171 -0.6485  0.8604  0.5636
19746TIP3    H180729   5.972   6.449   4.108 -1.3019  1.5458  0.6185
19746TIP3    H280730   5.831   6.407   4.145 -0.9609  1.4118  1.8102
19747TIP3   OH280731   0.150   3.198  16.724 -0.1608 -0.1697  0.6835
19747TIP3    H180732   0.172   3.109  16.753  0.3979  0.6485  2.9530
19747TIP3    H280733   0.072   3.221  16.774  1.0056  1.4078  1.8910
19748TIP3   OH280734   6.100   5.523  13.283 -0.3848  0.6091 -0.0168
19748TIP3    H180735   6.187   5.559  13.302  0.5297 -0.8508 -1.2534
19748TIP3    H280736   6.080   5.553  13.195 -0.9897  0.6331  0.1250
19749TIP3   OH280737   0.246   5.758   0.568  0.2287  0.0271 -0.2403
19749TIP3    H180738   0.156   5.764   0.537  0.8991  0.6493 -2.2912
19749TIP3    H280739   0.255   5.829   0.631  0.0654  2.0530 -2.3636
19750TIP3   OH280740   0.638   1.764  15.252  0.3705  0.2786  0.1069
19750TIP3    H180741   0.569   1.702  15.228  0.4292 -0.4243  1.6512
19750TIP3    H280742   0.636   1.830  15.182  0.3432 -1.4660 -1.6103
19751TIP3   OH280743   0.899   3.545  16.325 -0.1844  0.0398 -0.8031
19751TIP3    H180744   0.910   3.457  16.288 -0.5585 -0.9787  1.3877
19751TIP3    H280745   0.856   3.595  16.255 -1.7462 -2.0464 -1.4318
19752TIP3   OH280746   5.110   2.820   0.611 -0.3528 -0.7492 -0.2936
19752TIP3    H180747   5.029   2.868   0.593  0.1512  0.8341  1.3762
19752TIP3    H280748   5.154   2.872   0.678  1.3097 -2.4098 -0.0273
19753TIP3   OH280749   4.728   1.468  14.812  0.3309  1.0974  0.2977
19753TIP3    H180750   4.686   1.555  14.810  1.5785  1.7270  0.5045
19753TIP3    H280751   4.725   1.439  14.721 -1.0210  0.8686  0.3840
19754TIP3   OH280752   0.970   3.961  16.992 -0.1967 -0.9734  0.6569
19754TIP3    H180753   0.915   3.884  17.003  0.3535 -1.5251 -0.3121
19754TIP3    H280754   0.909   4.031  16.971 -0.5419 -1.5849 -0.4580
19755TIP3   OH280755   0.926   6.676  15.495 -0.1662 -0.1259 -0.1530
19755TIP3    H180756   0.929   6.624  15.575 -0.6180 -0.1709 -0.1590
19755TIP3    H280757   0.851   6.735  15.508  0.9394  1.2540  0.2872
19756TIP3   OH280758   6.215   0.078  13.415 -0.3542 -0.3801 -0.0038
19756TIP3    H180759   6.254   0.002  13.457  0.0025 -1.4280 -2.1122
19756TIP3    H280760   6.285   0.114  13.361 -1.3296 -0.2857 -1.2521
19757TIP3   OH280761   3.798   2.278  10.396  0.1493  0.1625  0.2343
19757TIP3    H180762   3.731   2.319  10.451  0.3642 -0.9551  1.3927
19757TIP3    H280763   3.761   2.277  10.308 -0.8577  0.6123  0.6413
19758TIP3   OH280764   5.489   2.677   3.277  0.0335  0.0950  0.0680
19758TIP3    H180765   5.430   2.603   3.267 -0.4605  0.5590 -0.5127
19758TIP3    H280766   5.453   2.744   3.220  0.4419  0.8064  0.6262
19759TIP3   OH280767   6.751   0.686  15.530 -0.3651 -0.3311 -0.4148
19759TIP3    H180768   6.796   0.603  15.545 -0.4910 -0.3634 -0.2108
19759TIP3    H280769   6.785   0.744  15.598  0.5246  0.1063 -1.2239
19760TIP3   OH280770   4.395   4.156  16.948 -0.0442  0.0254  0.4270
19760TIP3    H180771   4.327   4.089  16.942 -1.6075  1.5247  0.8559
19760TIP3    H280772   4.415   4.163  17.041 -1.2480  1.4395  0.6038
19761TIP3   OH280773   1.221   0.077  12.200  0.2720  0.0878  0.0561
19761TIP3    H180774   1.225   0.130  12.121  1.3465  1.0048  0.6832
19761TIP3    H280775   1.294   0.108  12.253 -0.9715  0.1627  1.8215
19762TIP3   OH280776   0.559   5.334  16.141 -0.0129  0.0862 -0.0742
19762TIP3    H180777   0.595   5.254  16.178 -0.1189  0.9681  2.0632
19762TIP3    H280778   0.466   5.317  16.131  0.1103 -0.3571 -0.5443
19763TIP3   OH280779   2.787   4.607   4.483  0.3062  0.0865 -0.2475
19763TIP3    H180780   2.722   4.574   4.545  1.0492 -0.1752  0.4042
19763TIP3    H280781   2.752   4.693   4.456 -0.5515 -0.2650 -0.2935
19764TIP3   OH280782   5.307   3.150  15.299 -0.1380  0.0877 -0.2040
19764TIP3    H180783   5.287   3.145  15.205  0.1124 -0.6652 -0.2205
19764TIP3    H280784   5.221   3.142  15.341 -0.3969  1.5944 -0.3770
19765TIP3   OH280785   5.780   0.089   5.335 -0.0127 -0.5470  0.0291
19765TIP3    H180786   5.714   0.151   5.304  0.5283  0.5849  1.0544
19765TIP3    H280787   5.825   0.060   5.256  0.8473  1.6949 -0.3654
19766TIP3   OH280788   1.708   1.479   1.429 -0.1550 -0.3678  0.1312
19766TIP3    H180789   1.762   1.514   1.500  0.0948  0.2503 -0.3521
19766TIP3    H280790   1.712   1.384   1.440 -1.6175 -0.2678  2.0447
19767TIP3   OH280791   3.279   0.050   0.890 -0.2727  0.0752 -0.4230
19767TIP3    H180792   3.318  -0.032   0.860  3.2342  1.3472  0.1151
19767TIP3    H280793   3.233   0.028   0.971  0.9477 -1.3550 -0.0762
19768TIP3   OH280794   6.495   0.888  15.733  0.1298  0.2288  0.4006
19768TIP3    H180795   6.587   0.869  15.716  0.1489  0.1236  0.6174
19768TIP3    H280796   6.495   0.977  15.767 -0.1399  1.3993 -2.3929
19769TIP3   OH280797   3.445   1.316  16.321 -0.1909 -0.2798  0.0951
19769TIP3    H180798   3.397   1.399  16.319  1.3946  0.6730 -1.7851
19769TIP3    H280799   3.537   1.341  16.322  0.3881 -2.0656  2.9601
19770TIP3   OH280800   6.017   5.503  12.489 -0.7404 -0.1091  0.2286
19770TIP3    H180801   6.044   5.426  12.438  1.6550 -0.1963  1.4713
19770TIP3    H280802   5.953   5.469  12.551  0.8914 -1.3894  1.3212
19771TIP3   OH280803   5.969   6.548  13.913 -0.4621 -0.0692 -0.1591
19771TIP3    H180804   5.894   6.538  13.856  0.7295 -1.4355 -1.5910
19771TIP3    H280805   6.024   6.472  13.894  1.5325  1.1361  0.4506
19772TIP3   OH280806   0.737   5.847  11.737 -0.1450  0.0248  0.3806
19772TIP3    H180807   0.756   5.815  11.649 -1.4951 -1.9530  0.7437
19772TIP3    H280808   0.717   5.769  11.788 -0.6032  1.2196  2.1425
19773TIP3   OH280809   4.765   1.901  10.877  0.1859  0.1819 -0.8787
19773TIP3    H180810   4.670   1.898  10.874  0.1772  0.7199 -1.4903
19773TIP3    H280811   4.791   1.816  10.912 -0.5427  0.3638  0.1222
19774TIP3   OH280812   0.603   3.515   4.563  0.8155  0.1146 -0.1507
19774TIP3    H180813   0.624   3.588   4.622  0.1024 -0.2864  0.6277
19774TIP3    H280814   0.555   3.453   4.618  0.2026 -0.3123 -1.1389
19775TIP3   OH280815   1.769   3.332   6.064  0.2547 -0.2426 -0.2580
19775TIP3    H180816   1.720   3.259   6.101  2.2456 -1.6337 -0.2109
19775TIP3    H280817   1.844   3.344   6.122  2.1848 -0.9175 -2.4335
19776TIP3   OH280818   2.816   5.584  11.040 -0.3207  0.0648  0.1683
19776TIP3    H180819   2.907   5.555  11.033  0.0081  0.8686  0.9575
19776TIP3    H280820   2.821   5.668  11.085 -1.3510  0.7839 -0.9955
19777TIP3   OH280821   6.247   1.559  12.265  0.1336  0.7354 -0.2317
19777TIP3    H180822   6.254   1.581  12.358 -1.0183  1.2337 -0.2535
19777TIP3    H280823   6.337   1.541  12.238  0.3895 -0.3066  1.1947
19778TIP3   OH280824   1.037   5.315   4.328 -0.1980  0.7792 -0.5151
19778TIP3    H180825   1.116   5.286   4.282 -0.2607  0.5068 -0.4533
19778TIP3    H280826   0.972   5.247   4.310 -0.3329  0.8560 -0.3260
19779TIP3   OH280827   2.561   3.029  12.427  0.3649 -0.2990 -0.2967
19779TIP3    H180828   2.564   3.119  12.393 -1.8768 -0.1944 -0.3642
19779TIP3    H280829   2.522   2.979  12.355  1.8877 -1.4130 -0.3762
19780TIP3   OH280830   1.072   2.402  12.845 -0.4824 -0.2008 -0.3004
19780TIP3    H180831   1.045   2.474  12.787  0.0356 -0.3432 -0.7238
19780TIP3    H280832   1.094   2.445  12.928  0.5559  0.2289 -0.7832
19781TIP3   OH280833   4.553   0.802  13.284 -0.0003  0.6143 -0.2582
19781TIP3    H180834   4.467   0.790  13.324  0.1079  1.0035  0.1044
19781TIP3    H280835   4.597   0.865  13.341  1.6265 -1.7674  1.2853
19782TIP3   OH280836   2.740   4.508  12.885  0.3501  0.3973  0.1086
19782TIP3    H180837   2.699   4.583  12.928  1.5498  1.6503 -0.8254
19782TIP3    H280838   2.677   4.437  12.895 -0.8205  1.5171  1.0524
19783TIP3   OH280839   6.161   6.812   2.341 -0.1616 -0.4043 -0.6431
19783TIP3    H180840   6.079   6.822   2.293 -0.5745 -0.3349  0.0628
19783TIP3    H280841   6.143   6.849   2.428  0.9382  0.5966 -0.8131
19784TIP3   OH280842   4.527   2.332   6.616  0.3365  0.1113 -0.3374
19784TIP3    H180843   4.435   2.335   6.643 -0.0729 -1.6155 -1.3986
19784TIP3    H280844   4.574   2.300   6.694 -0.2835 -1.0133 -0.3997
19785TIP3   OH280845   1.614   1.735  13.705 -0.3811  0.1336 -0.4729
19785TIP3    H180846   1.589   1.776  13.623  0.8038  0.5815 -0.6346
19785TIP3    H280847   1.536   1.742  13.761 -0.9252  0.5461 -1.2746
19786TIP3   OH280848   0.083   3.679  14.884 -0.4993  0.0696  0.1022
19786TIP3    H180849   0.092   3.631  14.802 -1.0501 -1.0964  0.6941
19786TIP3    H280850   0.028   3.754  14.862  0.1215  0.2838 -0.7782
19787TIP3   OH280851   0.935   6.243   3.904 -0.0690 -0.2462  0.3897
19787TIP3    H180852   0.943   6.176   3.972 -0.0478 -0.3657  0.2698
19787TIP3    H280853   1.022   6.247   3.864  0.4675  1.1348  1.5827
19788TIP3   OH280854   6.709   0.378  14.504  0.7462 -0.2097 -0.1666
19788TIP3    H180855   6.736   0.352  14.592 -0.0294 -0.0733  0.1180
19788TIP3    H280856   6.684   0.297  14.460  0.1771 -0.1695  0.0760
19789TIP3   OH280857   3.170   4.816  13.931  1.2912  0.3318 -0.3019
19789TIP3    H180858   3.084   4.779  13.912  0.3217  2.6528 -0.8221
19789TIP3    H280859   3.222   4.743  13.965 -0.9824 -1.0713  0.3238
19790TIP3   OH280860   3.077   2.253   0.039  0.5631 -0.3694 -0.0802
19790TIP3    H180861   3.142   2.323   0.035  0.5875 -0.4380 -1.4983
19790TIP3    H280862   2.999   2.295   0.075  0.4394  0.5369 -1.3366
19791TIP3   OH280863   5.433   6.606  11.830 -0.1315 -0.1570  0.5098
19791TIP3    H180864   5.471   6.663  11.896  3.5670  0.7513 -2.0707
19791TIP3    H280865   5.357   6.567  11.872 -1.3603  4.5321  3.3589
19792TIP3   OH280866   3.956   1.177  15.753  0.1904  0.3927  0.3377
19792TIP3    H180867   3.965   1.090  15.713  1.5488  0.5810  0.1790
19792TIP3    H280868   3.966   1.238  15.679 -3.0177  0.7199  0.0392
19793TIP3   OH280869   0.528   6.357   4.712 -0.1847  0.1724  0.1563
19793TIP3    H180870   0.588   6.323   4.647 -0.9688  0.7309 -0.8920
19793TIP3    H280871   0.555   6.447   4.726 -1.0637  0.5945 -0.7171
19794TIP3   OH280872   4.475   2.247  16.188 -0.2587 -0.5018  0.1595
19794TIP3    H180873   4.398   2.243  16.131  1.8521  0.5592 -3.0285
19794TIP3    H280874   4.466   2.331  16.234 -1.5330 -0.9290  0.7353
19795TIP3   OH280875   6.201   5.297   2.564 -0.5487  0.1880 -0.2430
19795TIP3    H180876   6.143   5.364   2.600 -0.1575  0.1320  0.5099
19795TIP3    H280877   6.286   5.340   2.557 -0.2528 -0.2822  0.4214
19796TIP3   OH280878   3.167   3.442  13.900 -0.3413  0.2692 -0.1346
19796TIP3    H180879   3.088   3.488  13.873 -0.1171  0.1089 -1.0760
19796TIP3    H280880   3.137   3.353  13.920 -0.5007  0.3807  0.1346
19797TIP3   OH280881   0.830   3.934  15.332  0.2064  0.2710  0.0405
19797TIP3    H180882   0.797   3.889  15.410 -1.1745  0.0888 -0.6184
19797TIP3    H280883   0.818   4.027  15.351  1.9301  0.3625  0.9064
19798TIP3   OH280884   3.806   4.861   4.986 -0.2057  0.2389  0.5857
19798TIP3    H180885   3.737   4.825   4.931 -0.4285  0.8965  0.4238
19798TIP3    H280886   3.818   4.797   5.056  1.0775 -1.3042 -0.9706
19799TIP3   OH280887   5.889   3.194  11.673  0.3865 -0.3609 -0.6003
19799TIP3    H180888   5.889   3.287  11.697  0.9307 -0.2625 -0.9651
19799TIP3    H280889   5.947   3.153  11.737  0.8685 -0.2964 -0.9884
19800TIP3   OH280890   1.232   1.502  12.363 -0.1392 -0.1898  0.2311
19800TIP3    H180891   1.189   1.587  12.351 -0.1075 -0.1224  0.5726
19800TIP3    H280892   1.190   1.445  12.299  0.7714  0.4107 -0.9465
19801TIP3   OH280893   1.019   1.466  11.721  0.3080  0.3186 -0.2875
19801TIP3    H180894   0.956   1.482  11.651  0.2992  1.0255 -0.1240
19801TIP3    H280895   1.075   1.395  11.687  1.3707  1.7548 -1.7405
19802TIP3   OH280896   1.999   3.720   0.383  0.4433  0.1139  0.3590
19802TIP3    H180897   2.047   3.713   0.466  0.3790 -0.8394  0.3173
19802TIP3    H280898   2.063   3.700   0.316  0.1075 -0.6850  0.2753
19803TIP3   OH280899   2.512   2.269   0.937  0.4120  0.6641 -0.0315
19803TIP3    H180900   2.453   2.275   0.862 -0.8758  0.2588  0.9078
19803TIP3    H280901   2.542   2.178   0.936  0.2529  0.6101  0.0410
19804TIP3   OH280902   1.861   1.844  13.743 -0.1294 -0.4134 -0.1026
19804TIP3    H180903   1.806   1.910  13.700  1.9796  0.1391 -2.1684
19804TIP3    H280904   1.807   1.766  13.746 -1.6240  0.5663 -0.4634
19805TIP3   OH280905   5.231   0.938   4.933 -0.1818 -0.0122 -0.5232
19805TIP3    H180906   5.150   0.930   4.983  0.9489  0.8602  1.5707
19805TIP3    H280907   5.282   1.004   4.980  2.4465 -1.7124 -0.7346
19806TIP3   OH280908   6.628   2.364  12.148  0.0453  0.0470 -0.1500
19806TIP3    H180909   6.665   2.447  12.118 -0.5186  0.0769 -0.7683
19806TIP3    H280910   6.684   2.339  12.222  2.2573 -0.6625 -1.9442
19807TIP3   OH280911   1.749   3.138  11.031 -0.3378 -0.5687 -0.5450
19807TIP3    H180912   1.743   3.185  10.948 -0.4138  0.0987 -0.1639
19807TIP3    H280913   1.775   3.204  11.095  1.4128 -1.4114 -0.3377
19808TIP3   OH280914   5.352   6.480  13.491 -0.6723  0.2547 -0.1540
19808TIP3    H180915   5.446   6.500  13.489 -0.9164  1.4332 -1.6503
19808TIP3    H280916   5.342   6.407  13.430 -0.5750 -0.8656  1.1021
19809TIP3   OH280917   2.199   5.372   4.147  0.2370 -0.3231  0.5838
19809TIP3    H180918   2.247   5.324   4.079 -0.1959  1.8707 -1.4179
19809TIP3    H280919   2.264   5.430   4.187 -0.2658  1.3074 -0.8446
19810TIP3   OH280920   2.389   3.656   1.337 -0.1211  0.6621 -0.4204
19810TIP3    H180921   2.301   3.655   1.300  0.4660  0.8513 -1.8721
19810TIP3    H280922   2.421   3.744   1.319  1.0225  0.0450 -1.5632
19811TIP3   OH280923   6.417   3.441   2.944  0.2842 -0.3498  0.0673
19811TIP3    H180924   6.481   3.400   2.887  0.0350  0.9980 -1.2630
19811TIP3    H280925   6.352   3.373   2.961  0.1941 -0.7149 -1.5576
19812TIP3   OH280926   1.427   2.594   0.777 -0.2197  0.5669  0.1067
19812TIP3    H180927   1.349   2.627   0.823 -0.4413 -0.4536  0.4931
19812TIP3    H280928   1.393   2.529   0.715  0.2835  0.4399 -0.0410
19813TIP3   OH280929   3.403   6.051  12.718  0.0299  0.0392 -0.1667
19813TIP3    H180930   3.474   6.016  12.772 -0.9661 -2.3860 -0.3312
19813TIP3    H280931   3.404   5.997  12.639 -0.1589  1.8853 -1.4903
19814TIP3   OH280932   1.653   6.229   2.002 -0.3231  1.1644  0.0111
19814TIP3    H180933   1.671   6.278   1.922 -1.6366  1.6303 -0.0356
19814TIP3    H280934   1.560   6.245   2.019 -0.8994 -1.5897 -0.1829
19815TIP3   OH280935   5.856   0.303  10.739  0.0361 -0.7669  0.7541
19815TIP3    H180936   5.799   0.250  10.683  0.2282 -0.3560  0.1582
19815TIP3    H280937   5.914   0.240  10.781  0.1891 -1.0439  0.1370
19816TIP3   OH280938   1.494   3.139   1.284  0.0923 -0.8050  0.2487
19816TIP3    H180939   1.570   3.084   1.266  0.4880 -0.0567 -0.4351
19816TIP3    H280940   1.527   3.228   1.276 -1.4469 -0.3772 -3.0331
19817TIP3   OH280941   3.380   0.425   2.241  0.6420  0.1810 -0.2842
19817TIP3    H180942   3.373   0.340   2.198  0.1424 -0.8746  1.7325
19817TIP3    H280943   3.454   0.468   2.198  2.5219 -2.2928  0.2199
19818TIP3   OH280944   1.593   2.972  11.379  0.4806  1.3916  0.3339
19818TIP3    H180945   1.632   3.011  11.457 -0.6763  3.7418 -0.1825
19818TIP3    H280946   1.503   2.952  11.404 -0.1456  2.9121 -0.5680
19819TIP3   OH280947   5.141   0.897  14.592 -0.6752 -0.9631 -0.1662
19819TIP3    H180948   5.197   0.845  14.535 -1.1594 -1.0910 -0.5390
19819TIP3    H280949   5.057   0.899  14.546 -0.9667 -0.7642  0.3732
19820TIP3   OH280950   6.224   3.202   0.618  0.1687  0.4092  0.3042
19820TIP3    H180951   6.147   3.234   0.571  0.3733  0.5433  0.0520
19820TIP3    H280952   6.235   3.112   0.586  0.2855  0.4876  0.1243
19821TIP3   OH280953   3.444   2.429  14.923 -0.2297  0.0284 -0.1559
19821TIP3    H180954   3.441   2.334  14.909 -0.1994  0.1927 -1.4059
19821TIP3    H280955   3.520   2.458  14.872 -0.4626  0.7686 -0.0938
19822TIP3   OH280956   5.369   1.059   0.767  0.1974  0.2020 -0.0413
19822TIP3    H180957   5.276   1.040   0.757 -0.0053  1.3927 -0.6781
19822TIP3    H280958   5.412   0.974   0.760 -0.7576 -0.2281 -0.9489
19823TIP3   OH280959   4.774   4.185  15.211  0.1168  0.4328  0.2376
19823TIP3    H180960   4.860   4.223  15.193  0.3907  0.2822  1.2034
19823TIP3    H280961   4.734   4.176  15.124  1.3139 -0.0599 -0.2954
19824TIP3   OH280962   4.503   2.619  12.939  0.1464  0.2687 -0.0795
19824TIP3    H180963   4.516   2.552  13.006 -0.3036 -0.2512 -0.5081
19824TIP3    H280964   4.533   2.700  12.980  0.4534 -0.1499  0.5326
19825TIP3   OH280965   5.936   0.871  12.330 -0.3055  0.0270 -0.5429
19825TIP3    H180966   5.962   0.958  12.298  0.5637 -0.6228 -1.6872
19825TIP3    H280967   6.004   0.848  12.394  0.9457 -0.8559 -2.1192
19826TIP3   OH280968   3.097   2.055   1.024  0.0212 -0.0613 -0.1483
19826TIP3    H180969   3.156   2.131   1.025 -1.2010  0.9764 -1.5134
19826TIP3    H280970   3.153   1.981   1.000  0.9589  0.7076 -0.3909
19827TIP3   OH280971   3.291   1.926  11.723 -0.4464  0.2222 -0.5465
19827TIP3    H180972   3.207   1.950  11.686  0.4353 -1.0826 -3.7121
19827TIP3    H280973   3.345   2.005  11.714 -0.8826  0.6132  0.1638
19828TIP3   OH280974   0.272   0.831  15.725  0.7655 -0.5303 -0.6427
19828TIP3    H180975   0.307   0.895  15.787  0.9852  0.6224 -1.9011
19828TIP3    H280976   0.336   0.829  15.654 -0.6112 -0.0058 -1.9657
19829TIP3   OH280977   0.037   1.152   0.081 -0.0092 -0.6130  0.1450
19829TIP3    H180978   0.099   1.088   0.048  1.3493  1.3118 -1.2409
19829TIP3    H280979   0.088   1.209   0.138 -1.1658 -0.6461  1.2819
19830TIP3   OH280980   0.842   1.217  16.306 -0.0642  0.1573  0.1227
19830TIP3    H180981   0.910   1.189  16.368 -1.6070 -0.2585  1.6909
19830TIP3    H280982   0.843   1.312  16.312 -0.1894  0.1202  0.7772
19831TIP3   OH280983   3.771   0.674  11.175  0.5310  0.4300  0.5478
19831TIP3    H180984   3.811   0.648  11.093 -0.1557  1.3821 -0.1015
19831TIP3    H280985   3.709   0.603  11.194  0.8135  0.1251  0.3415
19832TIP3   OH280986   2.060   4.088   2.936  0.0710  0.2625  0.6654
19832TIP3    H180987   2.086   4.141   2.861  0.5479  0.0517  0.6774
19832TIP3    H280988   1.970   4.117   2.956  0.6067  1.6854  1.2006
19833TIP3   OH280989   5.003   4.061   2.799 -0.3571  0.1637  0.2316
19833TIP3    H180990   4.939   3.994   2.823  0.7082 -0.5315  1.2751
19833TIP3    H280991   5.087   4.014   2.801  0.2552  1.2179 -0.3693
19834TIP3   OH280992   3.977   1.319   0.587 -0.3619 -0.2281 -0.0150
19834TIP3    H180993   4.056   1.324   0.533 -0.1083 -2.6164  0.0243
19834TIP3    H280994   3.915   1.268   0.535 -1.2157  0.0495  0.7059
19835TIP3   OH280995   3.874   0.838  10.499  0.1093  0.3121  0.1253
19835TIP3    H180996   3.864   0.744  10.482  0.3657  0.4918 -1.1637
19835TIP3    H280997   3.966   0.856  10.480 -0.0773  0.9201 -0.2307
19836TIP3   OH280998   6.581   4.103   4.655 -0.2112  0.5948  0.1312
19836TIP3    H180999   6.551   4.163   4.723 -0.2661 -0.3348  0.9571
19836TIP3    H281000   6.670   4.132   4.634  0.6857 -0.4147  2.2191
19837TIP3   OH281001   4.563   5.301  13.284 -0.4646 -0.4260  0.5986
19837TIP3    H181002   4.645   5.267  13.319 -0.8853 -1.3268  0.7290
19837TIP3    H281003   4.589   5.365  13.218  0.3390 -1.4267 -0.0663
19838TIP3   OH281004   4.145   4.359  14.504 -0.3151 -0.1852 -0.0940
19838TIP3    H181005   4.184   4.371  14.418 -3.2475  0.9873 -1.4180
19838TIP3    H281006   4.105   4.271  14.500  0.7838 -0.7367  0.6560
19839TIP3   OH281007   6.472   6.550  14.576 -0.0099 -0.0321 -0.3938
19839TIP3    H181008   6.412   6.483  14.609  0.4598 -0.3250 -0.1149
19839TIP3    H281009   6.425   6.592  14.505 -1.0883  0.6602  0.7031
19840TIP3   OH281010   1.086   2.343   0.224 -0.1224 -0.3615  0.1491
19840TIP3    H181011   0.991   2.333   0.216 -0.0086 -0.5779 -1.0329
19840TIP3    H281012   1.119   2.333   0.135  0.9897 -0.0149  0.5082
19841TIP3   OH281013   5.461   4.632  15.503  0.3743 -0.5200 -0.7388
19841TIP3    H181014   5.519   4.699  15.467  1.9177 -2.8530 -2.9101
19841TIP3    H281015   5.519   4.576  15.554 -1.0981  0.3295  2.1079
19842TIP3   OH281016   4.507   0.640   3.720  0.5491 -1.0786 -0.1121
19842TIP3    H181017   4.488   0.695   3.644  2.3313  1.9326  1.4529
19842TIP3    H281018   4.552   0.564   3.683  1.8482  0.5396 -2.0541
19843TIP3   OH281019   2.371   3.731   1.912 -0.5712  0.6251  0.2471
19843TIP3    H181020   2.465   3.722   1.893 -0.3992 -0.6519  1.5347
19843TIP3    H281021   2.329   3.726   1.826  0.6360  3.8107 -0.6795
19844TIP3   OH281022   6.597   6.126  14.870  0.1597  0.3055  0.2999
19844TIP3    H181023   6.671   6.109  14.928  0.5852  0.6756 -0.1280
19844TIP3    H281024   6.607   6.217  14.843 -1.8620  1.1979  2.2342
19845TIP3   OH281025   1.645   5.394  13.028  0.4121  0.1758  0.4864
19845TIP3    H181026   1.625   5.323  13.088  0.9953 -1.0329 -0.6981
19845TIP3    H281027   1.698   5.354  12.959 -1.9952  0.9885 -2.0139
19846TIP3   OH281028   2.245   3.458  11.776 -0.2954  0.0308 -0.1005
19846TIP3    H181029   2.172   3.516  11.799 -1.0582 -0.2870 -1.6078
19846TIP3    H281030   2.258   3.472  11.682  1.6243  0.1006  0.1447
19847TIP3   OH281031   0.904   0.589  16.848 -0.5761  0.4736 -0.3188
19847TIP3    H181032   0.862   0.569  16.764 -0.8414  0.4332 -0.1775
19847TIP3    H281033   0.834   0.627  16.901 -0.4698  0.2690 -0.0315
19848TIP3   OH281034   5.695   2.078   2.714 -0.1040 -0.0903 -0.5921
19848TIP3    H181035   5.698   2.059   2.620 -0.6386 -1.9295 -0.2799
19848TIP3    H281036   5.659   1.998   2.753  2.4214 -0.3572  1.4558
19849TIP3   OH281037   1.885   0.036   1.617  0.3349  0.2861 -0.2529
19849TIP3    H181038   1.949   0.028   1.688  0.7524  1.1176 -0.5249
19849TIP3    H281039   1.932   0.080   1.547 -0.2555  0.0153 -0.8302
19850TIP3   OH281040   6.358   1.801   2.643 -0.3744  0.8562 -0.6099
19850TIP3    H181041   6.295   1.872   2.654 -0.5631  0.7181 -0.7991
19850TIP3    H281042   6.402   1.794   2.728 -2.8786 -1.2497  0.6547
19851TIP3   OH281043   6.128   2.525   4.330 -0.0678  0.1884  0.3914
19851TIP3    H181044   6.163   2.551   4.245 -1.3828 -1.1487 -0.5969
19851TIP3    H281045   6.205   2.521   4.387  1.6277 -3.1661 -1.7924
19852TIP3   OH281046   5.053   2.475   1.022  0.5940  0.2097  0.4167
19852TIP3    H181047   5.132   2.441   0.980  1.9256  3.1673  0.3193
19852TIP3    H281048   4.990   2.403   1.014  2.7249 -1.6756 -0.9417
19853TIP3   OH281049   5.124   2.732   5.886  0.0920 -0.3249 -0.3363
19853TIP3    H181050   5.114   2.787   5.808  1.3114 -1.1289 -1.0951
19853TIP3    H281051   5.093   2.646   5.858 -0.8776 -0.2790  0.5444
19854TIP3   OH281052   2.493   2.353  13.086  0.0128 -0.6441  0.0932
19854TIP3    H181053   2.575   2.373  13.041  0.3701 -1.1657  0.5062
19854TIP3    H281054   2.510   2.272  13.133  0.4191  1.0303  3.0942
19855TIP3   OH281055   0.284   4.072   2.974 -0.4745 -0.4864  0.6479
19855TIP3    H181056   0.326   4.149   2.935  0.4272  0.3154  3.0054
19855TIP3    H281057   0.344   4.000   2.956  0.9082  0.2432  2.1231
19856TIP3   OH281058   0.957   4.863   1.897  0.8864  0.1139 -0.1788
19856TIP3    H181059   0.867   4.832   1.903  0.2205  1.8742 -0.4121
19856TIP3    H281060   0.966   4.925   1.969  1.5068  0.8657 -0.8761
19857TIP3   OH281061   2.939   4.589  15.105  0.1695  0.0529 -0.3448
19857TIP3    H181062   2.997   4.513  15.108 -0.2588 -0.3625 -1.7406
19857TIP3    H281063   2.858   4.560  15.145  0.9850  0.7509  1.9704
19858TIP3   OH281064   2.049   5.326   5.251 -0.0061  0.1791  0.4180
19858TIP3    H181065   2.020   5.321   5.342  2.1058  0.3473  1.1506
19858TIP3    H281066   2.032   5.239   5.215  1.2160 -0.6127  1.6716
19859TIP3   OH281067   2.184   5.499   1.995 -0.3846  0.0757  0.0952
19859TIP3    H181068   2.118   5.522   1.929 -0.4843  1.8537  0.7692
19859TIP3    H281069   2.136   5.501   2.078 -0.1975 -1.8894  0.2989
19860TIP3   OH281070   0.435   6.590   1.246  0.5377 -0.6692 -0.1446
19860TIP3    H181071   0.400   6.588   1.335  1.2032  1.7253  0.2470
19860TIP3    H281072   0.378   6.532   1.196 -0.9554 -0.6592  1.4587
19861TIP3   OH281073   5.273   2.906   1.652 -0.2966 -0.3755  0.0563
19861TIP3    H181074   5.311   2.873   1.570 -0.2429 -1.4687  0.5167
19861TIP3    H281075   5.298   2.841   1.718 -1.1376  0.0186  0.7667
19862TIP3   OH281076   6.763   4.243   2.559  0.1240  0.0633 -0.1638
19862TIP3    H181077   6.836   4.302   2.544  0.6224 -0.3435  0.6061
19862TIP3    H281078   6.793   4.184   2.628 -0.0194 -1.6997 -1.5522
19863TIP3   OH281079   4.364   3.350  13.854 -0.6101  0.6580  0.7382
19863TIP3    H181080   4.331   3.265  13.885  0.5263 -0.3683 -0.6939
19863TIP3    H281081   4.292   3.385  13.800 -0.6752  0.0625  0.4259
19864TIP3   OH281082   1.453   1.466  12.513  0.7724 -0.2327 -0.0923
19864TIP3    H181083   1.397   1.460  12.436  2.5848 -0.5332 -1.4711
19864TIP3    H281084   1.398   1.434  12.586 -0.8643 -0.3019 -1.3054
19865TIP3   OH281085   0.010   1.917  16.101  0.0656  0.0929 -0.3056
19865TIP3    H181086  -0.049   1.908  16.026 -0.2183 -1.7756  0.1037
19865TIP3    H281087  -0.045   1.953  16.171 -0.0987  0.1739 -0.4763
19866TIP3   OH281088   5.268   1.988   5.658  0.3011  0.2854 -0.6649
19866TIP3    H181089   5.320   1.945   5.726 -0.8189 -0.6065 -0.3306
19866TIP3    H281090   5.255   1.921   5.591 -2.1136 -0.2245  0.2101
19867TIP3   OH281091   1.776   6.582   1.664 -0.2750 -0.7797  0.7201
19867TIP3    H181092   1.771   6.561   1.571  0.5836 -0.8927  0.6993
19867TIP3    H281093   1.817   6.668   1.668  0.2340 -1.0325  1.0218
19868TIP3   OH281094   2.994   4.276  15.833 -0.4353 -0.2943 -0.6602
19868TIP3    H181095   2.926   4.283  15.900 -0.8952  0.0121 -1.1453
19868TIP3    H281096   3.068   4.324  15.868 -0.9541  0.5671 -0.7084
19869TIP3   OH281097   4.669   5.306  14.224 -0.2446  0.1788 -0.2333
19869TIP3    H181098   4.669   5.342  14.135 -2.8090  2.4128  0.5499
19869TIP3    H281099   4.748   5.342  14.264  1.6039 -1.7992 -1.8306
19870TIP3   OH281100   4.020   4.708  12.284 -0.3993 -0.8055  0.4978
19870TIP3    H181101   4.070   4.761  12.346 -1.5592  1.0787 -0.0891
19870TIP3    H281102   3.929   4.719  12.310 -0.7815 -1.2815 -0.5786
19871TIP3   OH281103   4.918   3.192   5.361  0.5602 -0.0025 -0.9311
19871TIP3    H181104   4.943   3.100   5.356 -1.3668 -0.5738 -1.0521
19871TIP3    H281105   5.001   3.240   5.368  1.5552 -1.8140  0.4983
19872TIP3   OH281106   0.130   0.718   5.094  0.3369  0.0268  0.2130
19872TIP3    H181107   0.095   0.787   5.037  0.5464 -1.3248 -1.6183
19872TIP3    H281108   0.215   0.696   5.057  1.0458 -0.0786  1.7953
19873TIP3   OH281109   3.067   2.723   2.615 -0.0200 -0.6846 -0.0697
19873TIP3    H181110   3.123   2.800   2.620 -0.1106 -0.6288  0.0783
19873TIP3    H281111   3.118   2.653   2.657 -0.3885 -0.4450  0.7874
19874TIP3   OH281112   1.144   0.520   1.381  0.3146  0.4624  0.1294
19874TIP3    H181113   1.174   0.601   1.421  1.1287  0.2406 -0.0314
19874TIP3    H281114   1.152   0.534   1.287  0.3841  0.2266  0.0976
19875TIP3   OH281115   4.090   3.494   2.994  0.2058  0.0463 -0.4246
19875TIP3    H181116   4.105   3.424   3.058 -1.0766  1.2452  1.2767
19875TIP3    H281117   3.996   3.487   2.973  0.1490  1.0292 -0.5143
19876TIP3   OH281118   6.416   1.927   4.908  0.4679 -0.4170  0.7015
19876TIP3    H181119   6.469   1.864   4.858  0.0644  0.3924 -0.8129
19876TIP3    H281120   6.430   2.010   4.863 -1.5251 -0.0473  0.6953
19877TIP3   OH281121   5.972   3.210  16.727 -0.1684  0.0620  0.2709
19877TIP3    H181122   5.978   3.265  16.648 -1.3915 -2.0847 -1.4313
19877TIP3    H281123   6.051   3.157  16.725 -1.1595 -1.4537 -0.7513
19878TIP3   OH281124   6.207   2.326  11.365  0.2743  0.3052 -0.0036
19878TIP3    H181125   6.291   2.306  11.407  0.1157 -1.3108 -0.3907
19878TIP3    H281126   6.193   2.254  11.304 -0.7265  1.2983 -0.9933
19879TIP3   OH281127   1.333   2.798  12.294 -0.9841  0.0970  0.3773
19879TIP3    H181128   1.405   2.814  12.354 -1.4713 -2.5016  1.8248
19879TIP3    H281129   1.254   2.816  12.345 -1.4272  1.4735 -0.7235
19880TIP3   OH281130   3.178   1.611  13.843 -0.1738 -0.7899  0.5256
19880TIP3    H181131   3.177   1.623  13.748 -2.0933 -0.0670  0.5942
19880TIP3    H281132   3.162   1.517  13.855 -1.2925 -0.6748  0.1123
19881TIP3   OH281133   6.676   2.212   0.756 -0.1223 -0.3144  0.2317
19881TIP3    H181134   6.720   2.283   0.711  1.2484 -0.8370  0.6899
19881TIP3    H281135   6.646   2.250   0.839  1.2976 -0.4297  0.8262
19882TIP3   OH281136   3.331   1.119  15.405 -0.1191 -0.4531 -0.5843
19882TIP3    H181137   3.394   1.183  15.372 -0.3285 -1.4984 -3.2685
19882TIP3    H281138   3.246   1.162  15.397 -0.0115  0.0311  0.6332
19883TIP3   OH281139   4.303   1.607   5.324  0.0066  0.1014 -0.2635
19883TIP3    H181140   4.249   1.662   5.268 -2.3419 -0.5004  1.2683
19883TIP3    H281141   4.306   1.653   5.408 -0.0848 -0.9883  0.3617
19884TIP3   OH281142   2.586   6.176  12.326 -0.4320  0.2454  0.2237
19884TIP3    H181143   2.652   6.209  12.388 -0.8307 -0.4289  1.0291
19884TIP3    H281144   2.598   6.231  12.248  0.2156  0.9924  0.8180
19885TIP3   OH281145   5.374   0.355   1.208  0.2137  0.6174 -0.1768
19885TIP3    H181146   5.454   0.322   1.250 -1.0626 -1.0926  1.0452
19885TIP3    H281147   5.343   0.424   1.267  0.0783  0.3728  0.0364
19886TIP3   OH281148   4.892   5.131  15.291  0.1270  0.2864 -0.1684
19886TIP3    H181149   4.844   5.053  15.320  0.9704 -0.2910 -0.2700
19886TIP3    H281150   4.884   5.192  15.364  1.3053 -0.7450  0.8817
19887TIP3   OH281151   3.897   1.310  11.113  0.1969  1.2582 -0.0756
19887TIP3    H181152   3.806   1.289  11.090 -0.4263  2.5068  1.1523
19887TIP3    H281153   3.946   1.291  11.033 -0.6826 -2.0239 -0.0029
19888TIP3   OH281154   1.771   1.054   4.429 -0.9433 -0.2016 -0.0287
19888TIP3    H181155   1.769   0.987   4.360 -1.1543  0.9577 -1.1804
19888TIP3    H281156   1.699   1.113   4.407 -0.5710  0.5780  0.7919
19889TIP3   OH281157   1.801   5.089  14.423 -0.2757  0.2826  0.0745
19889TIP3    H181158   1.885   5.052  14.453 -0.6196  0.1388  0.8734
19889TIP3    H281159   1.800   5.178  14.458  0.9299  1.4335 -2.5443
19890TIP3   OH281160   3.341   0.952  14.237  0.4861 -0.1715  0.1190
19890TIP3    H181161   3.408   1.002  14.190  0.7880 -0.5082  0.1880
19890TIP3    H281162   3.302   0.895  14.170 -0.5275  0.8295 -0.1773
19891TIP3   OH281163   6.458   6.190  14.529  0.0216  0.4147  0.0471
19891TIP3    H181164   6.440   6.258  14.594 -0.5736 -0.8639  1.2626
19891TIP3    H281165   6.375   6.143  14.519 -0.0213  0.7942 -1.9529
19892TIP3   OH281166   5.197   0.632   2.951 -0.0826  0.2590  0.4783
19892TIP3    H181167   5.222   0.612   2.861 -0.1224 -0.3929  0.6105
19892TIP3    H281168   5.150   0.716   2.944  1.0935  0.9082  0.0766
19893TIP3   OH281169   1.219   4.027   5.545 -0.1555  0.1998 -0.0730
19893TIP3    H181170   1.166   3.976   5.606 -0.6817  0.6144 -0.1827
19893TIP3    H281171   1.297   3.973   5.531 -0.3089 -0.1747  0.4895
19894TIP3   OH281172   1.823   1.435  12.275 -0.1109  0.7912  0.2110
19894TIP3    H181173   1.806   1.499  12.344 -1.4703  0.3580  0.3117
19894TIP3    H281174   1.900   1.468  12.230 -0.4437  2.1995  0.6204
19895TIP3   OH281175   1.094   4.193  11.004 -0.0716  0.2539 -0.4853
19895TIP3    H181176   1.098   4.098  10.992 -0.8466  0.0046  0.9513
19895TIP3    H281177   1.176   4.225  10.968 -0.5214 -0.7451 -2.5688
19896TIP3   OH281178   1.037   2.004   1.162 -0.4914  0.5091  0.5555
19896TIP3    H181179   0.947   2.028   1.140 -0.1416  2.5025  1.0879
19896TIP3    H281180   1.090   2.050   1.098  0.1568 -1.3999 -0.3445
19897TIP3   OH281181   2.002   3.557  12.670 -0.2223 -0.0276 -0.4587
19897TIP3    H181182   1.965   3.500  12.603  2.3872 -1.1264 -1.1097
19897TIP3    H281183   1.926   3.600  12.710 -2.2891 -3.1742 -0.6242
19898TIP3   OH281184   1.290   2.681  13.632 -0.3978 -0.3763 -0.2979
19898TIP3    H181185   1.270   2.763  13.678  0.6777 -0.3310  0.1209
19898TIP3    H281186   1.359   2.705  13.569 -0.7877 -0.7586 -0.8855
19899TIP3   OH281187   2.415   1.921  12.163  0.2493  0.3206  0.4529
19899TIP3    H181188   2.410   1.831  12.194  1.7667 -1.0199 -2.7283
19899TIP3    H281189   2.480   1.963  12.220 -0.4684 -0.5446  1.9639
19900TIP3   OH281190   0.400   0.087  15.887 -0.3292 -0.1278 -0.0965
19900TIP3    H181191   0.311   0.078  15.919 -0.3274 -0.1987 -0.1108
19900TIP3    H281192   0.455   0.073  15.964 -0.3368  0.1869 -0.0347
19901TIP3   OH281193   6.744   0.004  11.828 -0.4578  0.0510  0.4591
19901TIP3    H181194   6.742   0.100  11.830  1.1259  0.1287 -0.3869
19901TIP3    H281195   6.654  -0.021  11.806 -1.1798  1.2692  1.8032
19902TIP3   OH281196   4.293   2.290  16.487 -0.5236 -0.3340  0.0440
19902TIP3    H181197   4.360   2.358  16.484 -2.3431  1.6505  1.3131
19902TIP3    H281198   4.287   2.266  16.580 -2.3633  0.4752  0.1938
19903TIP3   OH281199   0.659   5.213  15.424 -0.5345  0.2610  1.0352
19903TIP3    H181200   0.677   5.144  15.488 -2.3407 -2.1370 -0.8763
19903TIP3    H281201   0.593   5.268  15.465  0.9582  0.9965  2.5981
19904TIP3   OH281202   5.424   2.885  12.584  0.1824  0.2095  0.2340
19904TIP3    H181203   5.366   2.827  12.535 -0.5124  1.4554 -0.4715
19904TIP3    H281204   5.512   2.851  12.568 -0.1134  0.0824 -1.1889
19905TIP3   OH281205   0.741   3.716  11.193 -0.3863 -0.4838 -0.1574
19905TIP3    H181206   0.668   3.659  11.170 -1.1506  0.6743 -0.7306
19905TIP3    H281207   0.745   3.780  11.122 -0.0968  0.6692  0.8430
19906TIP3   OH281208   6.549   2.365   4.627 -0.2362 -0.1401  0.0826
19906TIP3    H181209   6.599   2.359   4.709  0.6481  1.0882 -0.3293
19906TIP3    H281210   6.611   2.336   4.559  0.4623  2.6526 -0.5984
19907TIP3   OH281211   1.989   6.517   6.210 -0.4095  0.1755  0.0198
19907TIP3    H181212   1.981   6.594   6.153  2.3530  0.3607 -0.2571
19907TIP3    H281213   2.076   6.524   6.247  0.9223 -3.9231 -1.7249
19908TIP3   OH281214   1.902   1.382   3.824 -0.4598 -0.1499  0.1339
19908TIP3    H181215   1.925   1.471   3.800  0.3716 -0.8223 -1.7447
19908TIP3    H281216   1.809   1.385   3.846 -0.6506  1.0065 -0.7677
19909TIP3   OH281217   2.368   1.440  12.290  0.0661  0.8533  0.5297
19909TIP3    H181218   2.359   1.535  12.304 -0.0113  0.7975  0.8627
19909TIP3    H281219   2.380   1.404  12.378 -0.6499  0.4674  0.4786
19910TIP3   OH281220   0.678   1.032   1.136 -0.1515  0.0422  0.7381
19910TIP3    H181221   0.636   1.109   1.175 -0.6219 -0.0769  0.4745
19910TIP3    H281222   0.645   0.959   1.188 -3.7155 -0.5692 -2.0503
19911TIP3   OH281223   2.605   2.984   0.731  0.2691 -0.7339  0.0156
19911TIP3    H181224   2.677   3.029   0.775  1.2047  0.4390 -2.5535
19911TIP3    H281225   2.646   2.910   0.687 -0.1209 -0.2692 -1.1670
19912TIP3   OH281226   5.612   1.613  14.662  0.0569  0.3127 -0.4350
19912TIP3    H181227   5.628   1.690  14.608 -1.8640  1.0819  0.0169
19912TIP3    H281228   5.662   1.629  14.742  0.4449  0.6223 -0.7346
19913TIP3   OH281229   1.761   3.005   4.899 -0.1326  0.2813  0.2336
19913TIP3    H181230   1.807   2.976   4.820 -0.6402 -0.3935  0.1808
19913TIP3    H281231   1.830   3.011   4.965  0.0858 -0.4616  0.0851
19914TIP3   OH281232   2.353   3.259   0.634 -0.2008  0.0554  0.0686
19914TIP3    H181233   2.366   3.172   0.596 -0.2505  0.9438 -2.1909
19914TIP3    H281234   2.440   3.286   0.664 -0.4408 -1.3029  2.1753
19915TIP3   OH281235   0.207   4.670   4.030  0.3747  0.2996 -0.2067
19915TIP3    H181236   0.135   4.728   4.004  0.4252  1.2271  1.5680
19915TIP3    H281237   0.163   4.592   4.065  0.1727  1.0161  1.2185
19916TIP3   OH281238   0.632   1.581   0.306  0.0248 -0.7904  0.1500
19916TIP3    H181239   0.696   1.552   0.240 -3.0462 -0.9377 -3.0207
19916TIP3    H281240   0.638   1.676   0.304  0.9835 -0.8226  0.8283
19917TIP3   OH281241   0.268   1.618  15.397  0.0177 -0.3941 -0.1117
19917TIP3    H181242   0.305   1.704  15.418  0.9779 -0.0996 -2.5914
19917TIP3    H281243   0.193   1.608  15.455  1.3370  1.0187  1.9503
19918TIP3   OH281244   1.598   4.408  16.235 -0.1420 -0.0313 -0.0215
19918TIP3    H181245   1.619   4.337  16.174 -0.0014  0.5324 -0.6328
19918TIP3    H281246   1.510   4.437  16.210  0.4724  1.1451 -0.8835
19919TIP3   OH281247   3.155   2.919   5.681 -0.1793  0.1354 -0.4080
19919TIP3    H181248   3.179   2.846   5.738  0.8272  1.4287  0.9252
19919TIP3    H281249   3.073   2.892   5.640 -1.9728 -0.2474  3.0037
19920TIP3   OH281250   6.432   5.527  16.792  0.7700  0.3633 -0.2866
19920TIP3    H181251   6.355   5.475  16.769 -0.0214  1.2323  0.2869
19920TIP3    H281252   6.419   5.549  16.884  1.6819  0.5859 -0.2000
19921TIP3   OH281253   4.855   4.178  14.091  0.7120 -0.5645 -0.3869
19921TIP3    H181254   4.837   4.152  14.182  1.0162 -0.2345 -0.2271
19921TIP3    H281255   4.806   4.116  14.038 -0.0609 -0.3169  0.0173
19922TIP3   OH281256   4.952   2.944   3.954 -0.7709 -0.1925 -0.2369
19922TIP3    H181257   5.046   2.928   3.966 -0.7640 -0.2278 -0.3413
19922TIP3    H281258   4.940   2.950   3.860 -0.6457  1.2575 -0.1719
19923TIP3   OH281259   2.685   1.445  13.301 -0.2383 -0.3678 -0.0280
19923TIP3    H181260   2.718   1.446  13.211  2.3424 -2.3406  0.7703
19923TIP3    H281261   2.673   1.352  13.321  0.1891 -0.0466  1.9463
19924TIP3   OH281262   2.602   6.323   6.077 -0.1440 -0.0537 -0.0316
19924TIP3    H181263   2.603   6.396   6.139  0.0997  1.3094 -1.5720
19924TIP3    H281264   2.605   6.245   6.132 -0.1628  1.0897  1.6682
19925TIP3   OH281265   0.825   0.508  15.932 -0.4315  0.0031  0.1794
19925TIP3    H181266   0.856   0.590  15.895  0.9563 -0.7471 -0.3680
19925TIP3    H281267   0.737   0.529  15.965 -0.6206  1.3709 -1.0794
19926TIP3   OH281268   4.044   5.494   4.816  0.4071 -0.4467 -0.5072
19926TIP3    H181269   3.962   5.463   4.778  0.3713 -1.3589  0.2657
19926TIP3    H281270   4.105   5.496   4.743  0.0926 -1.2622 -0.8081
19927TIP3   OH281271   5.087   1.650   4.211  0.1881 -0.0947  0.3124
19927TIP3    H181272   5.154   1.717   4.225 -0.0237  0.1020  0.3830
19927TIP3    H281273   5.135   1.567   4.218 -0.0542 -0.1072  3.4850
19928TIP3   OH281274   3.742   4.298  15.267  0.4138 -0.1654  0.3064
19928TIP3    H181275   3.789   4.311  15.184 -1.6521 -2.5235 -1.4028
19928TIP3    H281276   3.688   4.376  15.277  1.5911  0.6950  0.1179
19929TIP3   OH281277   5.604   6.067  11.937 -0.7504 -0.0513  0.2571
19929TIP3    H181278   5.574   6.148  11.897 -0.0989  0.5363  0.9431
19929TIP3    H281279   5.691   6.052  11.900 -1.1687 -0.8467 -0.4364
19930TIP3   OH281280   3.189   3.676  11.860  0.2666  0.1312  0.0890
19930TIP3    H181281   3.186   3.750  11.921 -1.3294 -0.0833  0.3127
19930TIP3    H281282   3.181   3.716  11.774  1.4165  0.3483  0.0631
19931TIP3   OH281283   3.214   4.384   3.954  0.6182 -0.1465 -0.1052
19931TIP3    H181284   3.282   4.385   3.887  2.0846  0.6494  1.3386
19931TIP3    H281285   3.213   4.293   3.985  0.0176 -0.4900 -1.0776
19932TIP3   OH281286   1.367   6.144   3.540 -0.7811  0.3537  0.5160
19932TIP3    H181287   1.446   6.127   3.488 -1.2614  0.3607 -0.2369
19932TIP3    H281288   1.387   6.223   3.590 -0.4136  0.5215  0.1058
19933TIP3   OH281289   3.521   0.177  12.351 -1.1348  0.0488  0.7183
19933TIP3    H181290   3.527   0.164  12.445  0.8989  0.6651  0.7251
19933TIP3    H281291   3.434   0.213  12.337 -1.2349  0.5815  2.4481
19934TIP3   OH281292   2.536   0.699  11.354 -0.4697 -0.0633  0.0997
19934TIP3    H181293   2.558   0.609  11.378 -1.0911 -0.0908  0.6004
19934TIP3    H281294   2.620   0.746  11.354 -0.0274 -0.8258 -1.0044
19935TIP3   OH281295   4.315   4.224  13.402  0.1512 -0.5483 -0.3283
19935TIP3    H181296   4.352   4.138  13.382 -0.5838 -0.8795 -0.2849
19935TIP3    H281297   4.222   4.215  13.383  0.3092  0.7257 -1.9549
19936TIP3   OH281298   0.819   2.741  17.066 -0.1326 -0.4184 -0.2535
19936TIP3    H181299   0.902   2.709  17.102 -1.0172  0.2336  2.6271
19936TIP3    H281300   0.775   2.663  17.032  1.5247 -0.7923 -1.7150
19937TIP3   OH281301   5.994   5.157  13.918 -0.1976  0.2776  0.5167
19937TIP3    H181302   5.945   5.236  13.942  0.6297  0.4823  1.6102
19937TIP3    H281303   6.027   5.175  13.830 -2.0082  0.1508 -0.2323
19938TIP3   OH281304   5.635   4.436   5.849  0.1134  0.2719  0.2928
19938TIP3    H181305   5.591   4.511   5.889  0.1960 -0.8792  2.6636
19938TIP3    H281306   5.728   4.461   5.847 -0.0145  0.7342 -0.1616
19939TIP3   OH281307   1.508   0.124   4.067 -0.1874  0.2464  0.0708
19939TIP3    H181308   1.541   0.170   4.144 -1.4654 -0.1819  0.9032
19939TIP3    H281309   1.413   0.121   4.080 -0.2505 -1.5827 -0.5359
19940TIP3   OH281310   3.588   6.308   4.468  0.3590 -0.6670  0.5306
19940TIP3    H181311   3.632   6.280   4.388  1.0287  1.4573  0.0821
19940TIP3    H281312   3.501   6.336   4.439  0.5973  0.0927  0.5402
19941TIP3   OH281313   0.770   3.335  16.444  0.0400  0.2495 -0.3813
19941TIP3    H181314   0.763   3.424  16.478  1.8470  0.1735  0.2847
19941TIP3    H281315   0.809   3.285  16.515 -0.7227 -1.0391 -0.8360
19942TIP3   OH281316   3.543   5.813  15.224  0.5610 -0.0260 -0.8701
19942TIP3    H181317   3.567   5.727  15.191  1.0538  0.1696 -1.0257
19942TIP3    H281318   3.500   5.796  15.308  0.2934 -0.4490 -1.0923
19943TIP3   OH281319   5.985   6.305   5.236 -0.1005 -0.1687  0.0859
19943TIP3    H181320   5.919   6.286   5.302  0.1066 -2.1876 -0.2436
19943TIP3    H281321   6.068   6.305   5.284 -0.1376  0.4359  0.1622
19944TIP3   OH281322   0.553   3.746   3.096 -0.3062  0.2858  0.1472
19944TIP3    H181323   0.587   3.788   3.175  1.6372 -2.0133  0.6398
19944TIP3    H281324   0.548   3.653   3.118 -0.3357 -0.3412 -2.2248
19945TIP3   OH281325   3.964   2.997   3.640  0.7294  0.3931 -0.2388
19945TIP3    H181326   4.014   2.934   3.691  0.7220  2.2784  2.3310
19945TIP3    H281327   3.991   3.082   3.674 -3.0357  1.5873  0.2561
19946TIP3   OH281328   0.377   3.230  11.665 -0.3073  0.6850  0.4687
19946TIP3    H181329   0.445   3.234  11.731 -1.3200 -0.1138  1.6027
19946TIP3    H281330   0.406   3.290  11.596  1.9319 -0.2475  0.5126
19947TIP3   OH281331   5.803   6.215   2.068  0.2141 -0.4495 -0.0369
19947TIP3    H181332   5.722   6.238   2.022  1.0115  0.0811 -1.2258
19947TIP3    H281333   5.795   6.121   2.082  0.4029 -0.8842 -2.3270
19948TIP3   OH281334   4.820   3.614  14.152 -0.0493 -0.0761  0.1857
19948TIP3    H181335   4.770   3.639  14.074 -0.5047 -0.1604  0.4527
19948TIP3    H281336   4.794   3.523  14.168  1.1681 -0.5674 -0.4491
19949TIP3   OH281337   1.749   2.185   2.709  0.4810 -0.3462  0.1593
19949TIP3    H181338   1.758   2.092   2.730  0.3307 -0.1344  1.2340
19949TIP3    H281339   1.819   2.203   2.647  0.3636 -1.2272 -0.2440
19950TIP3   OH281340   6.183   5.301  11.925 -0.2244 -0.3903  0.4638
19950TIP3    H181341   6.094   5.285  11.893 -0.9098  0.2675  1.9422
19950TIP3    H281342   6.226   5.216  11.916 -1.2776 -0.9579  0.5203
19951TIP3   OH281343   6.632   4.409  16.695  0.0007  0.7506 -0.0335
19951TIP3    H181344   6.595   4.321  16.704  1.0467  0.3330  0.2631
19951TIP3    H281345   6.563   4.458  16.650 -0.4787 -0.2960 -0.4928
19952TIP3   OH281346   1.253   3.916  12.994 -0.4093  0.7524 -0.2236
19952TIP3    H181347   1.281   4.000  13.030  0.7691  0.6431 -0.8174
19952TIP3    H281348   1.314   3.900  12.921  0.2740 -1.2561  0.7148
19953TIP3   OH281349   2.456   2.818   3.404  0.3147 -0.1791  0.2045
19953TIP3    H181350   2.542   2.807   3.363  1.1178 -1.3249  2.0962
19953TIP3    H281351   2.431   2.908   3.382  1.1516 -0.3958 -1.8729
19954TIP3   OH281352   6.524   1.696   0.832  0.2178 -0.3790 -0.0194
19954TIP3    H181353   6.529   1.639   0.755 -0.9870 -2.3258  1.2318
19954TIP3    H281354   6.573   1.650   0.900 -1.3152 -0.2941  1.2149
19955TIP3   OH281355   1.001   2.125  14.203  0.4123  0.2341  0.0149
19955TIP3    H181356   1.052   2.180  14.144 -0.0120 -0.6414 -1.2086
19955TIP3    H281357   0.994   2.041  14.158 -1.2306  0.0119  0.5970
19956TIP3   OH281358   2.516   3.758   5.707 -0.4909 -0.1343 -0.0483
19956TIP3    H181359   2.590   3.772   5.765 -0.2369 -0.1461 -0.3693
19956TIP3    H281360   2.555   3.739   5.621 -0.8571  1.1457 -0.5235
19957TIP3   OH281361   3.689   5.503  14.736  0.0123 -0.0549  0.1354
19957TIP3    H181362   3.624   5.465  14.677  1.0841 -0.0007 -1.1467
19957TIP3    H281363   3.652   5.586  14.763 -0.0842  0.4101 -1.3325
19958TIP3   OH281364   3.223   4.441  15.883 -0.0472  0.3202  0.2835
19958TIP3    H181365   3.260   4.462  15.797 -1.2535  0.0077 -0.3335
19958TIP3    H281366   3.286   4.382  15.923 -0.3328 -1.0238 -1.1653
19959TIP3   OH281367   0.443   2.986   5.136 -0.3734 -0.3932  0.2998
19959TIP3    H181368   0.444   2.936   5.218  2.0632 -2.2762 -0.7363
19959TIP3    H281369   0.458   2.920   5.068 -2.1630  1.1320 -1.7024
19960TIP3   OH281370   6.411   6.406   6.011 -0.3223  0.1388  0.5495
19960TIP3    H181371   6.420   6.460   6.089 -0.1567  2.5529 -1.0411
19960TIP3    H281372   6.317   6.387   6.006 -0.0088 -2.9224  3.0271
19961TIP3   OH281373   6.707   3.820  12.200  0.1725 -0.2466  0.0254
19961TIP3    H181374   6.751   3.760  12.260 -0.0958  2.3084  3.0275
19961TIP3    H281375   6.621   3.781  12.185  0.2211 -0.9185  1.3718
19962TIP3   OH281376   2.529   6.676   1.669  0.4280  0.1742 -0.0891
19962TIP3    H181377   2.546   6.737   1.740  0.2445  1.9696 -1.5185
19962TIP3    H281378   2.611   6.628   1.658  1.1379  1.3554 -0.0390
19963TIP3   OH281379   5.086   0.694  16.258  0.7929 -0.7873 -0.2819
19963TIP3    H181380   5.102   0.600  16.267  0.0111 -1.0198 -1.2163
19963TIP3    H281381   5.158   0.726  16.205  0.9887 -0.8731 -0.0733
19964TIP3   OH281382   0.655   0.585   1.507  0.1590  0.2834 -0.0149
19964TIP3    H181383   0.679   0.560   1.417  3.0516  1.5631  0.2618
19964TIP3    H281384   0.728   0.553   1.561  0.4709  2.8971  1.2757
19965TIP3   OH281385   0.835   2.184   0.237 -0.0402 -0.0765 -0.2412
19965TIP3    H181386   0.779   2.205   0.163 -1.4185  0.3350  0.8648
19965TIP3    H281387   0.774   2.169   0.310  1.2879  2.5476  1.5667
19966TIP3   OH281388   1.991   1.280   5.252  0.2755  0.5172  0.0508
19966TIP3    H181389   2.026   1.198   5.218 -1.1010 -1.2554  2.5506
19966TIP3    H281390   2.069   1.334   5.269  1.4191 -1.1814  0.4690
19967TIP3   OH281391   2.576   2.276  16.354 -1.2289  0.3729  0.2089
19967TIP3    H181392   2.523   2.260  16.276 -0.6473 -0.4632 -0.0260
19967TIP3    H281393   2.516   2.258  16.427 -1.0417 -1.5528 -0.0461
19968TIP3   OH281394   6.000   6.813  15.730  0.7248  0.1872 -0.3173
19968TIP3    H181395   6.020   6.772  15.646 -0.3934  1.5717 -1.3025
19968TIP3    H281396   5.922   6.768  15.762  1.1404 -0.3284 -0.0202
19969TIP3   OH281397   3.615   0.028  14.541 -0.2047  0.4234  0.0065
19969TIP3    H181398   3.564  -0.041  14.499  0.1982  0.5109 -0.6388
19969TIP3    H281399   3.629  -0.004  14.630 -0.7148  0.0447 -0.0469
19970TIP3   OH281400   2.923   3.523  13.773  0.1433  0.0133  0.3055
19970TIP3    H181401   2.869   3.602  13.776 -0.7578 -0.4390 -2.0121
19970TIP3    H281402   2.859   3.451  13.766  0.9944 -0.7752  0.3900
19971TIP3   OH281403   1.778   0.743   5.509 -0.1774  0.5497 -0.1887
19971TIP3    H181404   1.711   0.732   5.576 -0.6304 -0.3815 -0.7656
19971TIP3    H281405   1.851   0.690   5.540  0.1602  1.2535  0.2484
19972TIP3   OH281406   0.063   6.043   5.806  0.1988 -0.8488 -0.2884
19972TIP3    H181407   0.068   6.050   5.901  0.9045 -1.5338 -0.2639
19972TIP3    H281408  -0.028   6.065   5.785  0.1071 -0.4154  0.5078
19973TIP3   OH281409   5.993   4.214  14.351  0.3624 -0.2294  0.3076
19973TIP3    H181410   6.043   4.152  14.298 -1.2567 -1.3455  0.0097
19973TIP3    H281411   6.024   4.200  14.440  0.1318 -1.3698  0.2195
19974TIP3   OH281412   5.012   4.285  11.509 -0.3366 -0.3623  0.3035
19974TIP3    H181413   4.980   4.272  11.598 -1.6588 -0.2110 -0.1346
19974TIP3    H281414   5.104   4.308  11.520 -0.8138  1.0199  1.7225
19975TIP3   OH281415   4.592   0.880  11.652 -1.0528  0.3515 -0.9676
19975TIP3    H181416   4.663   0.940  11.628 -0.3872 -0.2620 -0.5783
19975TIP3    H281417   4.630   0.792  11.642 -1.8218  0.0077 -0.9483
19976TIP3   OH281418   6.609   6.167   3.222 -0.0891 -0.3978  0.2599
19976TIP3    H181419   6.571   6.115   3.151 -0.7227  0.8262 -0.3322
19976TIP3    H281420   6.609   6.256   3.189  1.9665 -0.1262  0.8306
19977TIP3   OH281421   0.649   4.935   3.961 -1.2002 -0.3015 -0.1914
19977TIP3    H181422   0.644   4.933   4.056 -0.0049  2.3063  0.0069
19977TIP3    H281423   0.557   4.939   3.932 -1.5499 -0.0964  0.9005
19978TIP3   OH281424   2.141   2.042  12.806 -0.1464 -0.5200  0.1929
19978TIP3    H181425   2.062   1.988  12.801 -0.1501 -0.4502 -0.6068
19978TIP3    H281426   2.212   1.981  12.823 -0.4169 -0.5373  1.3689
19979TIP3   OH281427   5.370   6.072   4.812 -0.0344 -0.1139 -0.3681
19979TIP3    H181428   5.280   6.079   4.842  0.2579 -1.4478  0.9120
19979TIP3    H281429   5.423   6.085   4.890  0.8659 -0.2856 -0.9290
19980TIP3   OH281430   0.371   6.340  14.374 -0.1008 -0.9568 -0.2371
19980TIP3    H181431   0.467   6.342  14.381 -0.2369  0.2360  2.5058
19980TIP3    H281432   0.350   6.247  14.363  1.3498 -1.2635 -0.6754
19981TIP3   OH281433   5.233   6.170  16.863 -0.0005 -0.1467  0.7115
19981TIP3    H181434   5.223   6.230  16.937 -0.1833 -0.5654  1.0280
19981TIP3    H281435   5.153   6.182  16.812 -0.7952 -1.3003  1.6445
19982TIP3   OH281436   2.317   3.043   6.236 -0.0944  0.3144  0.0078
19982TIP3    H181437   2.223   3.029   6.237 -0.1169  0.4615  0.1297
19982TIP3    H281438   2.354   2.960   6.209 -0.2440  0.1633  0.2658
19983TIP3   OH281439   1.831   6.330  10.609  0.1725  0.3212 -0.8689
19983TIP3    H181440   1.747   6.283  10.607  1.1366 -1.4398 -1.5555
19983TIP3    H281441   1.814   6.405  10.667 -1.9289  0.1499 -1.1646
19984TIP3   OH281442   3.072   6.755  13.149 -0.1574 -0.8582 -0.3451
19984TIP3    H181443   3.039   6.761  13.239 -0.7460 -1.3488 -0.5234
19984TIP3    H281444   3.015   6.692  13.106 -0.0055 -0.4871 -1.1236
19985TIP3   OH281445   3.036   4.571   4.072  0.2546 -0.6776  0.7266
19985TIP3    H181446   3.090   4.503   4.031  1.0942 -0.5016  1.5015
19985TIP3    H281447   3.028   4.639   4.005  1.8409 -0.2625  0.9033
19986TIP3   OH281448   2.059   0.412  11.693 -0.3700 -0.1664 -0.0960
19986TIP3    H181449   2.034   0.385  11.605 -0.4830 -0.2968 -0.0243
19986TIP3    H281450   2.030   0.340  11.750 -1.4823  0.4892  0.2081
19987TIP3   OH281451   6.118   6.696  11.193 -0.0235  0.3211  0.0861
19987TIP3    H181452   6.056   6.750  11.242  0.9633  2.7301 -1.1249
19987TIP3    H281453   6.085   6.700  11.103  0.6092 -0.3291 -0.1777
19988TIP3   OH281454   6.094   4.637   3.320  0.6169  0.2280  0.3816
19988TIP3    H181455   5.999   4.644   3.331  0.5860 -0.9699  1.0949
19988TIP3    H281456   6.131   4.674   3.400  0.7667  0.9611 -0.0230
19989TIP3   OH281457   0.889   4.192  16.329  0.2818  0.1345  0.3132
19989TIP3    H181458   0.977   4.220  16.304  1.0177 -1.2122  1.2719
19989TIP3    H281459   0.903   4.117  16.387 -1.5730 -2.3130 -2.1828
19990TIP3   OH281460   4.924   4.308  11.046  0.4923 -0.4474 -0.3514
19990TIP3    H181461   4.945   4.371  10.978  1.3291 -0.1065  0.2142
19990TIP3    H281462   4.923   4.359  11.127 -2.0831 -0.5178 -0.2559
19991TIP3   OH281463   2.540   3.609  11.447 -0.4168 -0.1751  0.2259
19991TIP3    H181464   2.551   3.540  11.381 -0.7676 -1.6176  1.6186
19991TIP3    H281465   2.472   3.666  11.410  1.7540  1.0849 -2.2021
19992TIP3   OH281466   4.309   1.038  16.266 -0.1907 -0.3041  0.3785
19992TIP3    H181467   4.275   1.104  16.327  0.3225 -1.4817  2.0182
19992TIP3    H281468   4.232   0.992  16.235 -0.8088  2.2962 -2.4653
19993TIP3   OH281469   5.289   1.473  15.571 -0.2787  0.4374  0.2875
19993TIP3    H181470   5.316   1.444  15.483 -0.9365  0.3800  0.1041
19993TIP3    H281471   5.243   1.555  15.556 -0.3735  0.4374  0.5885
19994TIP3   OH281472   0.947   1.716   4.124 -0.4191 -0.0051 -0.3479
19994TIP3    H181473   0.976   1.781   4.187  0.0979 -0.1092 -0.4702
19994TIP3    H281474   0.907   1.647   4.177  0.0907 -0.1330 -0.1255
19995TIP3   OH281475   2.688   3.146   0.041 -0.4268 -0.4120  0.2335
19995TIP3    H181476   2.757   3.211   0.035 -0.3408 -0.4835  0.4161
19995TIP3    H281477   2.639   3.154  -0.041  0.2135 -0.8296 -0.2041
19996TIP3   OH281478   6.038   4.635  14.929  0.4054  1.2696 -0.5276
19996TIP3    H181479   6.028   4.554  14.880 -0.6159  1.1063 -0.0568
19996TIP3    H281480   6.031   4.704  14.863 -0.4457  1.0314 -0.6953
19997TIP3   OH281481   4.883   3.728  11.443  0.3854 -0.3324 -0.0030
19997TIP3    H181482   4.924   3.737  11.357  0.5267  0.1878  0.1150
19997TIP3    H281483   4.812   3.792  11.443  0.2116 -0.5210  0.1711
19998TIP3   OH281484   5.125   4.541  10.855  0.0010 -0.2526  0.2454
19998TIP3    H181485   5.134   4.608  10.788 -3.0536 -0.3116 -0.3555
19998TIP3    H281486   5.163   4.462  10.815  0.7590  0.3732 -0.2833
19999TIP3   OH281487   3.820   1.054  16.908  0.0625  0.1386  0.0346
19999TIP3    H181488   3.741   1.086  16.865 -1.5485 -0.8064  2.0996
19999TIP3    H281489   3.835   0.967  16.871 -1.0142 -0.4608  0.9491
20000TIP3   OH281490   3.382   2.036   4.455 -0.0249 -0.0580 -0.4577
20000TIP3    H181491   3.432   2.002   4.529 -0.7953  1.2555  0.7080
20000TIP3    H281492   3.433   2.011   4.378  0.5778 -1.8306  0.4618
20001TIP3   OH281493   4.220   2.949   5.840  0.1502  0.0912  0.3409
20001TIP3    H181494   4.160   3.000   5.786  0.1128 -1.1201 -0.8209
20001TIP3    H281495   4.224   2.996   5.923 -1.3369  0.9318 -0.0309
20002TIP3   OH281496   2.502   0.497   0.563  0.1620 -0.7987  0.1955
20002TIP3    H181497   2.431   0.534   0.510  0.1422 -1.8077 -0.4974
20002TIP3    H281498   2.536   0.425   0.511  2.4626  0.3397 -0.0162
20003TIP3   OH281499   2.220   2.200  16.295  0.3395  0.0511  0.0389
20003TIP3    H181500   2.219   2.192  16.390 -3.1111 -2.4759 -0.0130
20003TIP3    H281501   2.281   2.132  16.266  0.4514 -0.0190  0.4353
20004TIP3   OH281502   5.012   1.957   5.271 -0.1944  0.3679 -0.0798
20004TIP3    H181503   4.960   1.980   5.347 -1.2529 -0.3710 -0.5527
20004TIP3    H281504   5.060   2.037   5.249  0.0295  0.6203  1.2622
20005TIP3   OH281505   6.664   0.335   4.908  0.4978 -0.2413  0.7135
20005TIP3    H181506   6.705   0.414   4.944  0.6949 -0.1437  0.2752
20005TIP3    H281507   6.718   0.263   4.939 -0.0698 -0.2693  1.6867
20006TIP3   OH281508   6.307   4.793   2.613  0.0031 -0.0510  0.3148
20006TIP3    H181509   6.375   4.757   2.557  0.2047  0.9928 -0.1290
20006TIP3    H281510   6.276   4.870   2.567 -2.0079 -0.8919  0.1541
20007TIP3   OH281511   1.773   4.820   2.627  0.2435 -0.1506  0.0977
20007TIP3    H181512   1.756   4.860   2.541 -2.4932 -0.3321  0.4727
20007TIP3    H281513   1.730   4.878   2.689 -0.8467 -1.8301  0.9761
20008TIP3   OH281514   4.592   6.698  13.653  0.1299 -0.0180  0.4426
20008TIP3    H181515   4.609   6.607  13.626  1.1612  0.6085 -1.1834
20008TIP3    H281516   4.622   6.751  13.578  0.7735  1.7251  1.8652
20009TIP3   OH281517   6.507   0.944   5.082 -0.0957  0.2671  0.0723
20009TIP3    H181518   6.453   1.022   5.098 -0.5000 -0.0089  0.0564
20009TIP3    H281519   6.543   0.958   4.994 -1.2722 -0.1954 -0.5124
20010TIP3   OH281520   1.800   2.162  10.387 -0.2775 -0.3707  0.3869
20010TIP3    H181521   1.837   2.236  10.340 -0.9018  0.4423  1.1252
20010TIP3    H281522   1.710   2.189  10.407 -0.5638 -1.3897  0.5480
20011TIP3   OH281523   6.532   1.507   0.622  0.1392  0.4465 -0.0485
20011TIP3    H181524   6.513   1.486   0.531  0.4544  2.6443 -0.6682
20011TIP3    H281525   6.491   1.436   0.672 -3.5698  1.2624 -1.6670
20012TIP3   OH281526   0.583   5.865  12.251  0.5681 -0.0510 -0.4574
20012TIP3    H181527   0.520   5.831  12.314  1.3866  0.4013  0.6357
20012TIP3    H281528   0.577   5.960  12.260 -0.2156  0.0875 -2.0002
20013TIP3   OH281529   0.324   6.298   5.950 -0.1811  0.6569 -0.1513
20013TIP3    H181530   0.235   6.285   5.985  1.0189 -1.8829  2.4005
20013TIP3    H281531   0.319   6.266   5.860 -1.8059  0.3399  0.0219
20014TIP3   OH281532   2.311   6.086   1.592 -0.2102  0.1986  0.4182
20014TIP3    H181533   2.366   6.056   1.664 -0.0378  3.5851  1.8902
20014TIP3    H281534   2.367   6.079   1.514 -0.1116 -2.6952  0.6655
20015TIP3   OH281535   4.935   5.678  15.706  0.6180  0.3013  0.4684
20015TIP3    H181536   4.916   5.603  15.651 -0.3037 -0.4331  1.7298
20015TIP3    H281537   5.029   5.676  15.719  0.7306 -0.0113 -0.3636
20016TIP3   OH281538   1.569   4.846  16.731  0.3193  0.2203 -0.0000
20016TIP3    H181539   1.630   4.775  16.715  0.8154  0.8685 -1.0465
20016TIP3    H281540   1.590   4.877  16.819  3.0123  1.8670 -1.1277
20017TIP3   OH281541   1.477   4.284  15.158 -0.1076  0.1200 -0.0249
20017TIP3    H181542   1.421   4.289  15.080  0.5715 -1.1761 -0.6217
20017TIP3    H281543   1.542   4.353  15.145 -0.5753  0.5547 -0.1140
20018TIP3   OH281544   4.051   1.653  14.140 -0.1755  0.3801  0.1711
20018TIP3    H181545   4.036   1.599  14.218 -0.6437  0.8397  0.4048
20018TIP3    H281546   3.971   1.643  14.089 -0.1870  0.7064  0.1261
20019TIP3   OH281547   2.908   2.630   2.427  0.6259 -0.8236  0.4769
20019TIP3    H181548   2.844   2.697   2.451  1.1275 -0.5139  0.9897
20019TIP3    H281549   2.981   2.644   2.488  1.5877 -0.5490 -0.6762
20020TIP3   OH281550   1.821   2.073  15.365  0.6644 -0.3757  0.2836
20020TIP3    H181551   1.728   2.051  15.371 -0.0798  2.4669  0.7000
20020TIP3    H281552   1.847   2.091  15.455  1.7760 -1.4901  0.2163
20021TIP3   OH281553   4.503   0.226   2.007 -0.1732  0.0155  0.2266
20021TIP3    H181554   4.438   0.196   2.070  1.4862 -0.3121  1.8542
20021TIP3    H281555   4.562   0.151   1.995 -1.0983 -0.3600 -2.6895
20022TIP3   OH281556   0.865   5.134  13.373 -0.1272 -0.1200  0.6752
20022TIP3    H181557   0.804   5.206  13.391  0.9705  1.7023 -2.1696
20022TIP3    H281558   0.817   5.078  13.311  0.4903  0.5139 -0.4068
20023TIP3   OH281559   5.541   1.734   5.606 -0.1407  0.9309 -0.0475
20023TIP3    H181560   5.578   1.787   5.535 -1.2834 -1.6432 -2.7924
20023TIP3    H281561   5.451   1.765   5.615  0.0073  1.2636  0.3136
20024TIP3   OH281562   0.871   2.055   5.366 -0.2504 -0.7224 -0.0942
20024TIP3    H181563   0.958   2.017   5.380 -0.4761 -0.4676  2.3146
20024TIP3    H281564   0.834   2.064   5.453 -0.4900  4.4077 -0.4308
20025TIP3   OH281565   5.825   2.750  16.197 -1.3401  0.1025  0.1987
20025TIP3    H181566   5.860   2.748  16.286 -1.2579 -1.9343  0.1748
20025TIP3    H281567   5.897   2.721  16.142 -2.3595 -2.1135 -0.0891
20026TIP3   OH281568   4.861   2.212  10.703 -0.1777  0.6616  0.4293
20026TIP3    H181569   4.877   2.285  10.763  1.0712 -1.5514  2.9896
20026TIP3    H281570   4.769   2.220  10.680 -0.1524  2.8425  0.8250
20027TIP3   OH281571   4.676   3.732   0.806  0.1858 -1.2768  0.1382
20027TIP3    H181572   4.703   3.818   0.839  0.3012 -1.1051 -0.3976
20027TIP3    H281573   4.602   3.707   0.861  0.9266 -1.3935  1.1125
20028TIP3   OH281574   5.102   3.053   2.539  0.4581 -0.6774  0.0222
20028TIP3    H181575   5.054   3.105   2.603  0.7302  0.4260 -0.6455
20028TIP3    H281576   5.136   2.979   2.590 -1.1891 -1.0273  0.6806
20029TIP3   OH281577   3.194   5.667  11.988 -0.2567 -0.1344  0.7560
20029TIP3    H181578   3.215   5.731  12.057 -0.6006  0.6581  0.1433
20029TIP3    H281579   3.179   5.585  12.035 -0.8280  0.4729  1.6708
20030TIP3   OH281580   6.021   2.931  11.025  0.2526 -0.1555 -0.2388
20030TIP3    H181581   5.975   2.912  11.106  1.1814  2.8620  1.1250
20030TIP3    H281582   6.061   2.847  11.000 -0.3010 -1.2331  2.2084
20031TIP3   OH281583   2.647   1.773   3.209  0.1912 -0.1215  0.9753
20031TIP3    H181584   2.678   1.787   3.299  0.7873 -0.7417  0.8733
20031TIP3    H281585   2.716   1.811   3.154 -1.3526  2.6530  0.7719
20032TIP3   OH281586   5.168   0.165  11.389 -0.3707  1.1657  0.3051
20032TIP3    H181587   5.236   0.228  11.367  0.6990  0.0703  0.3947
20032TIP3    H281588   5.164   0.168  11.485  0.6625  0.1190  0.3971
20033TIP3   OH281589   4.800   6.183  14.544 -0.0507  0.7435 -0.8885
20033TIP3    H181590   4.803   6.209  14.636 -1.6710 -1.7590 -0.0341
20033TIP3    H281591   4.892   6.175  14.519  0.5574 -2.0281  1.6680
20034TIP3   OH281592   3.492   2.409   0.283 -0.8304  0.3989  0.0461
20034TIP3    H181593   3.520   2.493   0.246 -2.3503  1.1024  0.3904
20034TIP3    H281594   3.498   2.347   0.210  1.5087  0.4766  0.0979
20035TIP3   OH281595   5.606   6.245   3.693 -0.5833 -0.5607  0.1569
20035TIP3    H181596   5.577   6.183   3.760 -0.1152  1.0167  1.9060
20035TIP3    H281597   5.700   6.253   3.707 -0.7624  1.1817  0.5679
20036TIP3   OH281598   3.151   2.234   3.998 -0.2581  0.3494  0.1912
20036TIP3    H181599   3.227   2.199   4.045 -2.2857 -2.0304  1.9820
20036TIP3    H281600   3.119   2.160   3.947 -0.3915  1.8247 -1.9727
20037TIP3   OH281601   3.428   4.368  13.063 -0.0875  0.1318 -0.4139
20037TIP3    H181602   3.470   4.450  13.089 -0.3055 -0.5330  2.3050
20037TIP3    H281603   3.473   4.343  12.982  1.1939  2.0165 -0.3515
20038TIP3   OH281604   3.576   2.524   3.141  0.0760  0.8061 -0.3395
20038TIP3    H181605   3.649   2.474   3.179 -0.1854  0.2251 -0.6036
20038TIP3    H281606   3.616   2.607   3.114  0.9085  0.0282 -1.5976
20039TIP3   OH281607   3.800   4.435  16.309  0.3400  0.0874 -0.7300
20039TIP3    H181608   3.863   4.494  16.351 -0.0962 -0.3088  0.5027
20039TIP3    H281609   3.772   4.483  16.231  0.2781  1.3717  0.0488
20040TIP3   OH281610   2.265   3.734  14.752  0.4784  0.0560 -0.6269
20040TIP3    H181611   2.328   3.710  14.820 -1.4571 -2.3817  0.4523
20040TIP3    H281612   2.217   3.808  14.788  0.7732  0.0419 -0.1967
20041TIP3   OH281613   5.671   3.032  11.703 -0.0340  0.0810 -0.7583
20041TIP3    H181614   5.643   3.004  11.616  1.4335 -1.8697 -0.6788
20041TIP3    H281615   5.739   3.098  11.687  0.3536 -0.3977 -1.1119
20042TIP3   OH281616   0.803   6.707  11.892  0.1752 -0.0572  0.5089
20042TIP3    H181617   0.784   6.774  11.958 -2.0459 -0.8437  0.7699
20042TIP3    H281618   0.727   6.650  11.895  1.5455 -2.0272 -0.4274
20043TIP3   OH281619   6.043   4.193   1.584  0.3570  0.2170  0.1938
20043TIP3    H181620   6.090   4.232   1.658  0.6381  0.5687 -0.1664
20043TIP3    H281621   5.951   4.200   1.607  0.4134  0.9760  0.1894
20044TIP3   OH281622   2.827   1.865  16.321  0.1786 -0.5529  0.1093
20044TIP3    H181623   2.829   1.959  16.338  2.4103 -0.2071 -1.6356
20044TIP3    H281624   2.747   1.852  16.269 -1.6438 -0.1717  2.5942
20045TIP3   OH281625   3.779   6.090   0.985  0.5063  0.1273  0.2065
20045TIP3    H181626   3.756   6.055   0.899 -0.0595 -0.0877  0.4423
20045TIP3    H281627   3.782   6.185   0.972 -1.6146  0.2676  0.4009
20046TIP3   OH281628   0.853   0.284   0.197  0.0347 -0.1128  0.0604
20046TIP3    H181629   0.887   0.276   0.286  0.5301  1.2686  0.0174
20046TIP3    H281630   0.899   0.215   0.148 -0.7136 -1.2988  0.9739
20047TIP3   OH281631   3.773   4.781  12.386  0.4771  0.4202  0.3468
20047TIP3    H181632   3.726   4.729  12.451 -1.7500  3.1117  1.1069
20047TIP3    H281633   3.726   4.766  12.304 -0.4868  1.5078  0.6705
20048TIP3   OH281634   6.226   0.205  12.165 -0.1369 -0.1447  0.5347
20048TIP3    H181635   6.287   0.265  12.121  0.8183  0.9344  3.0936
20048TIP3    H281636   6.158   0.263  12.200 -0.8102 -0.9374  0.5451
20049TIP3   OH281637   4.448   0.335   1.405 -0.2658  0.3480  0.0588
20049TIP3    H181638   4.395   0.268   1.448  0.2734 -0.2552 -0.1947
20049TIP3    H281639   4.531   0.335   1.452  0.1162  0.0968 -0.6016
20050TIP3   OH281640   1.188   4.124  15.085  1.2178  0.2163 -0.0911
20050TIP3    H181641   1.252   4.090  15.023  1.7716  0.4974  0.3181
20050TIP3    H281642   1.146   4.046  15.121  2.2098 -0.0386  0.5571
20051TIP3   OH281643   5.720   5.293  13.652  0.0187 -0.6160  0.4186
20051TIP3    H181644   5.814   5.291  13.673  0.2345 -0.4780 -0.5184
20051TIP3    H281645   5.707   5.220  13.592 -0.3625 -0.2757  0.0819
20052TIP3   OH281646   4.442   0.111  13.098  0.2192  0.7124  0.7939
20052TIP3    H181647   4.462   0.165  13.174 -1.1635  0.0886  1.6550
20052TIP3    H281648   4.366   0.059  13.125  0.4505 -0.4219 -0.5939
20053TIP3   OH281649   1.630   4.180  15.597  0.2393 -0.5052  0.2333
20053TIP3    H181650   1.612   4.106  15.540  1.7720 -0.0852 -0.8415
20053TIP3    H281651   1.593   4.256  15.552 -0.9120 -0.5099  1.1081
20054TIP3   OH281652   5.944   2.141  13.669  0.4266 -0.3564 -0.3962
20054TIP3    H181653   5.942   2.047  13.650 -1.8708 -0.7711  1.3366
20054TIP3    H281654   5.870   2.177  13.620 -0.6899 -0.0895  1.3815
20055TIP3   OH281655   2.831   3.071   4.509  0.3957 -0.7871  0.0739
20055TIP3    H181656   2.737   3.051   4.514  0.0799  0.8005  1.9703
20055TIP3    H281657   2.844   3.101   4.420 -1.2405  0.2915  0.1456
20056TIP3   OH281658   0.358   4.453  16.017  0.0689 -0.0434 -0.4300
20056TIP3    H181659   0.348   4.384  15.951 -2.3108  1.3738 -1.6709
20056TIP3    H281660   0.275   4.501  16.015  0.5232  1.0887  2.4791
20057TIP3   OH281661   1.467   5.295   4.349  1.2721 -0.0831 -0.3272
20057TIP3    H181662   1.536   5.229   4.351  1.8086  0.2511 -3.2789
20057TIP3    H281663   1.386   5.245   4.337  1.7871 -0.3100 -3.6784
20058TIP3   OH281664   1.457   3.740  10.722 -0.7140  0.9310  0.1193
20058TIP3    H181665   1.441   3.830  10.694 -0.2464  0.3812 -2.0913
20058TIP3    H281666   1.391   3.688  10.677 -1.5787  0.2264  2.1121
20059TIP3   OH281667   4.670   6.386  12.627 -0.3712 -0.6251  0.2324
20059TIP3    H181668   4.744   6.430  12.669 -0.3448  0.1783 -0.6110
20059TIP3    H281669   4.593   6.427  12.667 -0.3613  1.0787 -1.3386
20060TIP3   OH281670   1.899   3.879   0.151  0.2814 -0.0419 -0.2930
20060TIP3    H181671   1.812   3.848   0.126  0.0097  0.3998  0.1000
20060TIP3    H281672   1.924   3.823   0.225  0.3353 -0.1663 -0.4037
20061TIP3   OH281673   5.332   2.457   3.276  0.3226  0.1160 -0.1992
20061TIP3    H181674   5.332   2.399   3.353  1.6032  0.1067 -0.1762
20061TIP3    H281675   5.258   2.515   3.290  1.2014  0.8902  1.6717
20062TIP3   OH281676   4.184   3.334  16.730  0.0859 -0.3762 -0.3315
20062TIP3    H181677   4.232   3.261  16.693 -1.9376 -1.9907  0.0834
20062TIP3    H281678   4.117   3.355  16.665 -1.3192 -0.9959  0.8561
20063TIP3   OH281679   6.151   5.058   0.440 -0.1871  0.4830  0.1701
20063TIP3    H181680   6.057   5.041   0.434  0.0972 -1.1399 -0.1990
20063TIP3    H281681   6.162   5.146   0.405 -1.3535  0.0173 -1.4624
20064TIP3   OH281682   1.063   1.879   4.298  0.1839 -1.0573  0.2100
20064TIP3    H181683   1.138   1.899   4.243 -2.0402  0.5913 -2.4849
20064TIP3    H281684   1.047   1.960   4.348  1.0618 -1.9265  1.9970
20065TIP3   OH281685   2.881   6.621  11.364 -0.1543 -0.3274  0.2788
20065TIP3    H181686   2.885   6.537  11.318  0.9447 -0.5076  0.6798
20065TIP3    H281687   2.930   6.607  11.445 -0.4192  0.5483  0.6023
20066TIP3   OH281688   5.803   3.232   3.894 -0.3613  0.6884  0.4689
20066TIP3    H181689   5.767   3.187   3.818  0.1181 -1.0374  1.2106
20066TIP3    H281690   5.893   3.254   3.868 -0.5965  1.2290  0.1032
20067TIP3   OH281691   0.103   1.295  16.841 -0.2626 -0.4871 -0.3709
20067TIP3    H181692   0.039   1.235  16.805 -2.3586  2.4116 -1.8958
20067TIP3    H281693   0.053   1.352  16.899  1.6971 -0.3889  1.3343
20068TIP3   OH281694   6.290   2.960  11.815 -0.5747 -0.4184  0.8801
20068TIP3    H181695   6.384   2.951  11.806 -0.6454 -0.4810  0.1659
20068TIP3    H281696   6.265   2.893  11.880 -0.2219 -0.8701  0.5555
20069TIP3   OH281697   2.999   2.192   0.551  0.0934  0.0096 -0.5184
20069TIP3    H181698   3.005   2.284   0.577  1.6155 -0.4756  1.1250
20069TIP3    H281699   2.933   2.154   0.609  1.4154 -0.4548  0.7674
20070TIP3   OH281700   6.657   3.947  12.588  0.0534  0.1851 -0.3523
20070TIP3    H181701   6.745   3.975  12.564  0.8947 -1.0465  1.0978
20070TIP3    H281702   6.603   3.966  12.511  1.6035  0.8485 -1.3094
20071TIP3   OH281703   0.291   1.745  14.301 -0.6078  0.2149  0.4383
20071TIP3    H181704   0.224   1.787  14.354 -0.6530 -0.1225  0.6497
20071TIP3    H281705   0.367   1.738  14.359 -0.9917 -1.1176  0.8160
20072TIP3   OH281706   2.468   0.864   2.098 -0.1699 -0.1301  0.2627
20072TIP3    H181707   2.543   0.924   2.096 -0.8875  0.7946  0.6048
20072TIP3    H281708   2.400   0.909   2.047 -0.6670 -0.7206  0.3996
20073TIP3   OH281709   1.625   0.646   0.725 -0.4535 -0.0069 -0.4695
20073TIP3    H181710   1.699   0.673   0.672 -1.1505  3.1664 -0.0381
20073TIP3    H281711   1.551   0.642   0.664 -0.4204 -0.6958 -0.4718
20074TIP3   OH281712   5.966   1.321  17.130  0.2771 -0.1892  0.0435
20074TIP3    H181713   5.994   1.240  17.173 -0.7386 -1.2712 -1.2438
20074TIP3    H281714   5.873   1.330  17.154  0.4696  0.8060  0.4678
20075TIP3   OH281715   4.492   4.170  14.686  0.1226  0.6531  0.0089
20075TIP3    H181716   4.438   4.157  14.764  0.6607 -0.7627  0.1765
20075TIP3    H281717   4.580   4.146  14.713  0.4201  0.7127 -0.8747
20076TIP3   OH281718   0.179   1.305   1.901 -0.3223 -0.1798  0.0950
20076TIP3    H181719   0.102   1.302   1.958 -0.7513  0.1140 -0.4636
20076TIP3    H281720   0.165   1.382   1.846 -0.4366 -1.0490 -1.1353
20077TIP3   OH281721   0.045   2.193  14.521 -0.2112  0.3623 -0.0597
20077TIP3    H181722   0.001   2.251  14.583  1.5048  0.2316  1.3595
20077TIP3    H281723   0.137   2.194  14.548 -0.0476 -2.8103 -0.1245
20078TIP3   OH281724   5.476   3.407   2.301 -0.0321 -0.4105 -0.2383
20078TIP3    H181725   5.565   3.440   2.288 -0.5746  0.9874 -0.5358
20078TIP3    H281726   5.419   3.475   2.265 -1.2289 -1.3529 -0.1966
20079TIP3   OH281727   4.180   2.879   4.883  0.6203 -0.2536 -0.6583
20079TIP3    H181728   4.115   2.823   4.927 -0.5690  2.2323  1.0024
20079TIP3    H281729   4.264   2.852   4.920 -0.1280  0.2961  1.6133
20080TIP3   OH281730   0.849   5.739  15.557  0.8522 -0.5738 -0.2043
20080TIP3    H181731   0.943   5.757  15.552  0.5078  1.2188 -0.8275
20080TIP3    H281732   0.809   5.825  15.567 -0.6701 -1.4023  1.2683
20081TIP3   OH281733   2.730   6.296   4.532  0.2132 -0.6237  0.0598
20081TIP3    H181734   2.824   6.302   4.549  0.1139 -1.1383  0.8631
20081TIP3    H281735   2.719   6.211   4.490  0.1774 -0.2996 -0.5964
20082TIP3   OH281736   1.029   3.825   1.895 -0.1407 -0.1297  0.2106
20082TIP3    H181737   1.117   3.845   1.928  0.1334  0.4483 -0.8466
20082TIP3    H281738   1.004   3.904   1.847 -1.6094  0.0633  1.2322
20083TIP3   OH281739   2.278   6.318  12.661 -0.7094  0.1598  0.4721
20083TIP3    H181740   2.238   6.319  12.747 -0.2702  2.2893  0.7195
20083TIP3    H281741   2.372   6.322  12.678 -0.6313  1.0169 -0.0578
20084TIP3   OH281742   2.092   2.209  16.888  0.2390 -0.0893  0.2180
20084TIP3    H181743   2.098   2.305  16.887  0.3703 -0.0345  2.1428
20084TIP3    H281744   2.046   2.187  16.807  1.1219  1.5178 -0.7570
20085TIP3   OH281745   0.514   0.107   3.668 -0.1406  0.1372  0.7957
20085TIP3    H181746   0.497   0.177   3.731  0.0492  0.9486 -0.0225
20085TIP3    H281747   0.565   0.149   3.599  0.0317 -0.8337  0.3148
20086TIP3   OH281748   3.346   1.601  14.734  0.1140  0.2904  0.4456
20086TIP3    H181749   3.389   1.674  14.690 -0.6405  0.7843  0.5100
20086TIP3    H281750   3.338   1.630  14.825 -1.8768  0.9519  0.1091
20087TIP3   OH281751   6.768   3.873   3.731 -0.3372  0.1470  0.1443
20087TIP3    H181752   6.730   3.954   3.697 -0.8719  0.3177  1.1333
20087TIP3    H281753   6.732   3.864   3.819 -0.8491 -1.5460 -0.2102
20088TIP3   OH281754   1.275   4.017  13.775 -0.1870  0.4698 -0.0987
20088TIP3    H181755   1.369   4.009  13.792 -0.3970 -0.8194  0.5794
20088TIP3    H281756   1.257   4.110  13.781  0.7650  0.5774  1.4083
20089TIP3   OH281757   3.990   2.085   3.219  0.9679  0.1724 -0.1668
20089TIP3    H181758   4.001   2.004   3.169 -4.5639 -1.3959  0.4190
20089TIP3    H281759   3.960   2.149   3.155  3.5804  1.3806 -0.3079
20090TIP3   OH281760   1.349   4.301   2.437 -0.1828  0.0897 -0.0014
20090TIP3    H181761   1.359   4.396   2.445 -1.1251  0.1807  0.3140
20090TIP3    H281762   1.313   4.274   2.522 -0.4984 -0.4526 -0.3026
20091TIP3   OH281763   3.841   3.321  16.627  0.3078 -0.2828 -0.4347
20091TIP3    H181764   3.816   3.383  16.695 -0.9914  1.4145 -2.3268
20091TIP3    H281765   3.909   3.366  16.577  0.5328 -1.0905 -0.8684
20092TIP3   OH281766   4.434   1.701  16.438  0.4441 -0.1028 -0.3376
20092TIP3    H181767   4.381   1.705  16.517  0.0885 -0.3387 -0.5626
20092TIP3    H281768   4.375   1.669  16.370  0.3321  1.5069 -1.0447
20093TIP3   OH281769   3.193   6.754  12.564  0.6232 -0.6395 -0.2468
20093TIP3    H181770   3.112   6.766  12.614  0.9515 -1.0621  0.3989
20093TIP3    H281771   3.221   6.665  12.585  1.2918 -0.4720 -0.4098
20094TIP3   OH281772   2.566   6.202   1.281 -0.3564  0.2995 -0.0049
20094TIP3    H181773   2.611   6.283   1.258 -1.1020  0.3307 -1.4966
20094TIP3    H281774   2.588   6.187   1.373  2.8212  0.1778 -0.6998
20095TIP3   OH281775   1.335   5.629   1.873 -0.1861 -0.3403  0.1157
20095TIP3    H181776   1.259   5.666   1.918  0.0470 -0.1315  0.3366
20095TIP3    H281777   1.411   5.666   1.919  0.0568  0.0661 -0.5977
20096TIP3   OH281778   6.170   0.741  12.456 -0.0810 -0.0142  0.5031
20096TIP3    H181779   6.194   0.832  12.470  0.5077 -0.1284  0.2693
20096TIP3    H281780   6.251   0.698  12.429 -0.5246 -0.4386 -0.1939
20097TIP3   OH281781   2.619   3.962   0.296 -0.1357 -0.3045  0.5591
20097TIP3    H181782   2.527   3.942   0.309 -0.0241 -1.9956 -0.7713
20097TIP3    H281783   2.662   3.933   0.377 -0.7971  0.9707  1.3918
20098TIP3   OH281784   2.058   0.514   1.822  0.7606 -0.1367 -0.0313
20098TIP3    H181785   2.108   0.595   1.808  0.8449  0.0987  1.5042
20098TIP3    H281786   2.051   0.506   1.917  0.2268 -1.6278 -0.1742
20099TIP3   OH281787   1.577   2.236   3.832  0.6353 -0.1583  0.1129
20099TIP3    H181788   1.559   2.270   3.744  1.5673 -0.8041 -0.3506
20099TIP3    H281789   1.554   2.307   3.891  1.4710  0.8686 -0.7617
20100TIP3   OH281790   1.420   2.558  11.692  0.1057  0.5517  0.2969
20100TIP3    H181791   1.506   2.529  11.720 -0.3013 -0.5795  0.4339
20100TIP3    H281792   1.395   2.496  11.623  0.1136  1.8987 -0.9641
20101TIP3   OH281793   3.535   6.153  12.287  0.4370 -0.1631 -0.6827
20101TIP3    H181794   3.460   6.121  12.337  0.2939  0.0867 -0.7331
20101TIP3    H281795   3.535   6.099  12.207  0.0342  0.1390 -0.8933
20102TIP3   OH281796   6.176   2.728  13.333  0.1980  0.0674 -0.7285
20102TIP3    H181797   6.129   2.705  13.413 -0.7471  0.3253 -1.1898
20102TIP3    H281798   6.236   2.655  13.318  1.2709  0.5760  0.8625
20103TIP3   OH281799   2.059   1.703   3.908  0.3460 -0.1891 -0.2797
20103TIP3    H181800   1.981   1.696   3.853 -1.3194  1.6827  1.6765
20103TIP3    H281801   2.076   1.796   3.915  2.2550 -0.5217  0.0681
20104TIP3   OH281802   6.087   6.439  12.069  0.1856 -0.6049  0.0440
20104TIP3    H181803   6.038   6.487  12.002 -1.1235 -3.3889 -1.1251
20104TIP3    H281804   6.020   6.403  12.126  1.2677  1.3089  2.7196
20105TIP3   OH281805   1.036   4.470   0.144  0.1172 -0.3154 -0.3132
20105TIP3    H181806   1.058   4.407   0.213  1.0978 -0.6406 -0.8989
20105TIP3    H281807   1.118   4.517   0.128 -0.8634  2.0370  0.9906
20106TIP3   OH281808   1.210   6.266  15.059  0.0971  0.1478 -0.2092
20106TIP3    H181809   1.250   6.218  15.132  2.0239  0.4244 -1.0237
20106TIP3    H281810   1.118   6.240  15.061  1.1171 -4.2810 -1.0928
20107TIP3   OH281811   1.303   6.824  11.198  0.4395  0.2719 -0.5054
20107TIP3    H181812   1.242   6.806  11.127 -0.4298  0.5897  0.1454
20107TIP3    H281813   1.291   6.751  11.259  0.5495  0.4461 -0.2720
20108TIP3   OH281814   2.151   1.639  13.697 -0.3917 -0.0526 -0.3743
20108TIP3    H181815   2.132   1.674  13.784  0.9300  0.2793 -0.1905
20108TIP3    H281816   2.130   1.710  13.638  0.1407  0.2641 -0.1894
20109TIP3   OH281817   5.388   3.531  14.861 -0.6592  0.3396  0.0176
20109TIP3    H181818   5.297   3.503  14.856 -0.6803  0.3021  0.5294
20109TIP3    H281819   5.403   3.579  14.780 -1.2076  0.5598  0.0423
20110TIP3   OH281820   2.879   4.531   0.382 -0.1613 -0.3452 -0.4112
20110TIP3    H181821   2.811   4.595   0.358  1.1449  1.1298 -0.3351
20110TIP3    H281822   2.936   4.527   0.305  0.2693 -0.7648 -0.0757
20111TIP3   OH281823   4.448   4.255   0.391  0.2588 -0.4554 -0.2412
20111TIP3    H181824   4.397   4.178   0.365  1.6743 -1.6421  0.3543
20111TIP3    H281825   4.503   4.274   0.315 -1.3771  1.1582 -1.0888
20112TIP3   OH281826   6.366   2.191   5.319 -0.2789  0.0888 -0.4714
20112TIP3    H181827   6.452   2.171   5.358 -0.3637 -0.3558 -0.5065
20112TIP3    H281828   6.314   2.112   5.334 -0.8006  0.4959 -0.1309
20113TIP3   OH281829   2.583   3.128  15.507  0.3030 -0.0288  0.4747
20113TIP3    H181830   2.659   3.156  15.457 -0.3819  0.8924 -0.0724
20113TIP3    H281831   2.569   3.197  15.572  1.9043 -1.7530  2.8466
20114TIP3   OH281832   5.332   2.204   1.275 -0.0852  0.3393 -0.0909
20114TIP3    H181833   5.292   2.120   1.300 -3.1823  1.1607 -1.6948
20114TIP3    H281834   5.387   2.183   1.200  0.7753 -0.5249  0.7561
20115TIP3   OH281835   3.542   1.964  17.025  0.1126 -0.5127  0.7050
20115TIP3    H181836   3.453   1.984  16.995  0.2812  0.7155  0.9637
20115TIP3    H281837   3.598   2.027  16.978  0.5649  0.3564  2.3226
20116TIP3   OH281838   0.093   2.396   5.145  0.0017  0.1845 -0.5397
20116TIP3    H181839   0.179   2.413   5.182 -0.1206  2.4804 -1.1084
20116TIP3    H281840   0.076   2.472   5.089 -2.1921 -0.4265 -0.8067
20117TIP3   OH281841   5.956   2.484  16.545 -0.7765  0.5212 -0.0750
20117TIP3    H181842   5.962   2.434  16.626 -0.1570 -1.1800 -1.1289
20117TIP3    H281843   5.935   2.420  16.477 -2.5465  2.0853 -1.1148
20118TIP3   OH281844   2.497   4.545   0.954  0.3121  0.1352 -0.1756
20118TIP3    H181845   2.458   4.567   1.039  0.0985 -0.8195 -0.0126
20118TIP3    H281846   2.570   4.606   0.945 -0.1167  0.7478  0.3511
20119TIP3   OH281847   4.586   5.502  11.582  0.4481  0.1868 -0.2172
20119TIP3    H181848   4.541   5.460  11.655 -1.0309  0.0756 -1.1617
20119TIP3    H281849   4.516   5.536  11.526  1.4800 -0.7536 -2.2085
20120TIP3   OH281850   6.376   1.627   4.915 -0.1348 -1.0067 -0.0894
20120TIP3    H181851   6.353   1.591   5.001 -1.2473  2.0261  1.0025
20120TIP3    H281852   6.469   1.647   4.922 -0.6819  1.3760  1.3638
20121TIP3   OH281853   3.344   3.566  13.523  0.0989  0.1032 -0.1220
20121TIP3    H181854   3.295   3.615  13.589  0.0333 -1.1105  0.7827
20121TIP3    H281855   3.281   3.500  13.491  0.9262 -1.0957  0.6318
20122TIP3   OH281856   2.159   6.046  11.976 -0.7636 -0.4315 -0.9631
20122TIP3    H181857   2.092   6.026  12.041  0.3929  1.0024  0.7662
20122TIP3    H281858   2.242   6.039  12.024  0.1984 -0.0378 -2.4821
20123TIP3   OH281859   4.424   2.359  13.388 -0.2986 -0.0293 -0.5716
20123TIP3    H181860   4.432   2.270  13.421  0.1995  0.1123 -0.2913
20123TIP3    H281861   4.510   2.398  13.405 -0.5907  0.5789 -0.4607
20124TIP3   OH281862   1.574   3.605   0.174  0.0666  0.0511  0.1376
20124TIP3    H181863   1.593   3.626   0.266  2.4595  0.5152 -0.4025
20124TIP3    H281864   1.577   3.689   0.129  2.2175 -0.4920 -0.8428
20125TIP3   OH281865   5.003   5.335  17.122  0.2793 -0.3008  0.6987
20125TIP3    H181866   5.064   5.284  17.175  1.6150 -0.2012 -0.6727
20125TIP3    H281867   4.987   5.414  17.173  1.3835 -0.2943  1.0597
20126TIP3   OH281868   1.066   1.058  11.791 -0.0010  0.5275  0.0952
20126TIP3    H181869   0.989   1.095  11.835 -0.7324  0.5682 -1.1689
20126TIP3    H281870   1.056   0.964  11.802 -0.0188  0.5534  0.2954
20127TIP3   OH281871   0.168   5.906   2.057  0.0059  0.2468 -0.0382
20127TIP3    H181872   0.179   5.983   2.112 -0.4921  0.6083 -0.4355
20127TIP3    H281873   0.256   5.884   2.028 -0.0570  2.1831 -1.9719
20128TIP3   OH281874   6.332   5.573  15.735  0.1675 -0.2723  0.2007
20128TIP3    H181875   6.285   5.503  15.782 -1.0038  0.6601  0.4586
20128TIP3    H281876   6.341   5.540  15.646  1.6955 -1.7221  0.8234
20129TIP3   OH281877   5.269   3.941   4.440  0.0710  0.1526  0.5095
20129TIP3    H181878   5.319   3.860   4.428  0.8847  0.7289 -0.0912
20129TIP3    H281879   5.304   4.001   4.375 -1.2546  0.6597  0.2249
20130TIP3   OH281880   4.986   2.549  12.182 -0.1042  0.2782  0.0832
20130TIP3    H181881   4.967   2.603  12.105  1.6667 -0.3966 -0.8967
20130TIP3    H281882   5.000   2.611  12.253 -0.8479  0.9637 -0.3560
20131TIP3   OH281883   3.075   1.508   1.408 -0.2373  0.1427  0.3141
20131TIP3    H181884   3.150   1.449   1.412 -1.2758 -1.1522  2.9023
20131TIP3    H281885   3.113   1.596   1.404  1.3828 -0.5375  0.1383
20132TIP3   OH281886   2.951   2.128   4.262  0.5317 -0.1043  0.7078
20132TIP3    H181887   3.012   2.064   4.300 -0.1695  0.1483  2.3466
20132TIP3    H281888   2.991   2.213   4.282  0.4363  0.0302  0.3426
20133TIP3   OH281889   5.365   2.256  11.008 -0.4236 -0.4912 -0.6772
20133TIP3    H181890   5.282   2.273  10.964 -0.5148 -0.4821 -0.5004
20133TIP3    H281891   5.428   2.313  10.963 -0.9341  1.1903  0.6648
20134TIP3   OH281892   1.650   3.575  14.398  0.3262 -0.0982 -0.1507
20134TIP3    H181893   1.642   3.480  14.389 -0.5750 -0.2343  1.6193
20134TIP3    H281894   1.725   3.587  14.456  0.2287  0.2538 -0.0969
20135TIP3   OH281895   0.598   5.139  12.992  0.1026  0.0669  0.0131
20135TIP3    H181896   0.620   5.200  12.922  1.2857 -0.4124 -0.0604
20135TIP3    H281897   0.556   5.065  12.948  1.0695 -0.3454 -0.2490
20136TIP3   OH281898   0.401   5.582   4.178  0.7692  0.1658  0.7331
20136TIP3    H181899   0.373   5.548   4.262 -0.2960  1.6114  1.0086
20136TIP3    H281900   0.412   5.676   4.193 -0.7089  0.6806 -1.0347
20137TIP3   OH281901   4.714   4.574  13.241  0.5635 -0.3049  0.1642
20137TIP3    H181902   4.655   4.547  13.170  0.4281 -0.5901  0.3849
20137TIP3    H281903   4.776   4.501  13.250  1.7798  0.5382 -0.9519
20138TIP3   OH281904   5.900   4.401  16.673 -0.5330  0.4916  0.2570
20138TIP3    H181905   5.851   4.442  16.744 -0.3152  1.0850  0.0657
20138TIP3    H281906   5.832   4.374  16.610 -0.8962 -1.5550  1.4191
20139TIP3   OH281907   5.189   1.539  16.928 -0.0943 -0.0662  0.6075
20139TIP3    H181908   5.105   1.549  16.973  0.6316  1.3619  1.7554
20139TIP3    H281909   5.170   1.558  16.836 -0.6796  2.7498  1.1984
20140TIP3   OH281910   5.868   2.401  11.245  0.2645 -0.0903 -0.0640
20140TIP3    H181911   5.943   2.462  11.246  0.1763  0.0178  0.3172
20140TIP3    H281912   5.881   2.349  11.166  0.1152  0.7064 -0.6307
20141TIP3   OH281913   0.373   6.579  12.779  0.2642 -0.0168  0.1314
20141TIP3    H181914   0.302   6.555  12.838  0.2706 -0.6873 -0.1237
20141TIP3    H281915   0.436   6.624  12.834 -0.5153  0.9146  0.2956
20142TIP3   OH281916   2.045   3.098  11.844 -0.2484 -0.2910 -0.5730
20142TIP3    H181917   1.958   3.069  11.869 -0.9490  0.6011 -1.8688
20142TIP3    H281918   2.099   3.018  11.847 -1.1546 -0.8972 -0.0225
20143TIP3   OH281919   0.363   1.219  17.139 -0.3712 -0.4628 -0.2352
20143TIP3    H181920   0.443   1.177  17.106  0.7348 -1.1109  2.9026
20143TIP3    H281921   0.358   1.301  17.090  1.6866 -0.8268 -1.1963
20144TIP3   OH281922   4.142   1.288   2.673 -0.3452  0.6478 -0.0980
20144TIP3    H181923   4.144   1.383   2.679  0.9390  0.6762 -0.7495
20144TIP3    H281924   4.129   1.270   2.580  0.2391  0.1885 -0.0973
20145TIP3   OH281925   5.241   5.985  13.171 -0.2777  0.6956 -0.3670
20145TIP3    H181926   5.322   6.004  13.217 -0.3676  0.1381  0.0362
20145TIP3    H281927   5.231   6.057  13.108 -0.0237  1.3305  0.3071
20146TIP3   OH281928   3.583   1.945  15.761  0.2732  0.1407 -0.2639
20146TIP3    H181929   3.595   1.893  15.682 -0.7211  1.1071 -1.1066
20146TIP3    H281930   3.488   1.955  15.768  0.3943  0.8874  0.4970
20147TIP3   OH281931   0.871   5.123  11.307 -0.3535 -0.3035  0.2710
20147TIP3    H181932   0.867   5.031  11.282  0.1670 -0.1745 -0.3153
20147TIP3    H281933   0.780   5.154  11.302 -0.2953 -0.3374 -1.2687
20148TIP3   OH281934   0.960   3.298  15.792  0.0853  0.6544 -0.0203
20148TIP3    H181935   0.943   3.335  15.879  0.0062  0.5841 -0.0063
20148TIP3    H281936   0.896   3.229  15.782  1.2121 -0.5159  0.5932
20149TIP3   OH281937   2.846   3.982  14.000  0.2191  0.1497  0.2168
20149TIP3    H181938   2.811   4.021  14.080  1.8330  1.8820  0.1579
20149TIP3    H281939   2.936   4.015  13.995  0.7898 -1.4925 -1.3012
20150TIP3   OH281940   1.878   3.550  14.537 -0.3948 -0.3305 -0.1297
20150TIP3    H181941   1.891   3.553  14.632 -1.6756  0.2547  0.0413
20150TIP3    H281942   1.931   3.475  14.509 -0.6775 -1.0555  1.1685
20151TIP3   OH281943   3.514   6.365  14.355 -0.1816 -0.2023 -0.2447
20151TIP3    H181944   3.565   6.388  14.278  2.1133  0.7251  1.4085
20151TIP3    H281945   3.539   6.275  14.375 -0.8508 -0.4772 -0.6132
20152TIP3   OH281946   6.749   5.403   3.443 -0.0027  0.4927 -0.5866
20152TIP3    H181947   6.703   5.323   3.419  0.2440  0.3174 -0.4787
20152TIP3    H281948   6.810   5.376   3.512  0.2328  0.7264 -0.7007
20153TIP3   OH281949   4.261   2.432   1.206 -0.2190 -0.0946  0.4125
20153TIP3    H181950   4.252   2.364   1.273 -1.2559 -1.2174 -0.8124
20153TIP3    H281951   4.264   2.385   1.123 -0.6688  1.3395 -0.4700
20154TIP3   OH281952   1.176   3.122  15.383  0.4941  0.3382 -0.7369
20154TIP3    H181953   1.210   3.037  15.411 -2.5534 -1.0593 -0.8421
20154TIP3    H281954   1.211   3.134  15.295  3.0154  0.5125  0.2112
20155TIP3   OH281955   0.066   5.139   0.296 -0.2668  0.5226  0.3143
20155TIP3    H181956   0.009   5.190   0.353 -0.8330 -1.2367  1.4153
20155TIP3    H281957   0.139   5.112   0.351  0.0426  0.1828 -0.2445
20156TIP3   OH281958   4.769   6.484  14.433 -0.0886  0.2760 -0.6111
20156TIP3    H181959   4.756   6.403  14.484  0.1402  0.1750 -0.7106
20156TIP3    H281960   4.698   6.484  14.369 -0.2433  0.2867 -0.4398
20157TIP3   OH281961   6.701   4.780  13.675  0.1563 -0.1078  0.3017
20157TIP3    H181962   6.628   4.781  13.613  0.5060  1.0050 -0.1134
20157TIP3    H281963   6.756   4.708  13.646  0.3113  0.3984 -0.7015
20158TIP3   OH281964   3.492   3.299  14.823 -0.3545  0.0711  0.4853
20158TIP3    H181965   3.475   3.336  14.909  1.2556  2.9593 -0.2827
20158TIP3    H281966   3.438   3.350  14.763 -1.0744 -1.5574 -0.3317
20159TIP3   OH281967   5.344   0.250  15.778 -0.4065  0.8756 -0.1659
20159TIP3    H181968   5.362   0.165  15.818  2.2765  1.9331  1.0877
20159TIP3    H281969   5.346   0.232  15.684 -0.4011 -0.5365  0.0810
20160TIP3   OH281970   4.082   5.932   4.303  0.3448  0.0919  0.1582
20160TIP3    H181971   4.052   6.022   4.319 -0.8920 -0.5443  1.6849
20160TIP3    H281972   4.023   5.899   4.236  1.0179  0.5084 -0.6548
20161TIP3   OH281973   0.506   1.607   4.478  0.5355  0.1489  0.2246
20161TIP3    H181974   0.456   1.605   4.560 -1.5117 -1.0697 -0.9599
20161TIP3    H281975   0.544   1.695   4.476 -1.5201  1.1609  1.2719
20162TIP3   OH281976   6.235   3.458  13.008  0.5339  0.1064  0.1225
20162TIP3    H181977   6.162   3.417  13.053  0.2392 -0.0255 -0.4691
20162TIP3    H281978   6.249   3.404  12.930  1.1680  0.2132  0.1594
20163TIP3   OH281979   0.543   1.892  15.035  0.4570 -0.6086  0.5787
20163TIP3    H181980   0.454   1.863  15.019  0.7856 -1.7437  0.7212
20163TIP3    H281981   0.574   1.925  14.950  0.7485 -2.6040 -0.1304
20164TIP3   OH281982   2.941   0.743  14.730  0.5421 -0.3158 -0.9174
20164TIP3    H181983   2.881   0.732  14.804 -0.0744  0.9819 -1.1906
20164TIP3    H281984   3.026   0.714  14.763  0.5014  1.1604  0.6652
20165TIP3   OH281985   0.274   1.718   5.247  0.1139 -0.2142  0.6120
20165TIP3    H181986   0.294   1.735   5.156 -1.1556 -0.8267  0.1864
20165TIP3    H281987   0.337   1.770   5.297  1.1843 -0.3118 -0.5998
20166TIP3   OH281988   1.051   6.166   4.378 -0.2650 -0.4638 -0.0182
20166TIP3    H181989   0.964   6.149   4.414  0.5745 -2.7253  1.1761
20166TIP3    H281990   1.080   6.082   4.343  1.5917  0.1358 -0.0664
20167TIP3   OH281991   0.749   0.586   5.314 -0.7300  0.1374  0.7790
20167TIP3    H181992   0.809   0.661   5.320  2.1932 -1.7910 -1.4610
20167TIP3    H281993   0.712   0.592   5.226 -0.1549 -1.2108  0.4257
20168TIP3   OH281994   2.648   1.863  13.321  0.2148  0.2045 -0.2289
20168TIP3    H181995   2.691   1.780  13.343 -2.8630 -1.8616 -1.2762
20168TIP3    H281996   2.672   1.880  13.230  1.5492  1.0303  0.2415
20169TIP3   OH281997   3.983   5.017   5.393  0.1149 -0.0541  0.1193
20169TIP3    H181998   3.913   4.954   5.375 -1.2673  1.6375 -0.7122
20169TIP3    H281999   4.016   4.992   5.479 -0.9243 -1.4367  0.1490
20170TIP3   OH282000   2.459   2.694   0.576 -0.1066  0.4809 -0.3674
20170TIP3    H182001   2.432   2.672   0.487  0.4420  1.1098 -0.6977
20170TIP3    H282002   2.430   2.620   0.629  0.3468 -0.3195 -1.2137
20171TIP3   OH282003   3.157   6.824  15.514 -0.4390  0.0857 -0.1864
20171TIP3    H182004   3.140   6.732  15.493 -1.5396  0.0317  0.8062
20171TIP3    H282005   3.142   6.871  15.432 -2.7273 -0.3156 -0.0697
20172TIP3   OH282006   3.590   3.771   1.058  0.4023  0.0430 -0.3389
20172TIP3    H182007   3.662   3.741   1.002  1.1121  0.5319  0.2936
20172TIP3    H282008   3.633   3.823   1.126 -0.4477 -0.4600  0.6056
20173TIP3   OH282009   1.540   2.796   3.482 -0.0322 -0.4954 -0.6918
20173TIP3    H182010   1.606   2.866   3.478  0.6021 -0.8299  1.9122
20173TIP3    H282011   1.586   2.723   3.525 -1.8605 -1.0054  0.4987
20174TIP3   OH282012   3.236   2.123   0.216  0.3091  0.1760 -0.1245
20174TIP3    H182013   3.199   2.035   0.219  1.3007 -0.2410  1.2134
20174TIP3    H282014   3.195   2.164   0.140 -0.8287 -1.1385 -0.2652
20175TIP3   OH282015   6.754   6.806   0.334 -0.4723 -0.1939 -0.3021
20175TIP3    H182016   6.849   6.814   0.337 -0.5992  1.1339  1.8765
20175TIP3    H282017   6.732   6.822   0.242  1.4165 -1.2335 -1.0017
20176TIP3   OH282018   1.128   2.435  16.996  0.8127 -0.2948 -0.2432
20176TIP3    H182019   1.096   2.507  17.051 -0.0126 -2.0939  1.7496
20176TIP3    H282020   1.223   2.437  17.007  0.7128 -0.1549  0.6266
20177TIP3   OH282021   1.127   4.948   3.194  0.1484 -0.1049 -0.0027
20177TIP3    H182022   1.156   4.953   3.285  2.6976  1.8583 -0.7950
20177TIP3    H282023   1.149   4.858   3.167  2.8920  0.3465  0.3863
20178TIP3   OH282024   0.519   2.130  13.219  0.6619 -0.2383  0.4963
20178TIP3    H182025   0.439   2.120  13.271  0.0017 -0.7833 -0.5714
20178TIP3    H282026   0.540   2.040  13.192 -0.5031  0.2002 -2.2698
20179TIP3   OH282027   6.154   4.641  12.304  0.5456 -0.4858 -0.0001
20179TIP3    H182028   6.123   4.727  12.331  1.1977  0.8037 -2.8850
20179TIP3    H282029   6.249   4.651  12.297  0.4327 -0.5052 -2.8520
20180TIP3   OH282030   2.653   6.085  13.417  0.0420  0.2173 -0.3267
20180TIP3    H182031   2.734   6.094  13.468  0.5658  0.4994 -1.1850
20180TIP3    H282032   2.591   6.144  13.460  0.0822 -0.4849  0.7313
20181TIP3   OH282033   4.172   3.565  14.236 -0.3231 -0.3999  0.4969
20181TIP3    H182034   4.253   3.525  14.270 -0.7814 -1.9188 -0.1474
20181TIP3    H282035   4.119   3.492  14.207 -0.2588  0.7427 -2.8909
20182TIP3   OH282036   1.787   5.348  10.683  0.2923 -0.1679 -0.2242
20182TIP3    H182037   1.759   5.333  10.593 -0.3114 -0.7207  0.0483
20182TIP3    H282038   1.723   5.411  10.718  0.8508  0.4832 -0.3386
20183TIP3   OH282039   3.873   2.581   4.401  0.2849 -0.1889  0.0938
20183TIP3    H182040   3.933   2.549   4.334 -0.2280  1.1778 -1.0581
20183TIP3    H282041   3.840   2.664   4.367 -0.4801  0.2400  1.7586
20184TIP3   OH282042   5.518   3.785   0.197  0.0541 -0.1413  0.5022
20184TIP3    H182043   5.549   3.724   0.131 -1.3423  0.2411 -0.5595
20184TIP3    H282044   5.520   3.736   0.279 -2.4273 -2.1679 -0.5342
20185TIP3   OH282045   1.383   4.196   4.592  0.3419  0.4330 -0.1135
20185TIP3    H182046   1.383   4.245   4.674 -2.7823 -1.2954  1.0770
20185TIP3    H282047   1.346   4.257   4.528  1.0913  1.2003  0.1676
20186TIP3   OH282048   4.160   5.702  13.251 -0.2287  0.4166  0.0184
20186TIP3    H182049   4.204   5.676  13.332  1.6907  0.4454 -0.9734
20186TIP3    H282050   4.218   5.673  13.181 -0.7870  2.2724 -1.2972
20187TIP3   OH282051   5.237   5.874   3.512 -0.0932 -0.0536  0.4150
20187TIP3    H182052   5.237   5.779   3.527 -0.7860  0.0396  1.0399
20187TIP3    H282053   5.317   5.889   3.461 -0.6117 -1.1330 -0.7659
20188TIP3   OH282054   4.053   2.384  11.276  0.0999 -0.4451 -0.2788
20188TIP3    H182055   4.094   2.341  11.201 -0.3319 -0.6422 -0.4085
20188TIP3    H282056   4.049   2.317  11.344 -1.6519 -1.0111 -0.8743
20189TIP3   OH282057   4.906   2.924   4.553  0.1468 -0.7623 -0.6819
20189TIP3    H182058   4.918   2.963   4.639 -0.8837 -0.8183 -0.5029
20189TIP3    H282059   4.984   2.950   4.504  1.6424 -2.2207  0.8010
20190TIP3   OH282060   2.652   0.318  14.822  0.0162  0.1080 -0.1125
20190TIP3    H182061   2.695   0.340  14.905 -1.0662 -1.2014  0.8443
20190TIP3    H282062   2.725   0.300  14.762  0.8337 -0.2730  0.9474
20191TIP3   OH282063   3.711   6.592  13.034 -0.3812 -0.5000  0.1936
20191TIP3    H182064   3.674   6.569  12.948  0.1119  0.9221 -0.4218
20191TIP3    H282065   3.799   6.555  13.033  0.7161  1.9263 -1.1216
20192TIP3   OH282066   5.405   0.865  12.488  0.0922 -0.6289  0.0757
20192TIP3    H182067   5.487   0.833  12.450 -0.6414 -3.1887  0.4428
20192TIP3    H282068   5.404   0.829  12.577 -1.0817 -0.0104  0.3357
20193TIP3   OH282069   4.669   2.807   3.824 -0.0713 -0.0853  0.3485
20193TIP3    H182070   4.661   2.895   3.786 -1.2239  0.3688  1.5835
20193TIP3    H282071   4.751   2.774   3.788 -0.6706  0.6417 -1.8433
20194TIP3   OH282072   4.483   0.781  15.054 -0.2608 -0.7982 -0.4881
20194TIP3    H182073   4.505   0.691  15.033  0.6241 -0.9628  0.9640
20194TIP3    H282074   4.418   0.807  14.988  1.5080 -1.5681 -2.6536
20195TIP3   OH282075   0.028   0.555  12.673 -0.1427 -0.0017  0.0666
20195TIP3    H182076   0.070   0.569  12.758  2.7707 -1.2896 -1.0061
20195TIP3    H282077  -0.059   0.521  12.694 -0.3697  1.7836  2.4653
20196TIP3   OH282078   5.969   1.077  13.362 -0.7514  0.1353  0.0803
20196TIP3    H182079   5.980   1.172  13.368  0.6398 -0.0627  0.9338
20196TIP3    H282080   6.030   1.041  13.426 -1.2395 -1.3466 -0.2473
20197TIP3   OH282081   3.578   2.981  12.845  0.4262  0.0535  0.5479
20197TIP3    H182082   3.655   2.936  12.879  0.1081  0.0184  1.2480
20197TIP3    H282083   3.613   3.055  12.796  0.9065  0.3684  1.3329
20198TIP3   OH282084   1.850   3.336   0.281  0.1301  0.8951  0.3318
20198TIP3    H182085   1.851   3.428   0.255  2.5822  0.7951 -0.1740
20198TIP3    H282086   1.930   3.325   0.333 -1.3409 -0.4390  2.4337
20199TIP3   OH282087   1.387   5.790   3.275  0.0565 -0.3273  0.2302
20199TIP3    H182088   1.411   5.791   3.183  2.0773 -0.4669  0.7221
20199TIP3    H282089   1.375   5.697   3.296  2.9173 -0.6554  0.8456
20200TIP3   OH282090   3.491   3.272   5.842 -0.0452  0.6359 -0.5607
20200TIP3    H182091   3.489   3.317   5.757  0.2405 -0.4821 -1.1745
20200TIP3    H282092   3.416   3.212   5.839 -0.0871  0.6494  0.0263
20201TIP3   OH282093   3.969   3.609  16.025  0.2354 -0.4357 -0.0077
20201TIP3    H182094   3.905   3.557  16.074 -1.1828  1.3814  0.1797
20201TIP3    H282095   4.050   3.559  16.031 -0.6245 -1.7315  1.6681
20202TIP3   OH282096   5.908   1.074   3.924 -0.2630  0.3154 -0.3325
20202TIP3    H182097   5.873   1.006   3.981  0.3150  0.1838 -0.1303
20202TIP3    H282098   5.976   1.118   3.976 -0.5830  1.0059 -0.4805
20203TIP3   OH282099   5.310   1.745  12.413  0.0695  0.4576 -0.8063
20203TIP3    H182100   5.376   1.685  12.378  0.4429  0.5258 -0.2132
20203TIP3    H282101   5.261   1.692  12.476  0.5503  0.8363 -0.1057
20204TIP3   OH282102   5.466   3.999   5.264 -0.7931  1.0728 -0.0858
20204TIP3    H182103   5.398   3.944   5.303  1.2002 -0.0810  2.0253
20204TIP3    H282104   5.507   4.043   5.339  2.2566 -0.0725 -0.9542
20205TIP3   OH282105   3.130   1.162  16.566 -0.2778 -0.3233  0.4727
20205TIP3    H182106   3.141   1.075  16.526  0.4583 -0.0481  0.0560
20205TIP3    H282107   3.106   1.219  16.493 -0.6451 -0.1455  0.7256
20206TIP3   OH282108   1.832   0.994   4.692  0.1155  0.1537 -0.0122
20206TIP3    H182109   1.747   0.953   4.704  0.7176 -1.1163  0.0571
20206TIP3    H282110   1.832   1.024   4.601 -1.1356  1.9591  0.5362
20207TIP3   OH282111   6.325   0.589   2.531 -0.7774  0.0555  0.5448
20207TIP3    H182112   6.323   0.536   2.610  0.6295  0.1023  0.6441
20207TIP3    H282113   6.412   0.574   2.494 -0.5045  1.9104  0.3339
20208TIP3   OH282114   1.777   0.823  10.924  0.7014  0.0094  0.0814
20208TIP3    H182115   1.843   0.783  10.867  1.4327  0.3996  0.6433
20208TIP3    H282116   1.789   0.917  10.913 -0.2116  0.0921 -0.3099
20209TIP3   OH282117   2.134   6.029  11.487  0.3683 -0.0311  0.0274
20209TIP3    H182118   2.168   6.063  11.570  0.1251 -0.2872  0.2324
20209TIP3    H282119   2.185   6.074  11.420  3.1914 -2.4331  0.3308
20210TIP3   OH282120   4.065   4.351   1.478 -0.6276  0.6835 -0.1134
20210TIP3    H182121   4.078   4.438   1.517 -1.0470  0.9093 -0.4718
20210TIP3    H282122   4.133   4.297   1.518 -1.0470  0.9090  0.9570
20211TIP3   OH282123   3.836   2.515  16.764 -0.4512  0.2272  0.9999
20211TIP3    H182124   3.800   2.439  16.810 -2.3278  1.1310  1.0961
20211TIP3    H282125   3.864   2.481  16.680 -0.0294 -0.8174  1.5430
20212TIP3   OH282126   1.532   1.132  14.218 -0.5760 -0.2163 -0.5754
20212TIP3    H182127   1.523   1.207  14.276  1.5605  0.4771 -1.0576
20212TIP3    H282128   1.476   1.152  14.143  0.1749  1.0511 -0.8233
20213TIP3   OH282129   1.532   0.760   3.198  0.1962 -0.5697  0.0191
20213TIP3    H182130   1.592   0.829   3.172  0.6612 -0.2302  1.8517
20213TIP3    H282131   1.575   0.717   3.272 -1.0256 -1.4697  0.2461
20214TIP3   OH282132   3.882   4.747   1.853 -0.1286 -0.0961 -0.3814
20214TIP3    H182133   3.854   4.770   1.764 -0.0119 -2.2912 -1.0506
20214TIP3    H282134   3.978   4.748   1.849 -0.0672  2.0995  0.4171
20215TIP3   OH282135   2.408   1.519   6.288 -0.1961 -0.0853  0.3382
20215TIP3    H182136   2.389   1.439   6.239 -0.4366 -0.5144  1.1247
20215TIP3    H282137   2.329   1.572   6.279  0.0302  0.1470 -0.3324
20216TIP3   OH282138   1.583   6.293   0.288  0.2192  0.3621 -0.2968
20216TIP3    H182139   1.544   6.348   0.220 -1.1178  0.4096  0.4597
20216TIP3    H282140   1.673   6.324   0.295  0.4946  0.1411 -2.2372
20217TIP3   OH282141   3.456   6.601  16.384  0.6093 -0.2359  0.1682
20217TIP3    H182142   3.493   6.513  16.384  1.5700  0.1502 -1.0329
20217TIP3    H282143   3.497   6.645  16.310  1.2320  1.6932  1.5906
20218TIP3   OH282144   6.737   5.945  12.084 -0.5527  0.1490  0.2559
20218TIP3    H182145   6.741   5.943  12.179 -0.7800  0.6466  0.2791
20218TIP3    H282146   6.796   6.015  12.058  2.6850 -2.4732 -0.2030
20219TIP3   OH282147   2.095   0.686  13.960 -0.5914  0.2761  0.1481
20219TIP3    H182148   2.099   0.702  13.866  0.3253 -0.5397  0.0330
20219TIP3    H282149   2.057   0.598  13.968  1.4768 -0.6399  0.4154
20220TIP3   OH282150   2.501   4.907  10.349  0.1914  0.4702 -0.4799
20220TIP3    H182151   2.584   4.902  10.396  0.0041  1.0063 -0.0960
20220TIP3    H282152   2.434   4.909  10.417 -0.1577 -0.2394 -0.7915
20221TIP3   OH282153   5.843   3.178  14.518 -0.2891  0.3001 -0.2269
20221TIP3    H182154   5.803   3.259  14.550 -0.2729  0.7729 -1.3390
20221TIP3    H282155   5.906   3.154  14.585  0.4934  1.8312 -0.3691
20222TIP3   OH282156   1.032   2.940   4.007  0.0811 -0.2095 -0.4892
20222TIP3    H182157   1.072   2.966   3.924  0.7341 -0.6044 -0.3050
20222TIP3    H282158   1.061   3.006   4.069  1.1263 -0.9357 -0.1823
20223TIP3   OH282159   6.326   1.201   4.495 -0.0590  0.2775  0.7146
20223TIP3    H182160   6.304   1.129   4.553  0.3476 -0.7138 -0.3205
20223TIP3    H282161   6.407   1.238   4.530 -0.4964  0.5136  1.4871
20224TIP3   OH282162   1.156   3.977   2.744  0.0050  0.3231 -0.4050
20224TIP3    H182163   1.113   3.964   2.828  0.0295 -2.1927 -0.7059
20224TIP3    H282164   1.097   3.936   2.680  2.2285 -2.3621 -0.9337
20225TIP3   OH282165   2.428   3.428  13.679 -0.8825 -0.6375 -0.4047
20225TIP3    H182166   2.481   3.470  13.748  0.5640 -0.1759 -1.7470
20225TIP3    H282167   2.339   3.458  13.696 -0.7937 -1.5037  1.9805
20226TIP3   OH282168   4.338   2.466  14.034 -0.1224  0.4206 -0.1008
20226TIP3    H182169   4.350   2.520  13.956 -0.2214 -0.2397 -0.5844
20226TIP3    H282170   4.326   2.529  14.106  1.5394  1.0645 -0.3468
20227TIP3   OH282171   1.417   0.548   4.808  0.8784 -0.6694 -0.0612
20227TIP3    H182172   1.454   0.473   4.854  2.6652  0.2029 -0.0069
20227TIP3    H282173   1.439   0.623   4.863 -0.3785 -0.0247 -0.4036
20228TIP3   OH282174   3.140   3.908  13.300 -0.1414  0.0586 -0.8815
20228TIP3    H182175   3.077   3.844  13.334 -0.9431  0.5439 -1.4127
20228TIP3    H282176   3.223   3.861  13.294 -0.0583 -0.1644  1.3405
20229TIP3   OH282177   0.974   4.888   1.604 -0.4688 -0.3346  0.1085
20229TIP3    H182178   0.941   4.978   1.598 -3.6074 -1.3523  0.4337
20229TIP3    H282179   1.017   4.884   1.690 -1.9150  0.4118  0.9010
20230TIP3   OH282180   5.905   2.823  11.692  0.0158  0.2698  0.4336
20230TIP3    H182181   5.837   2.818  11.626  1.3673  0.4362 -1.0293
20230TIP3    H282182   5.976   2.872  11.650  1.2269 -0.2913  1.7336
20231TIP3   OH282183   0.398   3.313   1.342  0.1357  0.2675  0.8217
20231TIP3    H182184   0.330   3.332   1.278  1.1201 -0.7304 -0.5896
20231TIP3    H282185   0.352   3.303   1.425 -1.3723  0.0416 -0.0200
20232TIP3   OH282186   4.665   6.412  16.005 -0.7401  0.2089  0.4132
20232TIP3    H182187   4.637   6.391  16.094 -0.1583 -1.5076  0.2273
20232TIP3    H282188   4.685   6.506  16.008 -0.9586  0.2341  2.0225
20233CLA    CLA82189   6.006   1.774   0.911 -0.3739 -0.1660  0.2184
20234LIG     O182190   3.534   3.640  16.075 -0.2217  0.6316  0.2301
20234LIG     O282191   3.120   3.355  16.647  0.0858  0.1648  0.3959
20234LIG     O382192   3.719   3.588  15.459 -0.1835  0.0268  0.7198
20234LIG     O482193   3.074   3.571  16.616 -0.2665 -0.2920  0.0559
20234LIG      N82194   3.699   3.758  16.333  0.1345 -0.2089  0.3169
20234LIG     C182195   3.593   3.661  16.356 -0.3303  0.2557 -0.0601
20234LIG     C282196   3.728   3.757  16.183 -0.2820  0.0346 -0.0475
20234LIG     C382197   3.530   3.648  16.498 -0.7147 -0.2093 -0.2818
20234LIG     C482198   3.822   3.718  16.403 -0.2347  0.1289  0.2866
20234LIG     C582199   3.650   3.897  16.365 -0.5749 -0.2532 -0.1516
20234LIG     C682200   3.611   3.764  16.075  0.5556 -0.1698  0.8651
20234LIG     C782201   3.421   3.534  16.499 -0.4506  0.2079 -0.1931
20234LIG     C882202   3.441   3.610  15.967  0.0640  0.0027 -0.0419
20234LIG     C982203   3.310   3.553  16.399  0.5357  0.2476 -0.3317
20234LIG    C1082204   3.513   3.610  15.827  0.4961  0.1844 -0.1943
20234LIG    C1182205   3.323   3.717  15.976 -0.2262  0.6556  0.2580
20234LIG    C1282206   3.393   3.461  15.983 -0.1998  0.0001 -0.5749
20234LIG    C1382207   3.196   3.457  16.429 -0.3821 -0.1399 -0.1541
20234LIG    C1482208   3.445   3.638  15.707 -0.0400  0.2948  0.2731
20234LIG    C1582209   3.640   3.550  15.810  0.3864 -0.2090 -0.2312
20234LIG    C1682210   3.331   3.844  15.914 -0.4241 -0.2353 -0.0466
20234LIG    C1782211   3.275   3.410  15.916  0.2122 -0.2567  0.7279
20234LIG    C1882212   3.205   3.691  16.058 -0.0471  0.2440  0.4597
20234LIG    C1982213   3.473   3.374  16.063 -0.2792  0.1020 -0.3287
20234LIG    C2082214   3.130   3.472  16.571 -0.7240  0.0421  0.6733
20234LIG    C2182215   3.509   3.633  15.580  0.7356  0.2201  0.1252
20234LIG    C2282216   3.702   3.539  15.688  0.0325 -0.4146  0.6203
20234LIG    C2382217   3.226   3.931  15.916  0.3669 -0.1519 -0.1175
20234LIG    C2482218   3.235   3.276  15.948  0.1113 -0.8944  0.7808
20234LIG    C2582219   3.105   3.782  16.071  0.3166  0.8329  0.4650
20234LIG    C2682220   3.427   3.250  16.095 -0.0747  0.3347 -0.6279
20234LIG    C2782221   3.642   3.589  15.575  0.0018  0.6377  0.5012
20234LIG    C2882222   3.110   3.901  15.999 -0.1420  0.1540  0.3790
20234LIG    C2982223   3.303   3.203  16.048 -0.8720  0.4051  0.8242
20234LIG    C3082224   3.666   3.627  15.338  0.9528 -0.2345  0.7466
20234LIG     H182225   3.617   3.558  16.332 -0.5456 -0.1334  1.2917
20234LIG     H282226   3.520   3.688  16.282  1.1993 -0.5058 -1.9514
20234LIG     H382227   3.783   3.666  16.163 -0.4563 -0.1241  0.1788
20234LIG     H482228   3.798   3.837  16.162  0.6203 -0.7016  0.1032
20234LIG     H582229   3.488   3.742  16.539  0.8410  1.9601 -3.2849
20234LIG     H682230   3.613   3.618  16.566 -1.0334  0.4470  0.4113
20234LIG     H782231   3.811   3.725  16.510 -0.5435 -0.2615  0.2837
20234LIG     H882232   3.898   3.790  16.376  0.0913 -0.2588  0.1552
20234LIG     H982233   3.866   3.621  16.382  1.4104  1.0926 -0.9899
20234LIG    H1082234   3.638   3.908  16.471  0.2937  2.5283 -0.2457
20234LIG    H1182235   3.554   3.918  16.320 -0.4136  1.0345  0.0716
20234LIG    H1282236   3.729   3.968  16.343  1.1736 -1.7679  1.0238
20234LIG    H1382237   3.546   3.852  16.093 -2.8523 -2.4138  0.4577
20234LIG    H1482238   3.656   3.780  15.974 -0.1132  0.4686  0.6617
20234LIG    H1582239   3.392   3.534  16.607  1.5425 -0.9649  0.4012
20234LIG    H1682240   3.468   3.438  16.471  0.3152  0.8137 -1.0348
20234LIG    H1782241   3.346   3.525  16.298  1.3087 -1.6971  0.4293
20234LIG    H1882242   3.275   3.659  16.401  1.5100  0.6721 -2.8104
20234LIG    H1982243   3.225   3.350  16.420  1.3195  0.4499 -2.2544
20234LIG    H2082244   3.110   3.481  16.363 -1.7646 -1.9807  0.8733
20234LIG    H2182245   3.342   3.671  15.715 -0.3598 -1.1222  3.3616
20234LIG    H2282246   3.688   3.496  15.891  1.6145 -0.0520 -0.8432
20234LIG    H2382247   3.421   3.866  15.860  1.8913 -0.4865  3.3754
20234LIG    H2482248   3.234   3.467  15.834  1.5055 -1.5391 -0.8780
20234LIG    H2582249   3.200   3.593  16.104  0.0384  0.1101  0.1919
20234LIG    H2682250   3.566   3.404  16.109 -0.2592  2.1387 -1.5633
20234LIG    H2782251   3.457   3.676  15.495  1.1509 -0.4231 -0.4674
20234LIG    H2882252   3.803   3.501  15.687  0.1735 -0.0605  1.0910
20234LIG    H2982253   3.234   4.029  15.871 -1.0207  0.0481  0.0351
20234LIG    H3082254   3.137   3.243  15.916  0.3260 -1.3880  0.6242
20234LIG    H3182255   3.021   3.756  16.134  0.3791  1.1090  0.6629
20234LIG    H3282256   3.479   3.185  16.164 -0.1151 -0.3976 -1.2755
20234LIG    H3382257   3.024   3.966  15.991 -0.3624 -0.3468 -2.2420
20234LIG    H3482258   3.266   3.105  16.073 -0.9129  0.4054  0.7662
20234LIG    H3582259   3.069   3.370  16.727  0.1684 -2.3736  1.0117
20234LIG    H3682260   3.623   3.729  15.348 -1.7069 -0.8524 -2.6266
20234LIG    H3782261   3.590   3.555  15.301 -0.1937  0.4688  1.6697
20234LIG    H3882262   3.751   3.616  15.267  1.0071  1.3390  0.5312
   6.82397   6.82397  17.20291
